
                                 *****************
                                 * O   R   C   A *
                                 *****************

                                            #,                                       
                                            ###                                      
                                            ####                                     
                                            #####                                    
                                            ######                                   
                                           ########,                                 
                                     ,,################,,,,,                         
                               ,,#################################,,                 
                          ,,##########################################,,             
                       ,#########################################, ''#####,          
                    ,#############################################,,   '####,        
                  ,##################################################,,,,####,       
                ,###########''''           ''''###############################       
              ,#####''   ,,,,##########,,,,          '''####'''          '####       
            ,##' ,,,,###########################,,,                        '##       
           ' ,,###''''                  '''############,,,                           
         ,,##''                                '''############,,,,        ,,,,,,###''
      ,#''                                            '''#######################'''  
     '                                                          ''''####''''         
             ,#######,   #######,   ,#######,      ##                                
            ,#'     '#,  ##    ##  ,#'     '#,    #''#        ######   ,####,        
            ##       ##  ##   ,#'  ##            #'  '#       #        #'  '#        
            ##       ##  #######   ##           ,######,      #####,   #    #        
            '#,     ,#'  ##    ##  '#,     ,#' ,#      #,         ##   #,  ,#        
             '#######'   ##     ##  '#######'  #'      '#     #####' # '####'        



                  #######################################################
                  #                        -***-                        #
                  #          Department of theory and spectroscopy      #
                  #    Directorship and core code : Frank Neese         #
                  #        Max Planck Institute fuer Kohlenforschung    #
                  #                Kaiser Wilhelm Platz 1               #
                  #                 D-45470 Muelheim/Ruhr               #
                  #                      Germany                        #
                  #                                                     #
                  #                  All rights reserved                #
                  #                        -***-                        #
                  #######################################################


                         Program Version 5.0.3 -  RELEASE  -


 With contributions from (in alphabetic order):
   Daniel Aravena         : Magnetic Suceptibility
   Michael Atanasov       : Ab Initio Ligand Field Theory (pilot matlab implementation)
   Alexander A. Auer      : GIAO ZORA, VPT2 properties, NMR spectrum
   Ute Becker             : Parallelization
   Giovanni Bistoni       : ED, misc. LED, open-shell LED, HFLD
   Martin Brehm           : Molecular dynamics
   Dmytro Bykov           : SCF Hessian
   Vijay G. Chilkuri      : MRCI spin determinant printing, contributions to CSF-ICE
   Dipayan Datta          : RHF DLPNO-CCSD density
   Achintya Kumar Dutta   : EOM-CC, STEOM-CC
   Dmitry Ganyushin       : Spin-Orbit,Spin-Spin,Magnetic field MRCI
   Miquel Garcia          : C-PCM and meta-GGA Hessian, CC/C-PCM, Gaussian charge scheme
   Yang Guo               : DLPNO-NEVPT2, F12-NEVPT2, CIM, IAO-localization
   Andreas Hansen         : Spin unrestricted coupled pair/coupled cluster methods
   Benjamin Helmich-Paris : MC-RPA, TRAH-SCF, COSX integrals
   Lee Huntington         : MR-EOM, pCC
   Robert Izsak           : Overlap fitted RIJCOSX, COSX-SCS-MP3, EOM
   Marcus Kettner         : VPT2
   Christian Kollmar      : KDIIS, OOCD, Brueckner-CCSD(T), CCSD density, CASPT2, CASPT2-K
   Simone Kossmann        : Meta GGA functionals, TD-DFT gradient, OOMP2, MP2 Hessian
   Martin Krupicka        : Initial AUTO-CI
   Lucas Lang             : DCDCAS
   Marvin Lechner         : AUTO-CI (C++ implementation), FIC-MRCC
   Dagmar Lenk            : GEPOL surface, SMD
   Dimitrios Liakos       : Extrapolation schemes; Compound Job, initial MDCI parallelization
   Dimitrios Manganas     : Further ROCIS development; embedding schemes
   Dimitrios Pantazis     : SARC Basis sets
   Anastasios Papadopoulos: AUTO-CI, single reference methods and gradients
   Taras Petrenko         : DFT Hessian,TD-DFT gradient, ASA, ECA, R-Raman, ABS, FL, XAS/XES, NRVS
   Peter Pinski           : DLPNO-MP2, DLPNO-MP2 Gradient
   Christoph Reimann      : Effective Core Potentials
   Marius Retegan         : Local ZFS, SOC
   Christoph Riplinger    : Optimizer, TS searches, QM/MM, DLPNO-CCSD(T), (RO)-DLPNO pert. Triples
   Tobias Risthaus        : Range-separated hybrids, TD-DFT gradient, RPA, STAB
   Michael Roemelt        : Original ROCIS implementation
   Masaaki Saitow         : Open-shell DLPNO-CCSD energy and density
   Barbara Sandhoefer     : DKH picture change effects
   Avijit Sen             : IP-ROCIS
   Kantharuban Sivalingam : CASSCF convergence, NEVPT2, FIC-MRCI
   Bernardo de Souza      : ESD, SOC TD-DFT
   Georgi Stoychev        : AutoAux, RI-MP2 NMR, DLPNO-MP2 response
   Willem Van den Heuvel  : Paramagnetic NMR
   Boris Wezisla          : Elementary symmetry handling
   Frank Wennmohs         : Technical directorship


 We gratefully acknowledge several colleagues who have allowed us to
 interface, adapt or use parts of their codes:
   Stefan Grimme, W. Hujo, H. Kruse, P. Pracht,  : VdW corrections, initial TS optimization,
                  C. Bannwarth, S. Ehlert          DFT functionals, gCP, sTDA/sTD-DF
   Ed Valeev, F. Pavosevic, A. Kumar             : LibInt (2-el integral package), F12 methods
   Garnet Chan, S. Sharma, J. Yang, R. Olivares  : DMRG
   Ulf Ekstrom                                   : XCFun DFT Library
   Mihaly Kallay                                 : mrcc  (arbitrary order and MRCC methods)
   Jiri Pittner, Ondrej Demel                    : Mk-CCSD
   Frank Weinhold                                : gennbo (NPA and NBO analysis)
   Christopher J. Cramer and Donald G. Truhlar   : smd solvation model
   Lars Goerigk                                  : TD-DFT with DH, B97 family of functionals
   V. Asgeirsson, H. Jonsson                     : NEB implementation
   FAccTs GmbH                                   : IRC, NEB, NEB-TS, DLPNO-Multilevel, CI-OPT
                                                   MM, QMMM, 2- and 3-layer-ONIOM, Crystal-QMMM,
                                                   LR-CPCM, SF, NACMEs, symmetry and pop. for TD-DFT,
                                                   nearIR, NL-DFT gradient (VV10), updates on ESD,
                                                   ML-optimized integration grids
   S Lehtola, MJT Oliveira, MAL Marques          : LibXC Library
   Liviu Ungur et al                             : ANISO software


 Your calculation uses the libint2 library for the computation of 2-el integrals
 For citations please refer to: http://libint.valeyev.net

 Your ORCA version has been built with support for libXC version: 5.1.0
 For citations please refer to: https://tddft.org/programs/libxc/

 This ORCA versions uses:
   CBLAS   interface :  Fast vector & matrix operations
   LAPACKE interface :  Fast linear algebra routines
   SCALAPACK package :  Parallel linear algebra routines
   Shared memory     :  Shared parallel matrices
   BLAS/LAPACK       :  OpenBLAS 0.3.15  USE64BITINT DYNAMIC_ARCH NO_AFFINITY SkylakeX SINGLE_THREADED
        Core in use  :  SkylakeX
   Copyright (c) 2011-2014, The OpenBLAS Project


================================================================================

----- Orbital basis set information -----
Your calculation utilizes the basis: def2-SVP
   F. Weigend and R. Ahlrichs, Phys. Chem. Chem. Phys. 7, 3297 (2005).

The basis set includes element-specific modifications.

Your calculation utilizes the basis: SARC-ZORA-TZVPP 
   Rb-Xe:  J. D. Rolfes, F. Neese and D. A. Pantazis, J. Comput. Chem. 41, 1842 (2020).
   La-Lu:  D. A. Pantazis and F. Neese, J. Chem. Theory Comput. 5, 2229 (2009).
   Hf-Hg:  D. A. Pantazis, X. Y. Chen, C. R. Landis and F. Neese, J. Chem. Theory Comput. 4, 908 (2008).
   Tl-Rn:  D. A. Pantazis and F. Neese, Theor. Chem. Acc. 131, 1292 (2012).
   Ac-Lr:  D. A. Pantazis and F. Neese, J. Chem. Theory Comput. 7, 677 (2011).

Your calculation utilizes the basis: ZORA-def2-QZVPP 
   Exponents from def2-QZVPP [F. Weigend and R. Ahlrichs, Phys. Chem. Chem. Phys. 7, 3297 (2005)],
   recontracted for ZORA by D. A. Pantazis.

================================================================================
                                        WARNINGS
                       Please study these warnings very carefully!
================================================================================


INFO   : the flag for use of the SHARK integral package has been found!

================================================================================
                                       INPUT FILE
================================================================================
NAME = AgO.inp
|  1> !uks pbe nori defgrid3 verytightscf
|  2> 
|  3> %pal nprocs 16 end
|  4> 
|  5> %scf maxiter 400 end
|  6> 
|  7> %basis
|  8>   newgto Ag "sarc-zora-tzvpp" end
|  9>   delecp Ag
| 10>   newgto O "zora-def2-qzvpp" end
| 11>   delecp O
| 12> end
| 13> 
| 14> *xyz 0 2
| 15> Ag 0.0000000000 0.0000000000 0.0000000000
| 16> O 0.0000000000 0.0000000000 1.9310000000
| 17> *
| 18> 
| 19>                          ****END OF INPUT****
================================================================================

                       ****************************
                       * Single Point Calculation *
                       ****************************

---------------------------------
CARTESIAN COORDINATES (ANGSTROEM)
---------------------------------
  Ag     0.000000    0.000000    0.000000
  O      0.000000    0.000000    1.931000

----------------------------
CARTESIAN COORDINATES (A.U.)
----------------------------
  NO LB      ZA    FRAG     MASS         X           Y           Z
   0 Ag   47.0000    0   107.870    0.000000    0.000000    0.000000
   1 O     8.0000    0    15.999    0.000000    0.000000    3.649061

--------------------------------
INTERNAL COORDINATES (ANGSTROEM)
--------------------------------
 Ag     0   0   0     0.000000000000     0.00000000     0.00000000
 O      1   0   0     1.931000000000     0.00000000     0.00000000

---------------------------
INTERNAL COORDINATES (A.U.)
---------------------------
 Ag     0   0   0     0.000000000000     0.00000000     0.00000000
 O      1   0   0     3.649061164602     0.00000000     0.00000000

---------------------
BASIS SET INFORMATION
---------------------
There are 2 groups of distinct atoms

 Group   1 Type Ag  : 22s15p10d2f1g contracted to 15s10p6d2f1g pattern {811111111111111/6111111111/511111/11/1}
 Group   2 Type O   : 15s8p3d2f1g contracted to 8s4p3d2f1g pattern {81111111/5111/111/11/1}

Atom   0Ag   basis set group =>   1
Atom   1O    basis set group =>   2


           ************************************************************
           *        Program running with 16 parallel MPI-processes    *
           *              working on a common directory               *
           ************************************************************
------------------------------------------------------------------------------
                           ORCA GTO INTEGRAL CALCULATION
------------------------------------------------------------------------------
------------------------------------------------------------------------------
                   ___                                                        
                  /   \      - P O W E R E D   B Y -                         
                 /     \                                                     
                 |  |  |   _    _      __       _____    __    __             
                 |  |  |  | |  | |    /  \     |  _  \  |  |  /  |          
                  \  \/   | |  | |   /    \    | | | |  |  | /  /          
                 / \  \   | |__| |  /  /\  \   | |_| |  |  |/  /          
                |  |  |   |  __  | /  /__\  \  |    /   |      \           
                |  |  |   | |  | | |   __   |  |    \   |  |\   \          
                \     /   | |  | | |  |  |  |  | |\  \  |  | \   \       
                 \___/    |_|  |_| |__|  |__|  |_| \__\ |__|  \__/        
                                                                              
                      - O R C A' S   B I G   F R I E N D -                    
                                      &                                       
                       - I N T E G R A L  F E E D E R -                       
                                                                              
 v1 FN, 2020, v2 2021                                                         
------------------------------------------------------------------------------


Reading SHARK input file AgO.SHARKINP.tmp ... ok
----------------------
SHARK INTEGRAL PACKAGE
----------------------

Number of atoms                             ...      2
Number of basis functions                   ...    156
Number of shells                            ...     52
Maximum angular momentum                    ...      4
Integral batch strategy                     ... SHARK/LIBINT Hybrid
RI-J (if used) integral strategy            ... SPLIT-RIJ (Revised 2003 algorithm where possible)
Printlevel                                  ...      1
Contraction scheme used                     ... SEGMENTED contraction
Coulomb Range Separation                    ... NOT USED
Exchange Range Separation                   ... NOT USED
Finite Nucleus Model                        ... NOT USED
Auxiliary Coulomb fitting basis             ... NOT available
Auxiliary J/K fitting basis                 ... NOT available
Auxiliary Correlation fitting basis         ... NOT available
Auxiliary 'external' fitting basis          ... NOT available
Integral threshold                          ...     1.000000e-12
Primitive cut-off                           ...     1.000000e-14
Primitive pair pre-selection threshold      ...     1.000000e-14

Calculating pre-screening integrals         ... done (  0.1 sec) Dimension = 52
Organizing shell pair data                  ... done (  0.0 sec)
Shell pair information
Total number of shell pairs                 ...      1378
Shell pairs after pre-screening             ...      1285
Total number of primitive shell pairs       ...      3251
Primitive shell pairs kept                  ...      2703
          la=0 lb=0:    228 shell pairs
          la=1 lb=0:    298 shell pairs
          la=1 lb=1:    105 shell pairs
          la=2 lb=0:    190 shell pairs
          la=2 lb=1:    122 shell pairs
          la=2 lb=2:     45 shell pairs
          la=3 lb=0:     92 shell pairs
          la=3 lb=1:     56 shell pairs
          la=3 lb=2:     36 shell pairs
          la=3 lb=3:     10 shell pairs
          la=4 lb=0:     46 shell pairs
          la=4 lb=1:     28 shell pairs
          la=4 lb=2:     18 shell pairs
          la=4 lb=3:      8 shell pairs
          la=4 lb=4:      3 shell pairs

Calculating one electron integrals          ... done (  0.0 sec)
Calculating Nuclear repulsion               ... done (  0.0 sec) ENN=    103.040202134024 Eh

SHARK setup successfully completed in   0.2 seconds

Maximum memory used throughout the entire GTOINT-calculation: 27.1 MB


           ************************************************************
           *        Program running with 16 parallel MPI-processes    *
           *              working on a common directory               *
           ************************************************************
-------------------------------------------------------------------------------
                                 ORCA SCF
-------------------------------------------------------------------------------

------------
SCF SETTINGS
------------
Hamiltonian:
 Density Functional     Method          .... DFT(GTOs)
 Exchange Functional    Exchange        .... PBE
   PBE kappa parameter   XKappa         ....  0.804000
   PBE mue parameter    XMuePBE         ....  0.219520
 Correlation Functional Correlation     .... PBE
   PBE beta parameter  CBetaPBE         ....  0.066725
 LDA part of GGA corr.  LDAOpt          .... PW91-LDA
 Gradients option       PostSCFGGA      .... off
   Density functional embedding theory  .... OFF
   NL short-range parameter             ....  6.400000


General Settings:
 Integral files         IntName         .... AgO
 Hartree-Fock type      HFTyp           .... UHF
 Total Charge           Charge          ....    0
 Multiplicity           Mult            ....    2
 Number of Electrons    NEL             ....   55
 Basis Dimension        Dim             ....  156
 Nuclear Repulsion      ENuc            ....    103.0402021340 Eh

Convergence Acceleration:
 DIIS                   CNVDIIS         .... on
   Start iteration      DIISMaxIt       ....    12
   Startup error        DIISStart       ....  0.200000
   # of expansion vecs  DIISMaxEq       ....     5
   Bias factor          DIISBfac        ....   1.050
   Max. coefficient     DIISMaxC        ....  10.000
 Trust-Rad. Augm. Hess. CNVTRAH         .... auto
   Auto Start mean grad. ratio tolernc. ....  1.125000
   Auto Start start iteration           ....    20
   Auto Start num. interpolation iter.  ....    10
   Max. Number of Micro iterations      ....    16
   Max. Number of Macro iterations      .... Maxiter - #DIIS iter
   Number of Davidson start vectors     ....     2
   Converg. threshold I  (grad. norm)   ....   2.000e-06
   Converg. threshold II (energy diff.) ....   1.000e-09
   Grad. Scal. Fac. for Micro threshold ....   0.100
   Minimum threshold for Micro iter.    ....   0.010
   NR start threshold (gradient norm)   ....   0.001
   Initial trust radius                 ....   0.400
   Minimum AH scaling param. (alpha)    ....   1.000
   Maximum AH scaling param. (alpha)    .... 1000.000
   Orbital update algorithm             .... Taylor
   White noise on init. David. guess    .... on
   Maximum white noise                  ....   0.010
   Quad. conv. algorithm                .... NR
 SOSCF                  CNVSOSCF        .... off
 Level Shifting         CNVShift        .... on
   Level shift para.    LevelShift      ....    0.2500
   Turn off err/grad.   ShiftErr        ....    0.0010
 Zerner damping         CNVZerner       .... off
 Static damping         CNVDamp         .... on
   Fraction old density DampFac         ....    0.7000
   Max. Damping (<1)    DampMax         ....    0.9800
   Min. Damping (>=0)   DampMin         ....    0.0000
   Turn off err/grad.   DampErr         ....    0.1000
 Fernandez-Rico         CNVRico         .... off

SCF Procedure:
 Maximum # iterations   MaxIter         ....   400
 SCF integral mode      SCFMode         .... Direct
   Integral package                     .... SHARK and LIBINT hybrid scheme
 Reset frequency        DirectResetFreq ....    20
 Integral Threshold     Thresh          ....  1.000e-12 Eh
 Primitive CutOff       TCut            ....  1.000e-14 Eh

Convergence Tolerance:
 Convergence Check Mode ConvCheckMode   .... Total+1el-Energy
 Convergence forced     ConvForced      .... 0
 Energy Change          TolE            ....  1.000e-09 Eh
 1-El. energy change                    ....  1.000e-06 Eh
 DIIS Error             TolErr          ....  1.000e-08


Diagonalization of the overlap matrix:
Smallest eigenvalue                        ... 7.033e-04
Time for diagonalization                   ...    0.003 sec
Threshold for overlap eigenvalues          ... 1.000e-08
Number of eigenvalues below threshold      ... 0
Time for construction of square roots      ...    0.003 sec
Total time needed                          ...    0.007 sec

Time for model grid setup =    0.149 sec

------------------------------
INITIAL GUESS: MODEL POTENTIAL
------------------------------
Loading Hartree-Fock densities                     ... done
Calculating cut-offs                               ... done
Initializing the effective Hamiltonian             ... done
Setting up the integral package (SHARK)            ... done
Starting the Coulomb interaction                   ... done (   0.0 sec)
Reading the grid                                   ... done
Mapping shells                                     ... done
Starting the XC term evaluation                    ... done (   0.0 sec)
  promolecular density results
     # of electrons  =     55.000648242
     EX              =   -151.468318742
     EC              =     -2.743625880
     EX+EC           =   -154.211944622
Transforming the Hamiltonian                       ... done (   0.0 sec)
Diagonalizing the Hamiltonian                      ... done (   0.0 sec)
Back transforming the eigenvectors                 ... done (   0.0 sec)
Now organizing SCF variables                       ... done
                      ------------------
                      INITIAL GUESS DONE (   0.2 sec)
                      ------------------
-------------------
DFT GRID GENERATION
-------------------

General Integration Accuracy     IntAcc      ... 4.959
Radial Grid Type                 RadialGrid  ... OptM3 with GC (2021)
Angular Grid (max. ang.)         AngularGrid ... 6 (Lebedev-590)
Angular grid pruning method      GridPruning ... 4 (adaptive)
Weight generation scheme         WeightScheme... Becke
Basis function cutoff            BFCut       ... 1.0000e-12
Integration weight cutoff        WCut        ... 1.0000e-14
Angular grids for H and He will be reduced by one unit
Partially contracted basis set               ... off
Rotationally invariant grid construction     ... off

Total number of grid points                  ...    80883
Total number of batches                      ...     1265
Average number of points per batch           ...       63
Average number of grid points per atom       ...    40442
Time for grid setup =    3.538 sec

--------------
SCF ITERATIONS
--------------
ITER       Energy         Delta-E        Max-DP      RMS-DP      [F,P]     Damp
               ***  Starting incremental Fock matrix formation  ***
  0  -5271.2262991902   0.000000000000 0.12272913  0.00247701  0.3766268 0.7000
  1  -5271.4517178967  -0.225418706495 0.03712644  0.00066525  0.0771728 0.7000
                               ***Turning on DIIS***
  2  -5271.6084933530  -0.156775456383 0.08671762  0.00160395  0.0416945 0.0000
  3  -5271.7382711393  -0.129777786272 0.00298277  0.00009826  0.1991429 0.7000
  4  -5271.7514901902  -0.013219050848 0.00340634  0.00010803  0.1918782 0.7000
  5  -5271.7649752768  -0.013485086627 0.00415268  0.00009785  0.1827781 0.7000
  6  -5271.7782646591  -0.013289382287 0.00513635  0.00008946  0.1721492 0.7000
  7  -5271.7924344931  -0.014169834047 0.01877811  0.00039913  0.1593827 0.7000
  8  -5271.8515717755  -0.059137282414 0.04556634  0.00087813  0.0842086 0.0000
  9  -5271.8794443059  -0.027872530318 0.01222275  0.00018855  0.0509476 0.0000
 10  -5271.8898694249  -0.010425119014 0.00931495  0.00013293  0.0259408 0.0000
 11  -5271.8934370469  -0.003567622041 0.00567273  0.00009063  0.0124139 0.0000
 12  -5271.8942341278  -0.000797080917 0.00401521  0.00005955  0.0056295 0.0000
 13  -5271.8945201774  -0.000286049541 0.00141006  0.00002751  0.0022822 0.0000
 14  -5271.8945661005  -0.000045923171 0.00090207  0.00001837  0.0014244 0.0000
 15  -5271.8945855988  -0.000019498297 0.00062705  0.00001341  0.0010690 0.0000
 16  -5271.8945953136  -0.000009714789 0.11601984  0.00275459  0.0008251 0.0000
 17  -5271.8754491090   0.019146204643 0.00002053  0.00000040  0.1029298 0.7000
 18  -5271.8753977597   0.000051349290 0.00001859  0.00000035  0.1029986 0.7000
 19  -5271.8753674030   0.000030356698 0.00004942  0.00000079  0.1030386 0.7000
               *** Restarting incremental Fock matrix formation ***
                                   *** Resetting DIIS ***

 WARNING: the maximum gradient error descreased on average only by a factor   0.7
          during the last 20 iterations

                      *** Initiating the TRAH-SCF procedure ***


TRAH GRID
---------

General Integration Accuracy     IntAcc      ... 3.467
Radial Grid Type                 RadialGrid  ... OptM3 with GC (2021)
Angular Grid (max. ang.)         AngularGrid ... 3 (Lebedev-194)
Angular grid pruning method      GridPruning ... 4 (adaptive)
Weight generation scheme         WeightScheme... Becke
Basis function cutoff            BFCut       ... 1.0000e-12
Integration weight cutoff        WCut        ... 1.0000e-14
Angular grids for H and He will be reduced by one unit
Partially contracted basis set               ... off
Rotationally invariant grid construction     ... off

Total number of grid points                  ...    13907
Total number of batches                      ...      219
Average number of points per batch           ...       63
Average number of grid points per atom       ...     6954

 --------------------------------------------------------------------------------------------
   Iter.        energy            ||Error||_2        Shift      TRadius  Mac/Mic        Rej.
 --------------------------------------------------------------------------------------------
WARNING: 5 diagonal Hessian elements are negative!
    0      -5271.875412402429     3.129161e-01                     0.400 (TRAH MAcro)   No
WARNING : negative HOMO - LUMO gap : (op =  beta) -0.102926
    0     dE    -2.522874e-02     1.738304e+00    -2.5068e-02      0.080 (TRAH MIcro)
    0     dE    -4.473551e-02     3.922646e-01    -4.2858e-02      0.209 (TRAH MIcro)
    0     dE    -4.734568e-02     8.870646e-02    -4.5268e-02      0.214 (TRAH MIcro)
    0     dE    -4.813510e-02     2.982587e-02    -4.5904e-02      0.220 (TRAH MIcro)
    0     dE    -4.837489e-02     5.372506e-02    -4.6065e-02      0.224 (TRAH MIcro)
    0     dE    -4.906014e-02     4.112235e-02    -4.6460e-02      0.237 (TRAH MIcro)
    0     dE    -5.065357e-02     6.812234e-02    -4.7038e-02      0.277 (TRAH MIcro)
    0     dE    -5.098737e-02     1.442986e-02    -4.7160e-02      0.285 (TRAH MIcro)
    0     dE    -5.096944e-02     4.934581e-03    -4.7169e-02      0.284 (TRAH MIcro)
    1      -5271.917927272303     5.399054e-02                     0.480 (TRAH MAcro)   No
WARNING : small    HOMO - LUMO gap : (op =  beta) 0.012138
    1     dE    -2.199938e-05     6.923224e-01    -2.1999e-05      0.000 (TRAH MIcro)
    1     dE    -3.928821e-03     2.488366e-01    -3.8972e-03      0.090 (TRAH MIcro)
    1     dE    -6.680070e-03     1.105049e-01    -6.4827e-03      0.174 (TRAH MIcro)
    1     dE    -7.318910e-03     2.011322e-02    -7.0622e-03      0.191 (TRAH MIcro)
    1     dE    -7.385284e-03     7.172718e-03    -7.1220e-03      0.192 (TRAH MIcro)
    1     dE    -7.388763e-03     1.898822e-03    -7.1249e-03      0.192 (TRAH MIcro)
    2      -5271.925359265598     1.524059e-02                     0.576 (TRAH MAcro)   No
    2     dE    -8.909094e-07     1.431374e-01    -8.9102e-07      0.000 (TRAH MIcro)
    2     dE    -9.876984e-05     5.961991e-03    -9.8759e-05      0.010 (TRAH MIcro)
    2     dE    -1.152055e-04     1.572165e-02    -1.1519e-04      0.013 (TRAH MIcro)
    2     dE    -1.208309e-04     2.343026e-03    -1.2080e-04      0.015 (TRAH MIcro)
    2     dE    -1.210145e-04     5.915686e-04    -1.2099e-04      0.015 (TRAH MIcro)
    3      -5271.925481800035     6.119680e-04                           (NR   MAcro)
    3     dE    -6.917508e-08     4.143059e-04                           (NR   MIcro)
    3     dE    -1.110347e-07     1.464146e-04                           (NR   MIcro)
    3     dE    -1.174106e-07     8.420216e-05                           (NR   MIcro)
    3     dE    -1.181897e-07     1.993138e-05                           (NR   MIcro)
    3     dE    -1.182733e-07     7.161055e-06                           (NR   MIcro)
    3     dE    -1.182879e-07     2.963881e-06                           (NR   MIcro)
    4      -5271.925481918374     3.093235e-06                           (NR   MAcro)
    4     dE    -1.415515e-12     1.280139e-06                           (NR   MIcro)
    4     dE    -2.020566e-12     7.877924e-07                           (NR   MIcro)
    4     dE    -2.190374e-12     4.112080e-07                           (NR   MIcro)
    4     dE    -2.231601e-12     2.298975e-07                           (NR   MIcro)
    4     dE    -2.244444e-12     9.327926e-08                           (NR   MIcro)
    5      -5271.925481918376     9.332919e-08                           (NR   MAcro)

               *****************************************************
               *                     SUCCESS                       *
               *           SCF CONVERGED AFTER  57 CYCLES          *
               *****************************************************


----------------
TOTAL SCF ENERGY
----------------

Total Energy       :        -5271.92548192 Eh         -143456.38554 eV

Components:
Nuclear Repulsion  :          103.04020213 Eh            2803.86645 eV
Electronic Energy  :        -5374.96568405 Eh         -146260.25199 eV
One Electron Energy:        -7490.32549936 Eh         -203822.11895 eV
Two Electron Energy:         2115.35981531 Eh           57561.86696 eV

Virial components:
Potential Energy   :       -10538.53865839 Eh         -286768.21591 eV
Kinetic Energy     :         5266.61317647 Eh          143311.83036 eV
Virial Ratio       :            2.00100868


DFT components:
N(Alpha)           :       27.999998855364 electrons
N(Beta)            :       27.000000707204 electrons
N(Total)           :       54.999999562568 electrons
E(X)               :     -151.410840913369 Eh       
E(C)               :       -2.742482063566 Eh       
E(XC)              :     -154.153322976936 Eh       
DFET-embed. en.    :        0.000000000000 Eh       

---------------
SCF CONVERGENCE
---------------

  Last Energy change         ...   -1.8190e-12  Tolerance :   1.0000e-09
  Last Orbital Gradient      ...    9.3329e-08  Tolerance :   2.0000e-06
  Last Orbital Rotation      ...    3.9759e-06

             **** THE GBW FILE WAS UPDATED (AgO.gbw) ****
             **** DENSITY AgO.scfp WAS UPDATED ****
             **** ENERGY FILE WAS UPDATED (AgO.en.tmp) ****
----------------------
UHF SPIN CONTAMINATION
----------------------

Warning: in a DFT calculation there is little theoretical justification to 
         calculate <S**2> as in Hartree-Fock theory. We will do it anyways
         but you should keep in mind that the values have only limited relevance

Expectation value of <S**2>     :     0.763911
Ideal value S*(S+1) for S=0.5   :     0.750000
Deviation                       :     0.013911

             **** THE GBW FILE WAS UPDATED (AgO.gbw) ****
             **** DENSITY AgO.scfp WAS UPDATED ****
----------------
ORBITAL ENERGIES
----------------
                 SPIN UP ORBITALS
  NO   OCC          E(Eh)            E(eV) 
   0   1.0000    -900.646431    -24507.8353 
   1   1.0000    -129.971917     -3536.7157 
   2   1.0000    -121.004511     -3292.7001 
   3   1.0000    -121.003645     -3292.6766 
   4   1.0000    -121.003137     -3292.6627 
   5   1.0000     -23.758615      -646.5048 
   6   1.0000     -20.121637      -547.5376 
   7   1.0000     -20.118914      -547.4635 
   8   1.0000     -20.116252      -547.3910 
   9   1.0000     -18.753634      -510.3123 
  10   1.0000     -13.413083      -364.9885 
  11   1.0000     -13.412885      -364.9832 
  12   1.0000     -13.411511      -364.9458 
  13   1.0000     -13.409253      -364.8843 
  14   1.0000     -13.408991      -364.8772 
  15   1.0000      -3.264299       -88.8261 
  16   1.0000      -2.125047       -57.8255 
  17   1.0000      -2.122018       -57.7430 
  18   1.0000      -2.116520       -57.5934 
  19   1.0000      -0.808732       -22.0067 
  20   1.0000      -0.357702        -9.7336 
  21   1.0000      -0.351315        -9.5598 
  22   1.0000      -0.334814        -9.1108 
  23   1.0000      -0.320149        -8.7117 
  24   1.0000      -0.320147        -8.7116 
  25   1.0000      -0.266285        -7.2460 
  26   1.0000      -0.225605        -6.1390 
  27   1.0000      -0.212351        -5.7784 
  28   0.0000      -0.129555        -3.5254 
  29   0.0000      -0.017127        -0.4660 
  30   0.0000      -0.012103        -0.3293 
  31   0.0000       0.039254         1.0682 
  32   0.0000       0.117617         3.2005 
  33   0.0000       0.117635         3.2010 
  34   0.0000       0.127953         3.4818 
  35   0.0000       0.131057         3.5662 
  36   0.0000       0.132876         3.6157 
  37   0.0000       0.145602         3.9620 
  38   0.0000       0.216765         5.8985 
  39   0.0000       0.220292         5.9944 
  40   0.0000       0.299489         8.1495 
  41   0.0000       0.326509         8.8848 
  42   0.0000       0.361944         9.8490 
  43   0.0000       0.376979        10.2581 
  44   0.0000       0.562932        15.3182 
  45   0.0000       0.562964        15.3190 
  46   0.0000       0.563555        15.3351 
  47   0.0000       0.571163        15.5421 
  48   0.0000       0.647567        17.6212 
  49   0.0000       0.772026        21.0079 
  50   0.0000       0.851641        23.1743 
  51   0.0000       0.997877        27.1536 
  52   0.0000       0.998125        27.1604 
  53   0.0000       1.018338        27.7104 
  54   0.0000       1.034228        28.1428 
  55   0.0000       1.034464        28.1492 
  56   0.0000       1.095918        29.8214 
  57   0.0000       1.106356        30.1055 
  58   0.0000       1.308655        35.6103 
  59   0.0000       1.362188        37.0670 
  60   0.0000       1.398693        38.0604 
  61   0.0000       1.440387        39.1949 
  62   0.0000       1.440388        39.1949 
  63   0.0000       1.453027        39.5389 
  64   0.0000       1.453066        39.5399 
  65   0.0000       1.479429        40.2573 
  66   0.0000       1.666867        45.3577 
  67   0.0000       1.683559        45.8120 
  68   0.0000       1.953793        53.1654 
  69   0.0000       2.164552        58.9005 
  70   0.0000       2.171968        59.1023 
  71   0.0000       2.207913        60.0804 
  72   0.0000       2.207927        60.0808 
  73   0.0000       2.445155        66.5360 
  74   0.0000       3.032324        82.5137 
  75   0.0000       3.032325        82.5138 
  76   0.0000       3.038910        82.6929 
  77   0.0000       3.039165        82.6999 
  78   0.0000       3.079952        83.8097 
  79   0.0000       3.177819        86.4729 
  80   0.0000       3.210170        87.3532 
  81   0.0000       3.272889        89.0598 
  82   0.0000       3.584744        97.5458 
  83   0.0000       3.641824        99.0991 
  84   0.0000       3.646663        99.2307 
  85   0.0000       3.777071       102.7793 
  86   0.0000       3.823807       104.0511 
  87   0.0000       4.207255       114.4852 
  88   0.0000       4.476220       121.8041 
  89   0.0000       4.481555       121.9493 
  90   0.0000       4.485580       122.0588 
  91   0.0000       4.485581       122.0589 
  92   0.0000       4.512384       122.7882 
  93   0.0000       4.512404       122.7888 
  94   0.0000       4.572266       124.4177 
  95   0.0000       4.687245       127.5464 
  96   0.0000       4.696936       127.8101 
  97   0.0000       4.884578       132.9161 
  98   0.0000       4.888050       133.0106 
  99   0.0000       4.938387       134.3803 
 100   0.0000       5.113563       139.1471 
 101   0.0000       5.113564       139.1471 
 102   0.0000       5.117218       139.2466 
 103   0.0000       5.117218       139.2466 
 104   0.0000       5.121801       139.3713 
 105   0.0000       5.121822       139.3719 
 106   0.0000       5.215419       141.9188 
 107   0.0000       5.275297       143.5481 
 108   0.0000       5.286270       143.8467 
 109   0.0000       5.816786       158.2828 
 110   0.0000       8.704805       236.8698 
 111   0.0000       8.711523       237.0526 
 112   0.0000       8.716240       237.1809 
 113   0.0000       8.720684       237.3019 
 114   0.0000       8.736937       237.7441 
 115   0.0000       8.741639       237.8721 
 116   0.0000       8.742903       237.9065 
 117   0.0000       8.772061       238.6999 
 118   0.0000       8.830886       240.3006 
 119   0.0000       9.234464       251.2825 
 120   0.0000       9.234466       251.2826 
 121   0.0000       9.296029       252.9578 
 122   0.0000       9.304865       253.1983 
 123   0.0000       9.659164       262.8392 
 124   0.0000      10.739812       292.2451 
 125   0.0000      10.740390       292.2609 
 126   0.0000      10.763987       292.9030 
 127   0.0000      10.765766       292.9514 
 128   0.0000      10.894650       296.4585 
 129   0.0000      10.949624       297.9544 
 130   0.0000      11.317938       307.9767 
 131   0.0000      11.722486       318.9851 
 132   0.0000      11.725206       319.0591 
 133   0.0000      11.844812       322.3137 
 134   0.0000      11.902769       323.8908 
 135   0.0000      12.111429       329.5687 
 136   0.0000      12.279830       334.1512 
 137   0.0000      12.532553       341.0281 
 138   0.0000      20.597809       560.4949 
 139   0.0000      20.601829       560.6043 
 140   0.0000      20.753224       564.7239 
 141   0.0000      44.865091      1220.8412 
 142   0.0000      48.054026      1307.6165 
 143   0.0000      96.667561      2630.4581 
 144   0.0000      96.669928      2630.5225 
 145   0.0000      96.783492      2633.6127 
 146   0.0000     169.950411      4624.5858 
 147   0.0000     183.583353      4995.5570 
 148   0.0000     458.566734     12478.2352 
 149   0.0000     458.567914     12478.2673 
 150   0.0000     458.655850     12480.6602 
 151   0.0000     624.350408     16989.4383 
 152   0.0000     870.683270     23692.4963 
 153   0.0000    1924.956999     52380.7429 
 154   0.0000    5477.823359    149059.1516 
 155   0.0000   23352.565026    635455.6003 

                 SPIN DOWN ORBITALS
  NO   OCC          E(Eh)            E(eV) 
   0   1.0000    -900.646473    -24507.8365 
   1   1.0000    -129.971205     -3536.6963 
   2   1.0000    -121.003857     -3292.6823 
   3   1.0000    -121.002943     -3292.6575 
   4   1.0000    -121.002918     -3292.6568 
   5   1.0000     -23.758294      -646.4961 
   6   1.0000     -20.121131      -547.5238 
   7   1.0000     -20.118781      -547.4599 
   8   1.0000     -20.115720      -547.3766 
   9   1.0000     -18.730474      -509.6821 
  10   1.0000     -13.412691      -364.9779 
  11   1.0000     -13.412464      -364.9717 
  12   1.0000     -13.410091      -364.9071 
  13   1.0000     -13.408751      -364.8707 
  14   1.0000     -13.408619      -364.8671 
  15   1.0000      -3.261648       -88.7539 
  16   1.0000      -2.121577       -57.7310 
  17   1.0000      -2.118774       -57.6548 
  18   1.0000      -2.115549       -57.5670 
  19   1.0000      -0.748840       -20.3770 
  20   1.0000      -0.347627        -9.4594 
  21   1.0000      -0.332627        -9.0512 
  22   1.0000      -0.332417        -9.0455 
  23   1.0000      -0.319470        -8.6932 
  24   1.0000      -0.319421        -8.6919 
  25   1.0000      -0.211046        -5.7428 
  26   1.0000      -0.192320        -5.2333 
  27   0.0000      -0.166063        -4.5188 
  28   0.0000      -0.125728        -3.4212 
  29   0.0000      -0.014204        -0.3865 
  30   0.0000      -0.013285        -0.3615 
  31   0.0000       0.041646         1.1332 
  32   0.0000       0.115548         3.1442 
  33   0.0000       0.115772         3.1503 
  34   0.0000       0.128764         3.5039 
  35   0.0000       0.131424         3.5762 
  36   0.0000       0.133553         3.6342 
  37   0.0000       0.149772         4.0755 
  38   0.0000       0.215865         5.8740 
  39   0.0000       0.216732         5.8976 
  40   0.0000       0.302881         8.2418 
  41   0.0000       0.330712         8.9991 
  42   0.0000       0.381196        10.3729 
  43   0.0000       0.389622        10.6022 
  44   0.0000       0.560430        15.2501 
  45   0.0000       0.560577        15.2541 
  46   0.0000       0.569082        15.4855 
  47   0.0000       0.569256        15.4902 
  48   0.0000       0.648412        17.6442 
  49   0.0000       0.790664        21.5151 
  50   0.0000       0.855896        23.2901 
  51   0.0000       1.032865        28.1057 
  52   0.0000       1.034221        28.1426 
  53   0.0000       1.034657        28.1545 
  54   0.0000       1.036015        28.1914 
  55   0.0000       1.042168        28.3588 
  56   0.0000       1.106413        30.1070 
  57   0.0000       1.106487        30.1090 
  58   0.0000       1.325035        36.0560 
  59   0.0000       1.410756        38.3886 
  60   0.0000       1.429617        38.9018 
  61   0.0000       1.439855        39.1805 
  62   0.0000       1.439861        39.1806 
  63   0.0000       1.456290        39.6277 
  64   0.0000       1.456672        39.6381 
  65   0.0000       1.487451        40.4756 
  66   0.0000       1.687513        45.9196 
  67   0.0000       1.691646        46.0320 
  68   0.0000       1.960625        53.3513 
  69   0.0000       2.170153        59.0529 
  70   0.0000       2.171593        59.0920 
  71   0.0000       2.207045        60.0567 
  72   0.0000       2.207068        60.0574 
  73   0.0000       2.459950        66.9386 
  74   0.0000       3.074507        83.6616 
  75   0.0000       3.079455        83.7962 
  76   0.0000       3.089288        84.0638 
  77   0.0000       3.091214        84.1162 
  78   0.0000       3.119284        84.8800 
  79   0.0000       3.217081        87.5412 
  80   0.0000       3.223959        87.7284 
  81   0.0000       3.281445        89.2927 
  82   0.0000       3.615168        98.3737 
  83   0.0000       3.713771       101.0568 
  84   0.0000       3.728798       101.4658 
  85   0.0000       3.837079       104.4122 
  86   0.0000       3.848932       104.7348 
  87   0.0000       4.231581       115.1472 
  88   0.0000       4.478353       121.8622 
  89   0.0000       4.481195       121.9395 
  90   0.0000       4.486330       122.0792 
  91   0.0000       4.486330       122.0793 
  92   0.0000       4.515844       122.8824 
  93   0.0000       4.516027       122.8873 
  94   0.0000       4.576799       124.5410 
  95   0.0000       4.698772       127.8601 
  96   0.0000       4.699006       127.8665 
  97   0.0000       4.891452       133.1032 
  98   0.0000       4.957774       134.9079 
  99   0.0000       4.984870       135.6452 
 100   0.0000       5.116485       139.2266 
 101   0.0000       5.116486       139.2267 
 102   0.0000       5.118025       139.2686 
 103   0.0000       5.118026       139.2686 
 104   0.0000       5.125007       139.4585 
 105   0.0000       5.125068       139.4602 
 106   0.0000       5.242721       142.6617 
 107   0.0000       5.289179       143.9259 
 108   0.0000       5.290148       143.9522 
 109   0.0000       5.827491       158.5741 
 110   0.0000       8.775557       238.7950 
 111   0.0000       8.776012       238.8074 
 112   0.0000       8.780413       238.9272 
 113   0.0000       8.781167       238.9477 
 114   0.0000       8.791416       239.2266 
 115   0.0000       8.799652       239.4507 
 116   0.0000       8.813818       239.8362 
 117   0.0000       8.815412       239.8796 
 118   0.0000       8.861034       241.1210 
 119   0.0000       9.235496       251.3106 
 120   0.0000       9.235537       251.3117 
 121   0.0000       9.306509       253.2430 
 122   0.0000       9.306821       253.2515 
 123   0.0000       9.667874       263.0762 
 124   0.0000      10.834369       294.8182 
 125   0.0000      10.844197       295.0856 
 126   0.0000      10.846586       295.1506 
 127   0.0000      10.850953       295.2695 
 128   0.0000      10.966187       298.4051 
 129   0.0000      10.992747       299.1278 
 130   0.0000      11.363714       309.2224 
 131   0.0000      11.831313       321.9464 
 132   0.0000      11.848728       322.4203 
 133   0.0000      11.923336       324.4505 
 134   0.0000      11.960141       325.4520 
 135   0.0000      12.127756       330.0130 
 136   0.0000      12.329184       335.4942 
 137   0.0000      12.592251       342.6526 
 138   0.0000      20.599199       560.5327 
 139   0.0000      20.602117       560.6121 
 140   0.0000      20.754753       564.7655 
 141   0.0000      44.914963      1222.1983 
 142   0.0000      48.055020      1307.6436 
 143   0.0000      96.668550      2630.4850 
 144   0.0000      96.670242      2630.5310 
 145   0.0000      96.784559      2633.6417 
 146   0.0000     169.967931      4625.0625 
 147   0.0000     183.584127      4995.5781 
 148   0.0000     458.567234     12478.2488 
 149   0.0000     458.568057     12478.2712 
 150   0.0000     458.656389     12480.6748 
 151   0.0000     624.350876     16989.4511 
 152   0.0000     870.687575     23692.6134 
 153   0.0000    1924.957158     52380.7473 
 154   0.0000    5477.823348    149059.1513 
 155   0.0000   23352.564875    635455.5962 

                    ********************************
                    * MULLIKEN POPULATION ANALYSIS *
                    ********************************

--------------------------------------------
MULLIKEN ATOMIC CHARGES AND SPIN POPULATIONS
--------------------------------------------
   0 Ag:    0.546313   -0.012002
   1 O :   -0.546313    1.012002
Sum of atomic charges         :   -0.0000000
Sum of atomic spin populations:    1.0000000

-----------------------------------------------------
MULLIKEN REDUCED ORBITAL CHARGES AND SPIN POPULATIONS
-----------------------------------------------------
CHARGE
  0 Ags       :     8.464682  s :     8.464682
      pz      :     6.029306  p :    18.129720
      px      :     6.081354
      py      :     6.019059
      dz2     :     3.907581  d :    19.852137
      dxz     :     4.001700
      dyz     :     3.943518
      dx2y2   :     3.999669
      dxy     :     3.999669
      f0      :     0.003368  f :     0.007021
      f+1     :     0.002442
      f-1     :     0.001030
      f+2     :     0.000090
      f-2     :     0.000089
      f+3     :     0.000001
      f-3     :     0.000001
      g0      :     0.000068  g :     0.000127
      g+1     :     0.000037
      g-1     :     0.000021
      g+2     :     0.000001
      g-2     :     0.000000
      g+3     :     0.000000
      g-3     :     0.000000
      g+4     :     0.000000
      g-4     :     0.000000
  1 O s       :     3.979629  s :     3.979629
      pz      :     1.608385  p :     4.550078
      px      :     1.909632
      py      :     1.032061
      dz2     :     0.005865  d :     0.014545
      dxz     :     0.003823
      dyz     :     0.004167
      dx2y2   :     0.000502
      dxy     :     0.000188
      f0      :     0.000747  f :     0.002023
      f+1     :     0.000461
      f-1     :     0.000566
      f+2     :     0.000085
      f-2     :     0.000052
      f+3     :     0.000057
      f-3     :     0.000054
      g0      :     0.000018  g :     0.000038
      g+1     :     0.000008
      g-1     :     0.000009
      g+2     :     0.000002
      g-2     :     0.000002
      g+3     :     0.000000
      g-3     :     0.000000
      g+4     :     0.000001
      g-4     :     0.000000

SPIN
  0 Ags       :    -0.083899  s :    -0.083899
      pz      :    -0.002263  p :     0.004993
      px      :    -0.011960
      py      :     0.019215
      dz2     :     0.009750  d :     0.065687
      dxz     :    -0.000398
      dyz     :     0.056401
      dx2y2   :    -0.000037
      dxy     :    -0.000030
      f0      :     0.000143  f :     0.001201
      f+1     :    -0.000050
      f-1     :     0.001099
      f+2     :     0.000004
      f-2     :     0.000004
      f+3     :     0.000000
      f-3     :     0.000000
      g0      :     0.000001  g :     0.000016
      g+1     :    -0.000000
      g-1     :     0.000014
      g+2     :     0.000000
      g-2     :     0.000000
      g+3     :     0.000000
      g-3     :     0.000000
      g+4     :     0.000000
      g-4     :     0.000000
  1 O s       :     0.004854  s :     0.004854
      pz      :     0.071296  p :     1.007173
      px      :     0.012914
      py      :     0.922964
      dz2     :    -0.000101  d :     0.000023
      dxz     :    -0.000052
      dyz     :    -0.000110
      dx2y2   :     0.000263
      dxy     :     0.000023
      f0      :    -0.000045  f :    -0.000042
      f+1     :    -0.000021
      f-1     :    -0.000118
      f+2     :     0.000034
      f-2     :     0.000003
      f+3     :     0.000052
      f-3     :     0.000053
      g0      :    -0.000002  g :    -0.000006
      g+1     :    -0.000000
      g-1     :    -0.000003
      g+2     :    -0.000000
      g-2     :    -0.000000
      g+3     :     0.000000
      g-3     :     0.000000
      g+4     :    -0.000001
      g-4     :    -0.000000


                     *******************************
                     * LOEWDIN POPULATION ANALYSIS *
                     *******************************

-------------------------------------------
LOEWDIN ATOMIC CHARGES AND SPIN POPULATIONS
-------------------------------------------
   0 Ag:    0.301209    0.019639
   1 O :   -0.301209    0.980361

----------------------------------------------------
LOEWDIN REDUCED ORBITAL CHARGES AND SPIN POPULATIONS
----------------------------------------------------
CHARGE
  0 Ags       :     8.484934  s :     8.484934
      pz      :     6.129271  p :    18.252924
      px      :     6.097700
      py      :     6.025953
      dz2     :     3.983060  d :    19.945153
      dxz     :     4.021137
      dyz     :     3.942796
      dx2y2   :     3.999079
      dxy     :     3.999081
      f0      :     0.009172  f :     0.015481
      f+1     :     0.004183
      f-1     :     0.001933
      f+2     :     0.000097
      f-2     :     0.000095
      f+3     :     0.000001
      f-3     :     0.000001
      g0      :     0.000180  g :     0.000298
      g+1     :     0.000077
      g-1     :     0.000038
      g+2     :     0.000001
      g-2     :     0.000000
      g+3     :     0.000000
      g-3     :     0.000000
      g+4     :     0.000000
      g-4     :     0.000000
  1 O s       :     3.741544  s :     3.741544
      pz      :     1.621557  p :     4.497903
      px      :     1.861627
      py      :     1.014720
      dz2     :     0.024541  d :     0.050808
      dxz     :     0.012260
      dyz     :     0.012476
      dx2y2   :     0.000923
      dxy     :     0.000608
      f0      :     0.005261  f :     0.010690
      f+1     :     0.002413
      f-1     :     0.002454
      f+2     :     0.000243
      f-2     :     0.000209
      f+3     :     0.000057
      f-3     :     0.000054
      g0      :     0.000129  g :     0.000264
      g+1     :     0.000060
      g-1     :     0.000060
      g+2     :     0.000007
      g-2     :     0.000007
      g+3     :     0.000000
      g-3     :     0.000000
      g+4     :     0.000001
      g-4     :     0.000000

SPIN
  0 Ags       :    -0.077417  s :    -0.077417
      pz      :    -0.000884  p :     0.013960
      px      :    -0.012002
      py      :     0.026846
      dz2     :     0.008687  d :     0.080735
      dxz     :    -0.000721
      dyz     :     0.072806
      dx2y2   :    -0.000021
      dxy     :    -0.000016
      f0      :     0.000434  f :     0.002316
      f+1     :    -0.000041
      f-1     :     0.001914
      f+2     :     0.000005
      f-2     :     0.000004
      f+3     :     0.000000
      f-3     :     0.000000
      g0      :     0.000007  g :     0.000045
      g+1     :    -0.000000
      g-1     :     0.000037
      g+2     :     0.000000
      g-2     :     0.000000
      g+3     :     0.000000
      g-3     :     0.000000
      g+4     :     0.000000
      g-4     :     0.000000
  1 O s       :     0.007408  s :     0.007408
      pz      :     0.061216  p :     0.972192
      px      :     0.013254
      py      :     0.897721
      dz2     :     0.000268  d :     0.000637
      dxz     :    -0.000042
      dyz     :     0.000149
      dx2y2   :     0.000250
      dxy     :     0.000011
      f0      :     0.000015  f :     0.000127
      f+1     :    -0.000016
      f-1     :    -0.000010
      f+2     :     0.000032
      f-2     :     0.000001
      f+3     :     0.000052
      f-3     :     0.000053
      g0      :    -0.000001  g :    -0.000003
      g+1     :    -0.000000
      g-1     :    -0.000001
      g+2     :    -0.000000
      g-2     :    -0.000000
      g+3     :     0.000000
      g-3     :     0.000000
      g+4     :    -0.000001
      g-4     :    -0.000000


                      *****************************
                      * MAYER POPULATION ANALYSIS *
                      *****************************

  NA   - Mulliken gross atomic population
  ZA   - Total nuclear charge
  QA   - Mulliken gross atomic charge
  VA   - Mayer's total valence
  BVA  - Mayer's bonded valence
  FA   - Mayer's free valence

  ATOM       NA         ZA         QA         VA         BVA        FA
  0 Ag    46.4537    47.0000     0.5463     1.0194     1.0012     0.0182
  1 O      8.5463     8.0000    -0.5463     1.8645     1.0012     0.8632

  Mayer bond orders larger than 0.100000
B(  0-Ag,  1-O ) :   1.0012 

-------
TIMINGS
-------

Total SCF time: 0 days 0 hours 0 min 37 sec 

Total time                  ....      37.082 sec
Sum of individual times     ....      36.561 sec  ( 98.6%)

Fock matrix formation       ....      32.197 sec  ( 86.8%)
  XC integration            ....       3.819 sec  ( 11.9% of F)
    Basis function eval.    ....       0.468 sec  ( 12.2% of XC)
    Density eval.           ....       0.640 sec  ( 16.8% of XC)
    XC-Functional eval.     ....       0.163 sec  (  4.3% of XC)
    XC-Potential eval.      ....       1.235 sec  ( 32.3% of XC)
Diagonalization             ....       0.200 sec  (  0.5%)
Density matrix formation    ....       0.043 sec  (  0.1%)
Population analysis         ....       0.008 sec  (  0.0%)
Initial guess               ....       0.027 sec  (  0.1%)
Orbital Transformation      ....       0.270 sec  (  0.7%)
Orbital Orthonormalization  ....       0.000 sec  (  0.0%)
DIIS solution               ....       0.125 sec  (  0.3%)
Grid generation             ....       3.688 sec  (  9.9%)

Maximum memory used throughout the entire SCF-calculation: 235.4 MB

-------------------------   --------------------
FINAL SINGLE POINT ENERGY     -5271.925481918376
-------------------------   --------------------


                            ***************************************
                            *     ORCA property calculations      *
                            ***************************************

                                    ---------------------
                                    Active property flags
                                    ---------------------
   (+) Dipole Moment


------------------------------------------------------------------------------
                       ORCA ELECTRIC PROPERTIES CALCULATION
------------------------------------------------------------------------------

Dipole Moment Calculation                       ... on
Quadrupole Moment Calculation                   ... off
Polarizability Calculation                      ... off
GBWName                                         ... AgO.gbw
Electron density                                ... AgO.scfp
The origin for moment calculation is the CENTER OF MASS  = ( 0.000000,  0.000000  0.471315)

-------------
DIPOLE MOMENT
-------------
                                X             Y             Z
Electronic contribution:      0.00000       0.00000      -5.09682
Nuclear contribution   :      0.00000       0.00000       3.27016
                        -----------------------------------------
Total Dipole Moment    :      0.00000       0.00000      -1.82666
                        -----------------------------------------
Magnitude (a.u.)       :      1.82666
Magnitude (Debye)      :      4.64299



--------------------
Rotational spectrum 
--------------------
 
Rotational constants in cm-1:     0.000000     0.324490     0.324490 
Rotational constants in MHz :     0.000000  9727.968839  9727.968839 

 Dipole components along the rotational axes: 
x,y,z [a.u.] :    -1.826657     0.000000     0.000000 
x,y,z [Debye]:    -4.642992     0.000000     0.000000 

 

Timings for individual modules:

Sum of individual times         ...       37.788 sec (=   0.630 min)
GTO integral calculation        ...        0.446 sec (=   0.007 min)   1.2 %
SCF iterations                  ...       37.342 sec (=   0.622 min)  98.8 %
                             ****ORCA TERMINATED NORMALLY****
TOTAL RUN TIME: 0 days 0 hours 0 minutes 38 seconds 137 msec
