
                                 *****************
                                 * O   R   C   A *
                                 *****************

                                            #,                                       
                                            ###                                      
                                            ####                                     
                                            #####                                    
                                            ######                                   
                                           ########,                                 
                                     ,,################,,,,,                         
                               ,,#################################,,                 
                          ,,##########################################,,             
                       ,#########################################, ''#####,          
                    ,#############################################,,   '####,        
                  ,##################################################,,,,####,       
                ,###########''''           ''''###############################       
              ,#####''   ,,,,##########,,,,          '''####'''          '####       
            ,##' ,,,,###########################,,,                        '##       
           ' ,,###''''                  '''############,,,                           
         ,,##''                                '''############,,,,        ,,,,,,###''
      ,#''                                            '''#######################'''  
     '                                                          ''''####''''         
             ,#######,   #######,   ,#######,      ##                                
            ,#'     '#,  ##    ##  ,#'     '#,    #''#        ######   ,####,        
            ##       ##  ##   ,#'  ##            #'  '#       #        #'  '#        
            ##       ##  #######   ##           ,######,      #####,   #    #        
            '#,     ,#'  ##    ##  '#,     ,#' ,#      #,         ##   #,  ,#        
             '#######'   ##     ##  '#######'  #'      '#     #####' # '####'        



                  #######################################################
                  #                        -***-                        #
                  #          Department of theory and spectroscopy      #
                  #    Directorship and core code : Frank Neese         #
                  #        Max Planck Institute fuer Kohlenforschung    #
                  #                Kaiser Wilhelm Platz 1               #
                  #                 D-45470 Muelheim/Ruhr               #
                  #                      Germany                        #
                  #                                                     #
                  #                  All rights reserved                #
                  #                        -***-                        #
                  #######################################################


                         Program Version 5.0.3 -  RELEASE  -


 With contributions from (in alphabetic order):
   Daniel Aravena         : Magnetic Suceptibility
   Michael Atanasov       : Ab Initio Ligand Field Theory (pilot matlab implementation)
   Alexander A. Auer      : GIAO ZORA, VPT2 properties, NMR spectrum
   Ute Becker             : Parallelization
   Giovanni Bistoni       : ED, misc. LED, open-shell LED, HFLD
   Martin Brehm           : Molecular dynamics
   Dmytro Bykov           : SCF Hessian
   Vijay G. Chilkuri      : MRCI spin determinant printing, contributions to CSF-ICE
   Dipayan Datta          : RHF DLPNO-CCSD density
   Achintya Kumar Dutta   : EOM-CC, STEOM-CC
   Dmitry Ganyushin       : Spin-Orbit,Spin-Spin,Magnetic field MRCI
   Miquel Garcia          : C-PCM and meta-GGA Hessian, CC/C-PCM, Gaussian charge scheme
   Yang Guo               : DLPNO-NEVPT2, F12-NEVPT2, CIM, IAO-localization
   Andreas Hansen         : Spin unrestricted coupled pair/coupled cluster methods
   Benjamin Helmich-Paris : MC-RPA, TRAH-SCF, COSX integrals
   Lee Huntington         : MR-EOM, pCC
   Robert Izsak           : Overlap fitted RIJCOSX, COSX-SCS-MP3, EOM
   Marcus Kettner         : VPT2
   Christian Kollmar      : KDIIS, OOCD, Brueckner-CCSD(T), CCSD density, CASPT2, CASPT2-K
   Simone Kossmann        : Meta GGA functionals, TD-DFT gradient, OOMP2, MP2 Hessian
   Martin Krupicka        : Initial AUTO-CI
   Lucas Lang             : DCDCAS
   Marvin Lechner         : AUTO-CI (C++ implementation), FIC-MRCC
   Dagmar Lenk            : GEPOL surface, SMD
   Dimitrios Liakos       : Extrapolation schemes; Compound Job, initial MDCI parallelization
   Dimitrios Manganas     : Further ROCIS development; embedding schemes
   Dimitrios Pantazis     : SARC Basis sets
   Anastasios Papadopoulos: AUTO-CI, single reference methods and gradients
   Taras Petrenko         : DFT Hessian,TD-DFT gradient, ASA, ECA, R-Raman, ABS, FL, XAS/XES, NRVS
   Peter Pinski           : DLPNO-MP2, DLPNO-MP2 Gradient
   Christoph Reimann      : Effective Core Potentials
   Marius Retegan         : Local ZFS, SOC
   Christoph Riplinger    : Optimizer, TS searches, QM/MM, DLPNO-CCSD(T), (RO)-DLPNO pert. Triples
   Tobias Risthaus        : Range-separated hybrids, TD-DFT gradient, RPA, STAB
   Michael Roemelt        : Original ROCIS implementation
   Masaaki Saitow         : Open-shell DLPNO-CCSD energy and density
   Barbara Sandhoefer     : DKH picture change effects
   Avijit Sen             : IP-ROCIS
   Kantharuban Sivalingam : CASSCF convergence, NEVPT2, FIC-MRCI
   Bernardo de Souza      : ESD, SOC TD-DFT
   Georgi Stoychev        : AutoAux, RI-MP2 NMR, DLPNO-MP2 response
   Willem Van den Heuvel  : Paramagnetic NMR
   Boris Wezisla          : Elementary symmetry handling
   Frank Wennmohs         : Technical directorship


 We gratefully acknowledge several colleagues who have allowed us to
 interface, adapt or use parts of their codes:
   Stefan Grimme, W. Hujo, H. Kruse, P. Pracht,  : VdW corrections, initial TS optimization,
                  C. Bannwarth, S. Ehlert          DFT functionals, gCP, sTDA/sTD-DF
   Ed Valeev, F. Pavosevic, A. Kumar             : LibInt (2-el integral package), F12 methods
   Garnet Chan, S. Sharma, J. Yang, R. Olivares  : DMRG
   Ulf Ekstrom                                   : XCFun DFT Library
   Mihaly Kallay                                 : mrcc  (arbitrary order and MRCC methods)
   Jiri Pittner, Ondrej Demel                    : Mk-CCSD
   Frank Weinhold                                : gennbo (NPA and NBO analysis)
   Christopher J. Cramer and Donald G. Truhlar   : smd solvation model
   Lars Goerigk                                  : TD-DFT with DH, B97 family of functionals
   V. Asgeirsson, H. Jonsson                     : NEB implementation
   FAccTs GmbH                                   : IRC, NEB, NEB-TS, DLPNO-Multilevel, CI-OPT
                                                   MM, QMMM, 2- and 3-layer-ONIOM, Crystal-QMMM,
                                                   LR-CPCM, SF, NACMEs, symmetry and pop. for TD-DFT,
                                                   nearIR, NL-DFT gradient (VV10), updates on ESD,
                                                   ML-optimized integration grids
   S Lehtola, MJT Oliveira, MAL Marques          : LibXC Library
   Liviu Ungur et al                             : ANISO software


 Your calculation uses the libint2 library for the computation of 2-el integrals
 For citations please refer to: http://libint.valeyev.net

 Your ORCA version has been built with support for libXC version: 5.1.0
 For citations please refer to: https://tddft.org/programs/libxc/

 This ORCA versions uses:
   CBLAS   interface :  Fast vector & matrix operations
   LAPACKE interface :  Fast linear algebra routines
   SCALAPACK package :  Parallel linear algebra routines
   Shared memory     :  Shared parallel matrices
   BLAS/LAPACK       :  OpenBLAS 0.3.15  USE64BITINT DYNAMIC_ARCH NO_AFFINITY SkylakeX SINGLE_THREADED
        Core in use  :  SkylakeX
   Copyright (c) 2011-2014, The OpenBLAS Project


================================================================================

----- Orbital basis set information -----
Your calculation utilizes the basis: def2-SVP
   F. Weigend and R. Ahlrichs, Phys. Chem. Chem. Phys. 7, 3297 (2005).

The basis set includes element-specific modifications.

Your calculation utilizes the basis: SARC-ZORA-TZVPP 
   Rb-Xe:  J. D. Rolfes, F. Neese and D. A. Pantazis, J. Comput. Chem. 41, 1842 (2020).
   La-Lu:  D. A. Pantazis and F. Neese, J. Chem. Theory Comput. 5, 2229 (2009).
   Hf-Hg:  D. A. Pantazis, X. Y. Chen, C. R. Landis and F. Neese, J. Chem. Theory Comput. 4, 908 (2008).
   Tl-Rn:  D. A. Pantazis and F. Neese, Theor. Chem. Acc. 131, 1292 (2012).
   Ac-Lr:  D. A. Pantazis and F. Neese, J. Chem. Theory Comput. 7, 677 (2011).

Your calculation utilizes the basis: ZORA-def2-QZVPP 
   Exponents from def2-QZVPP [F. Weigend and R. Ahlrichs, Phys. Chem. Chem. Phys. 7, 3297 (2005)],
   recontracted for ZORA by D. A. Pantazis.

================================================================================
                                        WARNINGS
                       Please study these warnings very carefully!
================================================================================


INFO   : the flag for use of the SHARK integral package has been found!

================================================================================
                                       INPUT FILE
================================================================================
NAME = SrH.inp
|  1> !uks pbe nori defgrid3 verytightscf
|  2> 
|  3> %pal nprocs 16 end
|  4> 
|  5> %scf maxiter 400 end
|  6> 
|  7> %basis
|  8>   newgto Sr "sarc-zora-tzvpp" end
|  9>   delecp Sr
| 10>   newgto H "zora-def2-qzvpp" end
| 11>   delecp H
| 12> end
| 13> 
| 14> *xyz 0 2
| 15> Sr 0.0000000000 0.0000000000 0.0000000000
| 16> H 0.0000000000 0.0000000000 2.1360000000
| 17> *
| 18> 
| 19>                          ****END OF INPUT****
================================================================================

                       ****************************
                       * Single Point Calculation *
                       ****************************

---------------------------------
CARTESIAN COORDINATES (ANGSTROEM)
---------------------------------
  Sr     0.000000    0.000000    0.000000
  H      0.000000    0.000000    2.136000

----------------------------
CARTESIAN COORDINATES (A.U.)
----------------------------
  NO LB      ZA    FRAG     MASS         X           Y           Z
   0 Sr   38.0000    0    87.620    0.000000    0.000000    0.000000
   1 H     1.0000    0     1.008    0.000000    0.000000    4.036455

--------------------------------
INTERNAL COORDINATES (ANGSTROEM)
--------------------------------
 Sr     0   0   0     0.000000000000     0.00000000     0.00000000
 H      1   0   0     2.136000000000     0.00000000     0.00000000

---------------------------
INTERNAL COORDINATES (A.U.)
---------------------------
 Sr     0   0   0     0.000000000000     0.00000000     0.00000000
 H      1   0   0     4.036455022056     0.00000000     0.00000000

---------------------
BASIS SET INFORMATION
---------------------
There are 2 groups of distinct atoms

 Group   1 Type Sr  : 22s15p9d1f contracted to 15s10p5d1f pattern {811111111111111/6111111111/51111/1}
 Group   2 Type H   : 7s3p2d1f contracted to 4s3p2d1f pattern {4111/111/11/1}

Atom   0Sr   basis set group =>   1
Atom   1H    basis set group =>   2


           ************************************************************
           *        Program running with 16 parallel MPI-processes    *
           *              working on a common directory               *
           ************************************************************
------------------------------------------------------------------------------
                           ORCA GTO INTEGRAL CALCULATION
------------------------------------------------------------------------------
------------------------------------------------------------------------------
                   ___                                                        
                  /   \      - P O W E R E D   B Y -                         
                 /     \                                                     
                 |  |  |   _    _      __       _____    __    __             
                 |  |  |  | |  | |    /  \     |  _  \  |  |  /  |          
                  \  \/   | |  | |   /    \    | | | |  |  | /  /          
                 / \  \   | |__| |  /  /\  \   | |_| |  |  |/  /          
                |  |  |   |  __  | /  /__\  \  |    /   |      \           
                |  |  |   | |  | | |   __   |  |    \   |  |\   \          
                \     /   | |  | | |  |  |  |  | |\  \  |  | \   \       
                 \___/    |_|  |_| |__|  |__|  |_| \__\ |__|  \__/        
                                                                              
                      - O R C A' S   B I G   F R I E N D -                    
                                      &                                       
                       - I N T E G R A L  F E E D E R -                       
                                                                              
 v1 FN, 2020, v2 2021                                                         
------------------------------------------------------------------------------


Reading SHARK input file SrH.SHARKINP.tmp ... ok
----------------------
SHARK INTEGRAL PACKAGE
----------------------

Number of atoms                             ...      2
Number of basis functions                   ...    107
Number of shells                            ...     41
Maximum angular momentum                    ...      3
Integral batch strategy                     ... SHARK/LIBINT Hybrid
RI-J (if used) integral strategy            ... SPLIT-RIJ (Revised 2003 algorithm where possible)
Printlevel                                  ...      1
Contraction scheme used                     ... SEGMENTED contraction
Coulomb Range Separation                    ... NOT USED
Exchange Range Separation                   ... NOT USED
Finite Nucleus Model                        ... NOT USED
Auxiliary Coulomb fitting basis             ... NOT available
Auxiliary J/K fitting basis                 ... NOT available
Auxiliary Correlation fitting basis         ... NOT available
Auxiliary 'external' fitting basis          ... NOT available
Integral threshold                          ...     1.000000e-12
Primitive cut-off                           ...     1.000000e-14
Primitive pair pre-selection threshold      ...     1.000000e-14

Calculating pre-screening integrals         ... done (  0.0 sec) Dimension = 41
Organizing shell pair data                  ... done (  0.0 sec)
Shell pair information
Total number of shell pairs                 ...       861
Shell pairs after pre-screening             ...       851
Total number of primitive shell pairs       ...      1889
Primitive shell pairs kept                  ...      1768
          la=0 lb=0:    188 shell pairs
          la=1 lb=0:    241 shell pairs
          la=1 lb=1:     89 shell pairs
          la=2 lb=0:    133 shell pairs
          la=2 lb=1:     91 shell pairs
          la=2 lb=2:     28 shell pairs
          la=3 lb=0:     38 shell pairs
          la=3 lb=1:     26 shell pairs
          la=3 lb=2:     14 shell pairs
          la=3 lb=3:      3 shell pairs

Calculating one electron integrals          ... done (  0.0 sec)
Calculating Nuclear repulsion               ... done (  0.0 sec) ENN=      9.414201271255 Eh

SHARK setup successfully completed in   0.2 seconds

Maximum memory used throughout the entire GTOINT-calculation: 16.7 MB


           ************************************************************
           *        Program running with 16 parallel MPI-processes    *
           *              working on a common directory               *
           ************************************************************
-------------------------------------------------------------------------------
                                 ORCA SCF
-------------------------------------------------------------------------------

------------
SCF SETTINGS
------------
Hamiltonian:
 Density Functional     Method          .... DFT(GTOs)
 Exchange Functional    Exchange        .... PBE
   PBE kappa parameter   XKappa         ....  0.804000
   PBE mue parameter    XMuePBE         ....  0.219520
 Correlation Functional Correlation     .... PBE
   PBE beta parameter  CBetaPBE         ....  0.066725
 LDA part of GGA corr.  LDAOpt          .... PW91-LDA
 Gradients option       PostSCFGGA      .... off
   Density functional embedding theory  .... OFF
   NL short-range parameter             ....  6.400000


General Settings:
 Integral files         IntName         .... SrH
 Hartree-Fock type      HFTyp           .... UHF
 Total Charge           Charge          ....    0
 Multiplicity           Mult            ....    2
 Number of Electrons    NEL             ....   39
 Basis Dimension        Dim             ....  107
 Nuclear Repulsion      ENuc            ....      9.4142012713 Eh

Convergence Acceleration:
 DIIS                   CNVDIIS         .... on
   Start iteration      DIISMaxIt       ....    12
   Startup error        DIISStart       ....  0.200000
   # of expansion vecs  DIISMaxEq       ....     5
   Bias factor          DIISBfac        ....   1.050
   Max. coefficient     DIISMaxC        ....  10.000
 Trust-Rad. Augm. Hess. CNVTRAH         .... auto
   Auto Start mean grad. ratio tolernc. ....  1.125000
   Auto Start start iteration           ....    20
   Auto Start num. interpolation iter.  ....    10
   Max. Number of Micro iterations      ....    16
   Max. Number of Macro iterations      .... Maxiter - #DIIS iter
   Number of Davidson start vectors     ....     2
   Converg. threshold I  (grad. norm)   ....   2.000e-06
   Converg. threshold II (energy diff.) ....   1.000e-09
   Grad. Scal. Fac. for Micro threshold ....   0.100
   Minimum threshold for Micro iter.    ....   0.010
   NR start threshold (gradient norm)   ....   0.001
   Initial trust radius                 ....   0.400
   Minimum AH scaling param. (alpha)    ....   1.000
   Maximum AH scaling param. (alpha)    .... 1000.000
   Orbital update algorithm             .... Taylor
   White noise on init. David. guess    .... on
   Maximum white noise                  ....   0.010
   Quad. conv. algorithm                .... NR
 SOSCF                  CNVSOSCF        .... off
 Level Shifting         CNVShift        .... on
   Level shift para.    LevelShift      ....    0.2500
   Turn off err/grad.   ShiftErr        ....    0.0010
 Zerner damping         CNVZerner       .... off
 Static damping         CNVDamp         .... on
   Fraction old density DampFac         ....    0.7000
   Max. Damping (<1)    DampMax         ....    0.9800
   Min. Damping (>=0)   DampMin         ....    0.0000
   Turn off err/grad.   DampErr         ....    0.1000
 Fernandez-Rico         CNVRico         .... off

SCF Procedure:
 Maximum # iterations   MaxIter         ....   400
 SCF integral mode      SCFMode         .... Direct
   Integral package                     .... SHARK and LIBINT hybrid scheme
 Reset frequency        DirectResetFreq ....    20
 Integral Threshold     Thresh          ....  1.000e-12 Eh
 Primitive CutOff       TCut            ....  1.000e-14 Eh

Convergence Tolerance:
 Convergence Check Mode ConvCheckMode   .... Total+1el-Energy
 Convergence forced     ConvForced      .... 0
 Energy Change          TolE            ....  1.000e-09 Eh
 1-El. energy change                    ....  1.000e-06 Eh
 DIIS Error             TolErr          ....  1.000e-08


Diagonalization of the overlap matrix:
Smallest eigenvalue                        ... 7.157e-04
Time for diagonalization                   ...    0.003 sec
Threshold for overlap eigenvalues          ... 1.000e-08
Number of eigenvalues below threshold      ... 0
Time for construction of square roots      ...    0.002 sec
Total time needed                          ...    0.005 sec

Time for model grid setup =    0.107 sec

------------------------------
INITIAL GUESS: MODEL POTENTIAL
------------------------------
Loading Hartree-Fock densities                     ... done
Calculating cut-offs                               ... done
Initializing the effective Hamiltonian             ... done
Setting up the integral package (SHARK)            ... done
Starting the Coulomb interaction                   ... done (   0.0 sec)
Reading the grid                                   ... done
Mapping shells                                     ... done
Starting the XC term evaluation                    ... done (   0.0 sec)
  promolecular density results
     # of electrons  =     39.000803252
     EX              =   -101.756942689
     EC              =     -1.871808849
     EX+EC           =   -103.628751538
Transforming the Hamiltonian                       ... done (   0.0 sec)
Diagonalizing the Hamiltonian                      ... done (   0.0 sec)
Back transforming the eigenvectors                 ... done (   0.0 sec)
Now organizing SCF variables                       ... done
                      ------------------
                      INITIAL GUESS DONE (   0.1 sec)
                      ------------------
-------------------
DFT GRID GENERATION
-------------------

General Integration Accuracy     IntAcc      ... 4.959
Radial Grid Type                 RadialGrid  ... OptM3 with GC (2021)
Angular Grid (max. ang.)         AngularGrid ... 6 (Lebedev-590)
Angular grid pruning method      GridPruning ... 4 (adaptive)
Weight generation scheme         WeightScheme... Becke
Basis function cutoff            BFCut       ... 1.0000e-12
Integration weight cutoff        WCut        ... 1.0000e-14
Angular grids for H and He will be reduced by one unit
Partially contracted basis set               ... off
Rotationally invariant grid construction     ... off

Total number of grid points                  ...    74954
Total number of batches                      ...     1172
Average number of points per batch           ...       63
Average number of grid points per atom       ...    37477
Time for grid setup =    2.033 sec

--------------
SCF ITERATIONS
--------------
ITER       Energy         Delta-E        Max-DP      RMS-DP      [F,P]     Damp
               ***  Starting incremental Fock matrix formation  ***
  0  -3132.6195866487   0.000000000000 0.02792916  0.00060470  0.0862820 0.7000
  1  -3132.6364423052  -0.016855656455 0.02763328  0.00063406  0.0539795 0.7000
                               ***Turning on DIIS***
  2  -3132.6460897949  -0.009647489702 0.06662731  0.00162950  0.0270569 0.0000
  3  -3132.6554684835  -0.009378688633 0.01624457  0.00036049  0.0267821 0.0000
  4  -3132.6599138281  -0.004445344638 0.01061724  0.00019892  0.0122706 0.0000
  5  -3132.6608062945  -0.000892466384 0.00584590  0.00011379  0.0053477 0.0000
  6  -3132.6610281832  -0.000221888637 0.00334696  0.00007011  0.0024474 0.0000
  7  -3132.6610953456  -0.000067162395 0.00287123  0.00004681  0.0010859 0.0000
  8  -3132.6611239454  -0.000028599828 0.01217936  0.00016828  0.0008564 0.0000
  9  -3132.6611717877  -0.000047842364 0.00142164  0.00002252  0.0002943 0.0000
 10  -3132.6611741515  -0.000002363709 0.00163972  0.00002377  0.0001475 0.0000
 11  -3132.6611750026  -0.000000851178 0.00046431  0.00000609  0.0000725 0.0000
 12  -3132.6611750804  -0.000000077781 0.00014147  0.00000200  0.0000109 0.0000
 13  -3132.6611750842  -0.000000003759 0.00001117  0.00000023  0.0000058 0.0000
 14  -3132.6611750845  -0.000000000314 0.00000698  0.00000010  0.0000020 0.0000
 15  -3132.6611750845   0.000000000026 0.00000155  0.00000004  0.0000012 0.0000
 16  -3132.6611750845  -0.000000000024 0.00000142  0.00000001  0.0000004 0.0000
 17  -3132.6611750845   0.000000000000 0.00000055  0.00000001  0.0000001 0.0000
                 **** Energy Check signals convergence ****

               *****************************************************
               *                     SUCCESS                       *
               *           SCF CONVERGED AFTER  18 CYCLES          *
               *****************************************************


----------------
TOTAL SCF ENERGY
----------------

Total Energy       :        -3132.66117508 Eh          -85244.04430 eV

Components:
Nuclear Repulsion  :            9.41420127 Eh             256.17344 eV
Electronic Energy  :        -3142.07537636 Eh          -85500.21774 eV
One Electron Energy:        -4357.59267245 Eh         -118576.12491 eV
Two Electron Energy:         1215.51729610 Eh           33075.90717 eV

Virial components:
Potential Energy   :        -6262.53109468 Eh         -170412.13467 eV
Kinetic Energy     :         3129.86991960 Eh           85168.09037 eV
Virial Ratio       :            2.00089181


DFT components:
N(Alpha)           :       19.999999960485 electrons
N(Beta)            :       18.999999964945 electrons
N(Total)           :       38.999999925430 electrons
E(X)               :     -101.797477483147 Eh       
E(C)               :       -1.875444558835 Eh       
E(XC)              :     -103.672922041982 Eh       
DFET-embed. en.    :        0.000000000000 Eh       

---------------
SCF CONVERGENCE
---------------

  Last Energy change         ...    3.1832e-12  Tolerance :   1.0000e-09
  Last MAX-Density change    ...    1.9536e-07  Tolerance :   1.0000e-08
  Last RMS-Density change    ...    2.9111e-09  Tolerance :   1.0000e-09
  Last DIIS Error            ...    1.6954e-08  Tolerance :   1.0000e-08

             **** THE GBW FILE WAS UPDATED (SrH.gbw) ****
             **** DENSITY SrH.scfp WAS UPDATED ****
             **** ENERGY FILE WAS UPDATED (SrH.en.tmp) ****
----------------------
UHF SPIN CONTAMINATION
----------------------

Warning: in a DFT calculation there is little theoretical justification to 
         calculate <S**2> as in Hartree-Fock theory. We will do it anyways
         but you should keep in mind that the values have only limited relevance

Expectation value of <S**2>     :     0.750592
Ideal value S*(S+1) for S=0.5   :     0.750000
Deviation                       :     0.000592

             **** THE GBW FILE WAS UPDATED (SrH.gbw) ****
             **** DENSITY SrH.scfp WAS UPDATED ****
----------------
ORBITAL ENERGIES
----------------
                 SPIN UP ORBITALS
  NO   OCC          E(Eh)            E(eV) 
   0   1.0000    -573.491376    -15605.4937 
   1   1.0000     -76.573921     -2083.6823 
   2   1.0000     -69.787807     -1899.0228 
   3   1.0000     -69.787807     -1899.0228 
   4   1.0000     -69.786785     -1898.9950 
   5   1.0000     -11.785533      -320.7007 
   6   1.0000      -9.292525      -252.8625 
   7   1.0000      -9.292525      -252.8625 
   8   1.0000      -9.290626      -252.8108 
   9   1.0000      -4.786350      -130.2432 
  10   1.0000      -4.786350      -130.2432 
  11   1.0000      -4.785121      -130.2098 
  12   1.0000      -4.785121      -130.2098 
  13   1.0000      -4.784428      -130.1909 
  14   1.0000      -1.430661       -38.9303 
  15   1.0000      -0.824419       -22.4336 
  16   1.0000      -0.824419       -22.4336 
  17   1.0000      -0.814059       -22.1517 
  18   1.0000      -0.183972        -5.0061 
  19   1.0000      -0.115940        -3.1549 
  20   0.0000      -0.057379        -1.5614 
  21   0.0000      -0.057379        -1.5614 
  22   0.0000      -0.049768        -1.3543 
  23   0.0000      -0.049768        -1.3543 
  24   0.0000      -0.049386        -1.3439 
  25   0.0000      -0.030174        -0.8211 
  26   0.0000      -0.030174        -0.8211 
  27   0.0000       0.063659         1.7323 
  28   0.0000       0.073751         2.0069 
  29   0.0000       0.124207         3.3798 
  30   0.0000       0.124207         3.3798 
  31   0.0000       0.143130         3.8948 
  32   0.0000       0.216555         5.8927 
  33   0.0000       0.216555         5.8928 
  34   0.0000       0.224810         6.1174 
  35   0.0000       0.224810         6.1174 
  36   0.0000       0.237001         6.4491 
  37   0.0000       0.291938         7.9440 
  38   0.0000       0.497047        13.5253 
  39   0.0000       0.497047        13.5253 
  40   0.0000       0.542627        14.7656 
  41   0.0000       0.657018        17.8784 
  42   0.0000       0.740689        20.1552 
  43   0.0000       0.740689        20.1552 
  44   0.0000       0.840747        22.8779 
  45   0.0000       1.061110        28.8743 
  46   0.0000       1.061110        28.8743 
  47   0.0000       1.071129        29.1469 
  48   0.0000       1.071129        29.1469 
  49   0.0000       1.093026        29.7427 
  50   0.0000       1.093026        29.7427 
  51   0.0000       1.100308        29.9409 
  52   0.0000       1.190393        32.3922 
  53   0.0000       1.190393        32.3922 
  54   0.0000       1.193507        32.4770 
  55   0.0000       1.193507        32.4770 
  56   0.0000       1.205723        32.8094 
  57   0.0000       1.417758        38.5792 
  58   0.0000       1.888358        51.3848 
  59   0.0000       1.888359        51.3849 
  60   0.0000       2.030814        55.2613 
  61   0.0000       2.030814        55.2613 
  62   0.0000       2.274923        61.9038 
  63   0.0000       2.274923        61.9038 
  64   0.0000       2.279692        62.0336 
  65   0.0000       2.354772        64.0766 
  66   0.0000       2.717899        73.9578 
  67   0.0000       3.292529        89.5943 
  68   0.0000       3.292529        89.5943 
  69   0.0000       3.347671        91.0948 
  70   0.0000       5.100906       138.8027 
  71   0.0000       5.100906       138.8027 
  72   0.0000       5.120270       139.3296 
  73   0.0000       5.120270       139.3296 
  74   0.0000       5.162111       140.4682 
  75   0.0000       5.291969       144.0018 
  76   0.0000       5.794956       157.6888 
  77   0.0000       5.794960       157.6889 
  78   0.0000       5.804916       157.9598 
  79   0.0000       5.804916       157.9598 
  80   0.0000       5.827559       158.5759 
  81   0.0000       5.827559       158.5759 
  82   0.0000       5.908312       160.7733 
  83   0.0000       7.518591       204.5913 
  84   0.0000       7.518591       204.5913 
  85   0.0000       7.669940       208.7097 
  86   0.0000       7.832696       213.1385 
  87   0.0000       7.832696       213.1385 
  88   0.0000       7.918398       215.4706 
  89   0.0000       7.918398       215.4706 
  90   0.0000       8.300938       225.8800 
  91   0.0000       8.699232       236.7181 
  92   0.0000      14.513703       394.9379 
  93   0.0000      14.513703       394.9379 
  94   0.0000      14.569278       396.4502 
  95   0.0000      32.511242       884.6759 
  96   0.0000      62.479876      1700.1639 
  97   0.0000      62.479876      1700.1639 
  98   0.0000      62.517697      1701.1930 
  99   0.0000     117.591297      3199.8219 
 100   0.0000     279.773068      7613.0122 
 101   0.0000     279.773068      7613.0122 
 102   0.0000     279.802205      7613.8051 
 103   0.0000     390.604556     10628.8903 
 104   0.0000    1192.748351     32456.3327 
 105   0.0000    3395.510836     92396.5472 
 106   0.0000   13759.636479    374418.7437 

                 SPIN DOWN ORBITALS
  NO   OCC          E(Eh)            E(eV) 
   0   1.0000    -573.491131    -15605.4870 
   1   1.0000     -76.573625     -2083.6743 
   2   1.0000     -69.787547     -1899.0157 
   3   1.0000     -69.787547     -1899.0157 
   4   1.0000     -69.786470     -1898.9864 
   5   1.0000     -11.785125      -320.6896 
   6   1.0000      -9.292358      -252.8579 
   7   1.0000      -9.292358      -252.8579 
   8   1.0000      -9.289635      -252.7838 
   9   1.0000      -4.786289      -130.2415 
  10   1.0000      -4.786289      -130.2415 
  11   1.0000      -4.784485      -130.1925 
  12   1.0000      -4.784485      -130.1925 
  13   1.0000      -4.783293      -130.1600 
  14   1.0000      -1.427555       -38.8457 
  15   1.0000      -0.820368       -22.3233 
  16   1.0000      -0.820368       -22.3233 
  17   1.0000      -0.809659       -22.0320 
  18   1.0000      -0.176330        -4.7982 
  19   0.0000      -0.089080        -2.4240 
  20   0.0000      -0.033309        -0.9064 
  21   0.0000      -0.033309        -0.9064 
  22   0.0000      -0.033214        -0.9038 
  23   0.0000      -0.033214        -0.9038 
  24   0.0000      -0.032739        -0.8909 
  25   0.0000      -0.021565        -0.5868 
  26   0.0000      -0.021565        -0.5868 
  27   0.0000       0.075920         2.0659 
  28   0.0000       0.095155         2.5893 
  29   0.0000       0.144976         3.9450 
  30   0.0000       0.144976         3.9450 
  31   0.0000       0.151237         4.1154 
  32   0.0000       0.236230         6.4282 
  33   0.0000       0.236230         6.4282 
  34   0.0000       0.237107         6.4520 
  35   0.0000       0.237107         6.4520 
  36   0.0000       0.249605         6.7921 
  37   0.0000       0.305028         8.3002 
  38   0.0000       0.503200        13.6928 
  39   0.0000       0.503200        13.6928 
  40   0.0000       0.557740        15.1769 
  41   0.0000       0.667603        18.1664 
  42   0.0000       0.757705        20.6182 
  43   0.0000       0.757705        20.6182 
  44   0.0000       0.848412        23.0865 
  45   0.0000       1.071866        29.1670 
  46   0.0000       1.071866        29.1670 
  47   0.0000       1.076019        29.2800 
  48   0.0000       1.076019        29.2800 
  49   0.0000       1.099078        29.9074 
  50   0.0000       1.099078        29.9074 
  51   0.0000       1.108684        30.1688 
  52   0.0000       1.199262        32.6336 
  53   0.0000       1.199262        32.6336 
  54   0.0000       1.201295        32.6889 
  55   0.0000       1.201295        32.6889 
  56   0.0000       1.214040        33.0357 
  57   0.0000       1.425178        38.7811 
  58   0.0000       1.894816        51.5606 
  59   0.0000       1.894817        51.5606 
  60   0.0000       2.038337        55.4660 
  61   0.0000       2.038337        55.4660 
  62   0.0000       2.284802        62.1726 
  63   0.0000       2.284802        62.1726 
  64   0.0000       2.287382        62.2428 
  65   0.0000       2.363589        64.3165 
  66   0.0000       2.727161        74.2098 
  67   0.0000       3.297640        89.7334 
  68   0.0000       3.297640        89.7334 
  69   0.0000       3.351405        91.1964 
  70   0.0000       5.103571       138.8752 
  71   0.0000       5.103571       138.8752 
  72   0.0000       5.122347       139.3861 
  73   0.0000       5.122347       139.3861 
  74   0.0000       5.166711       140.5934 
  75   0.0000       5.305955       144.3824 
  76   0.0000       5.805931       157.9874 
  77   0.0000       5.805935       157.9875 
  78   0.0000       5.815327       158.2431 
  79   0.0000       5.815327       158.2431 
  80   0.0000       5.839065       158.8890 
  81   0.0000       5.839065       158.8890 
  82   0.0000       5.919606       161.0807 
  83   0.0000       7.533527       204.9977 
  84   0.0000       7.533527       204.9977 
  85   0.0000       7.685276       209.1270 
  86   0.0000       7.846647       213.5181 
  87   0.0000       7.846649       213.5182 
  88   0.0000       7.932938       215.8662 
  89   0.0000       7.932938       215.8662 
  90   0.0000       8.315189       226.2678 
  91   0.0000       8.702710       236.8128 
  92   0.0000      14.514866       394.9696 
  93   0.0000      14.514866       394.9696 
  94   0.0000      14.571630       396.5142 
  95   0.0000      32.512317       884.7051 
  96   0.0000      62.480127      1700.1707 
  97   0.0000      62.480127      1700.1707 
  98   0.0000      62.518641      1701.2187 
  99   0.0000     117.591789      3199.8353 
 100   0.0000     279.773220      7613.0163 
 101   0.0000     279.773220      7613.0163 
 102   0.0000     279.802655      7613.8173 
 103   0.0000     390.604918     10628.9002 
 104   0.0000    1192.748608     32456.3397 
 105   0.0000    3395.511140     92396.5555 
 106   0.0000   13759.636991    374418.7576 

                    ********************************
                    * MULLIKEN POPULATION ANALYSIS *
                    ********************************

--------------------------------------------
MULLIKEN ATOMIC CHARGES AND SPIN POPULATIONS
--------------------------------------------
   0 Sr:    0.421580    0.930641
   1 H :   -0.421580    0.069359
Sum of atomic charges         :   -0.0000000
Sum of atomic spin populations:    1.0000000

-----------------------------------------------------
MULLIKEN REDUCED ORBITAL CHARGES AND SPIN POPULATIONS
-----------------------------------------------------
CHARGE
  0 Srs       :     9.054289  s :     9.054289
      pz      :     6.196537  p :    18.195927
      px      :     5.999695
      py      :     5.999695
      dz2     :     2.326653  d :    10.326917
      dxz     :     2.000132
      dyz     :     2.000132
      dx2y2   :     2.000000
      dxy     :     2.000000
      f0      :     0.001230  f :     0.001288
      f+1     :     0.000029
      f-1     :     0.000029
      f+2     :     0.000000
      f-2     :     0.000000
      f+3     :     0.000000
      f-3     :     0.000000
  1 H s       :     1.410745  s :     1.410745
      pz      :     0.009732  p :     0.009906
      px      :     0.000087
      py      :     0.000087
      dz2     :     0.000789  d :     0.000894
      dxz     :     0.000053
      dyz     :     0.000053
      dx2y2   :     0.000000
      dxy     :     0.000000
      f0      :     0.000025  f :     0.000033
      f+1     :     0.000004
      f-1     :     0.000004
      f+2     :     0.000000
      f-2     :     0.000000
      f+3     :     0.000000
      f-3     :     0.000000

SPIN
  0 Srs       :     0.656800  s :     0.656800
      pz      :     0.161572  p :     0.161533
      px      :    -0.000019
      py      :    -0.000019
      dz2     :     0.112114  d :     0.112192
      dxz     :     0.000039
      dyz     :     0.000039
      dx2y2   :    -0.000000
      dxy     :    -0.000000
      f0      :     0.000095  f :     0.000115
      f+1     :     0.000010
      f-1     :     0.000010
      f+2     :     0.000000
      f-2     :     0.000000
      f+3     :     0.000000
      f-3     :     0.000000
  1 H s       :     0.069202  s :     0.069202
      pz      :     0.000183  p :     0.000132
      px      :    -0.000026
      py      :    -0.000026
      dz2     :     0.000032  d :     0.000024
      dxz     :    -0.000004
      dyz     :    -0.000004
      dx2y2   :    -0.000000
      dxy     :    -0.000000
      f0      :     0.000002  f :     0.000002
      f+1     :    -0.000000
      f-1     :    -0.000000
      f+2     :    -0.000000
      f-2     :    -0.000000
      f+3     :     0.000000
      f-3     :     0.000000


                     *******************************
                     * LOEWDIN POPULATION ANALYSIS *
                     *******************************

-------------------------------------------
LOEWDIN ATOMIC CHARGES AND SPIN POPULATIONS
-------------------------------------------
   0 Sr:    0.350856    0.946994
   1 H :   -0.350856    0.053006

----------------------------------------------------
LOEWDIN REDUCED ORBITAL CHARGES AND SPIN POPULATIONS
----------------------------------------------------
CHARGE
  0 Srs       :     9.011961  s :     9.011961
      pz      :     6.254457  p :    18.252120
      px      :     5.998831
      py      :     5.998831
      dz2     :     2.382275  d :    10.382576
      dxz     :     2.000151
      dyz     :     2.000151
      dx2y2   :     2.000000
      dxy     :     2.000000
      f0      :     0.002420  f :     0.002487
      f+1     :     0.000034
      f-1     :     0.000034
      f+2     :     0.000000
      f-2     :     0.000000
      f+3     :     0.000000
      f-3     :     0.000000
  1 H s       :     1.308720  s :     1.308720
      pz      :     0.033267  p :     0.034576
      px      :     0.000654
      py      :     0.000654
      dz2     :     0.006607  d :     0.007221
      dxz     :     0.000307
      dyz     :     0.000307
      dx2y2   :     0.000000
      dxy     :     0.000000
      f0      :     0.000293  f :     0.000339
      f+1     :     0.000023
      f-1     :     0.000023
      f+2     :     0.000000
      f-2     :     0.000000
      f+3     :     0.000000
      f-3     :     0.000000

SPIN
  0 Srs       :     0.617156  s :     0.617156
      pz      :     0.199227  p :     0.199141
      px      :    -0.000043
      py      :    -0.000043
      dz2     :     0.130339  d :     0.130424
      dxz     :     0.000042
      dyz     :     0.000042
      dx2y2   :    -0.000000
      dxy     :    -0.000000
      f0      :     0.000251  f :     0.000273
      f+1     :     0.000011
      f-1     :     0.000011
      f+2     :     0.000000
      f-2     :     0.000000
      f+3     :     0.000000
      f-3     :     0.000000
  1 H s       :     0.052051  s :     0.052051
      pz      :     0.000908  p :     0.000889
      px      :    -0.000009
      py      :    -0.000009
      dz2     :     0.000061  d :     0.000059
      dxz     :    -0.000001
      dyz     :    -0.000001
      dx2y2   :     0.000000
      dxy     :     0.000000
      f0      :     0.000008  f :     0.000008
      f+1     :    -0.000000
      f-1     :    -0.000000
      f+2     :     0.000000
      f-2     :     0.000000
      f+3     :     0.000000
      f-3     :     0.000000


                      *****************************
                      * MAYER POPULATION ANALYSIS *
                      *****************************

  NA   - Mulliken gross atomic population
  ZA   - Total nuclear charge
  QA   - Mulliken gross atomic charge
  VA   - Mayer's total valence
  BVA  - Mayer's bonded valence
  FA   - Mayer's free valence

  ATOM       NA         ZA         QA         VA         BVA        FA
  0 Sr    37.5784    38.0000     0.4216     1.7325     0.8097     0.9228
  1 H      1.4216     1.0000    -0.4216     0.8152     0.8097     0.0054

  Mayer bond orders larger than 0.100000
B(  0-Sr,  1-H ) :   0.8097 

-------
TIMINGS
-------

Total SCF time: 0 days 0 hours 0 min 5 sec 

Total time                  ....       5.813 sec
Sum of individual times     ....       5.646 sec  ( 97.1%)

Fock matrix formation       ....       3.322 sec  ( 57.1%)
  XC integration            ....       0.808 sec  ( 24.3% of F)
    Basis function eval.    ....       0.154 sec  ( 19.1% of XC)
    Density eval.           ....       0.150 sec  ( 18.5% of XC)
    XC-Functional eval.     ....       0.087 sec  ( 10.8% of XC)
    XC-Potential eval.      ....       0.196 sec  ( 24.3% of XC)
Diagonalization             ....       0.092 sec  (  1.6%)
Density matrix formation    ....       0.004 sec  (  0.1%)
Population analysis         ....       0.005 sec  (  0.1%)
Initial guess               ....       0.010 sec  (  0.2%)
Orbital Transformation      ....       0.000 sec  (  0.0%)
Orbital Orthonormalization  ....       0.000 sec  (  0.0%)
DIIS solution               ....       0.073 sec  (  1.2%)
Grid generation             ....       2.141 sec  ( 36.8%)

Maximum memory used throughout the entire SCF-calculation: 231.8 MB

-------------------------   --------------------
FINAL SINGLE POINT ENERGY     -3132.661175084485
-------------------------   --------------------


                            ***************************************
                            *     ORCA property calculations      *
                            ***************************************

                                    ---------------------
                                    Active property flags
                                    ---------------------
   (+) Dipole Moment


------------------------------------------------------------------------------
                       ORCA ELECTRIC PROPERTIES CALCULATION
------------------------------------------------------------------------------

Dipole Moment Calculation                       ... on
Quadrupole Moment Calculation                   ... off
Polarizability Calculation                      ... off
GBWName                                         ... SrH.gbw
Electron density                                ... SrH.scfp
The origin for moment calculation is the CENTER OF MASS  = ( 0.000000,  0.000000  0.045908)

-------------
DIPOLE MOMENT
-------------
                                X             Y             Z
Electronic contribution:      0.00000       0.00000      -3.39351
Nuclear contribution   :      0.00000       0.00000       2.24604
                        -----------------------------------------
Total Dipole Moment    :      0.00000       0.00000      -1.14747
                        -----------------------------------------
Magnitude (a.u.)       :      1.14747
Magnitude (Debye)      :      2.91663



--------------------
Rotational spectrum 
--------------------
 
Rotational constants in cm-1:     0.000000     3.707674     3.707674 
Rotational constants in MHz :     0.000000 111153.278100 111153.278100 

 Dipole components along the rotational axes: 
x,y,z [a.u.] :    -1.147468     0.000000     0.000000 
x,y,z [Debye]:    -2.916633     0.000000     0.000000 

 

Timings for individual modules:

Sum of individual times         ...        6.424 sec (=   0.107 min)
GTO integral calculation        ...        0.372 sec (=   0.006 min)   5.8 %
SCF iterations                  ...        6.052 sec (=   0.101 min)  94.2 %
                             ****ORCA TERMINATED NORMALLY****
TOTAL RUN TIME: 0 days 0 hours 0 minutes 6 seconds 721 msec
