
                                 *****************
                                 * O   R   C   A *
                                 *****************

                                            #,                                       
                                            ###                                      
                                            ####                                     
                                            #####                                    
                                            ######                                   
                                           ########,                                 
                                     ,,################,,,,,                         
                               ,,#################################,,                 
                          ,,##########################################,,             
                       ,#########################################, ''#####,          
                    ,#############################################,,   '####,        
                  ,##################################################,,,,####,       
                ,###########''''           ''''###############################       
              ,#####''   ,,,,##########,,,,          '''####'''          '####       
            ,##' ,,,,###########################,,,                        '##       
           ' ,,###''''                  '''############,,,                           
         ,,##''                                '''############,,,,        ,,,,,,###''
      ,#''                                            '''#######################'''  
     '                                                          ''''####''''         
             ,#######,   #######,   ,#######,      ##                                
            ,#'     '#,  ##    ##  ,#'     '#,    #''#        ######   ,####,        
            ##       ##  ##   ,#'  ##            #'  '#       #        #'  '#        
            ##       ##  #######   ##           ,######,      #####,   #    #        
            '#,     ,#'  ##    ##  '#,     ,#' ,#      #,         ##   #,  ,#        
             '#######'   ##     ##  '#######'  #'      '#     #####' # '####'        



                  #######################################################
                  #                        -***-                        #
                  #          Department of theory and spectroscopy      #
                  #    Directorship and core code : Frank Neese         #
                  #        Max Planck Institute fuer Kohlenforschung    #
                  #                Kaiser Wilhelm Platz 1               #
                  #                 D-45470 Muelheim/Ruhr               #
                  #                      Germany                        #
                  #                                                     #
                  #                  All rights reserved                #
                  #                        -***-                        #
                  #######################################################


                         Program Version 5.0.3 -  RELEASE  -


 With contributions from (in alphabetic order):
   Daniel Aravena         : Magnetic Suceptibility
   Michael Atanasov       : Ab Initio Ligand Field Theory (pilot matlab implementation)
   Alexander A. Auer      : GIAO ZORA, VPT2 properties, NMR spectrum
   Ute Becker             : Parallelization
   Giovanni Bistoni       : ED, misc. LED, open-shell LED, HFLD
   Martin Brehm           : Molecular dynamics
   Dmytro Bykov           : SCF Hessian
   Vijay G. Chilkuri      : MRCI spin determinant printing, contributions to CSF-ICE
   Dipayan Datta          : RHF DLPNO-CCSD density
   Achintya Kumar Dutta   : EOM-CC, STEOM-CC
   Dmitry Ganyushin       : Spin-Orbit,Spin-Spin,Magnetic field MRCI
   Miquel Garcia          : C-PCM and meta-GGA Hessian, CC/C-PCM, Gaussian charge scheme
   Yang Guo               : DLPNO-NEVPT2, F12-NEVPT2, CIM, IAO-localization
   Andreas Hansen         : Spin unrestricted coupled pair/coupled cluster methods
   Benjamin Helmich-Paris : MC-RPA, TRAH-SCF, COSX integrals
   Lee Huntington         : MR-EOM, pCC
   Robert Izsak           : Overlap fitted RIJCOSX, COSX-SCS-MP3, EOM
   Marcus Kettner         : VPT2
   Christian Kollmar      : KDIIS, OOCD, Brueckner-CCSD(T), CCSD density, CASPT2, CASPT2-K
   Simone Kossmann        : Meta GGA functionals, TD-DFT gradient, OOMP2, MP2 Hessian
   Martin Krupicka        : Initial AUTO-CI
   Lucas Lang             : DCDCAS
   Marvin Lechner         : AUTO-CI (C++ implementation), FIC-MRCC
   Dagmar Lenk            : GEPOL surface, SMD
   Dimitrios Liakos       : Extrapolation schemes; Compound Job, initial MDCI parallelization
   Dimitrios Manganas     : Further ROCIS development; embedding schemes
   Dimitrios Pantazis     : SARC Basis sets
   Anastasios Papadopoulos: AUTO-CI, single reference methods and gradients
   Taras Petrenko         : DFT Hessian,TD-DFT gradient, ASA, ECA, R-Raman, ABS, FL, XAS/XES, NRVS
   Peter Pinski           : DLPNO-MP2, DLPNO-MP2 Gradient
   Christoph Reimann      : Effective Core Potentials
   Marius Retegan         : Local ZFS, SOC
   Christoph Riplinger    : Optimizer, TS searches, QM/MM, DLPNO-CCSD(T), (RO)-DLPNO pert. Triples
   Tobias Risthaus        : Range-separated hybrids, TD-DFT gradient, RPA, STAB
   Michael Roemelt        : Original ROCIS implementation
   Masaaki Saitow         : Open-shell DLPNO-CCSD energy and density
   Barbara Sandhoefer     : DKH picture change effects
   Avijit Sen             : IP-ROCIS
   Kantharuban Sivalingam : CASSCF convergence, NEVPT2, FIC-MRCI
   Bernardo de Souza      : ESD, SOC TD-DFT
   Georgi Stoychev        : AutoAux, RI-MP2 NMR, DLPNO-MP2 response
   Willem Van den Heuvel  : Paramagnetic NMR
   Boris Wezisla          : Elementary symmetry handling
   Frank Wennmohs         : Technical directorship


 We gratefully acknowledge several colleagues who have allowed us to
 interface, adapt or use parts of their codes:
   Stefan Grimme, W. Hujo, H. Kruse, P. Pracht,  : VdW corrections, initial TS optimization,
                  C. Bannwarth, S. Ehlert          DFT functionals, gCP, sTDA/sTD-DF
   Ed Valeev, F. Pavosevic, A. Kumar             : LibInt (2-el integral package), F12 methods
   Garnet Chan, S. Sharma, J. Yang, R. Olivares  : DMRG
   Ulf Ekstrom                                   : XCFun DFT Library
   Mihaly Kallay                                 : mrcc  (arbitrary order and MRCC methods)
   Jiri Pittner, Ondrej Demel                    : Mk-CCSD
   Frank Weinhold                                : gennbo (NPA and NBO analysis)
   Christopher J. Cramer and Donald G. Truhlar   : smd solvation model
   Lars Goerigk                                  : TD-DFT with DH, B97 family of functionals
   V. Asgeirsson, H. Jonsson                     : NEB implementation
   FAccTs GmbH                                   : IRC, NEB, NEB-TS, DLPNO-Multilevel, CI-OPT
                                                   MM, QMMM, 2- and 3-layer-ONIOM, Crystal-QMMM,
                                                   LR-CPCM, SF, NACMEs, symmetry and pop. for TD-DFT,
                                                   nearIR, NL-DFT gradient (VV10), updates on ESD,
                                                   ML-optimized integration grids
   S Lehtola, MJT Oliveira, MAL Marques          : LibXC Library
   Liviu Ungur et al                             : ANISO software


 Your calculation uses the libint2 library for the computation of 2-el integrals
 For citations please refer to: http://libint.valeyev.net

 Your ORCA version has been built with support for libXC version: 5.1.0
 For citations please refer to: https://tddft.org/programs/libxc/

 This ORCA versions uses:
   CBLAS   interface :  Fast vector & matrix operations
   LAPACKE interface :  Fast linear algebra routines
   SCALAPACK package :  Parallel linear algebra routines
   Shared memory     :  Shared parallel matrices
   BLAS/LAPACK       :  OpenBLAS 0.3.15  USE64BITINT DYNAMIC_ARCH NO_AFFINITY SkylakeX SINGLE_THREADED
        Core in use  :  SkylakeX
   Copyright (c) 2011-2014, The OpenBLAS Project


================================================================================

----- Orbital basis set information -----
Your calculation utilizes the basis: UGBS
   E. V. R. de Castro and F. E. Jorge, J. Chem. Phys. 108, 5225 (1998).

================================================================================
                                        WARNINGS
                       Please study these warnings very carefully!
================================================================================


INFO   : the flag for use of the SHARK integral package has been found!

================================================================================
                                       INPUT FILE
================================================================================
NAME = AgH.inp
|  1> !uks pbe ugbs nori defgrid3 verytightscf
|  2> 
|  3> %pal nprocs 16 end
|  4> 
|  5> %scf maxiter 400 end
|  6> 
|  7> *xyz 0 1
|  8> Ag 0.0000000000 0.0000000000 0.0000000000
|  9> H 0.0000000000 0.0000000000 1.9310000000
| 10> *
| 11> 
| 12>                          ****END OF INPUT****
================================================================================

                       ****************************
                       * Single Point Calculation *
                       ****************************

---------------------------------
CARTESIAN COORDINATES (ANGSTROEM)
---------------------------------
  Ag     0.000000    0.000000    0.000000
  H      0.000000    0.000000    1.931000

----------------------------
CARTESIAN COORDINATES (A.U.)
----------------------------
  NO LB      ZA    FRAG     MASS         X           Y           Z
   0 Ag   47.0000    0   107.870    0.000000    0.000000    0.000000
   1 H     1.0000    0     1.008    0.000000    0.000000    3.649061

--------------------------------
INTERNAL COORDINATES (ANGSTROEM)
--------------------------------
 Ag     0   0   0     0.000000000000     0.00000000     0.00000000
 H      1   0   0     1.931000000000     0.00000000     0.00000000

---------------------------
INTERNAL COORDINATES (A.U.)
---------------------------
 Ag     0   0   0     0.000000000000     0.00000000     0.00000000
 H      1   0   0     3.649061164602     0.00000000     0.00000000

---------------------
BASIS SET INFORMATION
---------------------
There are 2 groups of distinct atoms

 Group   1 Type Ag  : 31s21p17d contracted to 31s21p17d pattern {1111111111111111111111111111111/111111111111111111111/11111111111111111}
 Group   2 Type H   : 20s contracted to 20s pattern {11111111111111111111}

Atom   0Ag   basis set group =>   1
Atom   1H    basis set group =>   2


           ************************************************************
           *        Program running with 16 parallel MPI-processes    *
           *              working on a common directory               *
           ************************************************************
------------------------------------------------------------------------------
                           ORCA GTO INTEGRAL CALCULATION
------------------------------------------------------------------------------
------------------------------------------------------------------------------
                   ___                                                        
                  /   \      - P O W E R E D   B Y -                         
                 /     \                                                     
                 |  |  |   _    _      __       _____    __    __             
                 |  |  |  | |  | |    /  \     |  _  \  |  |  /  |          
                  \  \/   | |  | |   /    \    | | | |  |  | /  /          
                 / \  \   | |__| |  /  /\  \   | |_| |  |  |/  /          
                |  |  |   |  __  | /  /__\  \  |    /   |      \           
                |  |  |   | |  | | |   __   |  |    \   |  |\   \          
                \     /   | |  | | |  |  |  |  | |\  \  |  | \   \       
                 \___/    |_|  |_| |__|  |__|  |_| \__\ |__|  \__/        
                                                                              
                      - O R C A' S   B I G   F R I E N D -                    
                                      &                                       
                       - I N T E G R A L  F E E D E R -                       
                                                                              
 v1 FN, 2020, v2 2021                                                         
------------------------------------------------------------------------------


Reading SHARK input file AgH.SHARKINP.tmp ... ok
----------------------
SHARK INTEGRAL PACKAGE
----------------------

Number of atoms                             ...      2
Number of basis functions                   ...    199
Number of shells                            ...     89
Maximum angular momentum                    ...      2
Integral batch strategy                     ... SHARK/LIBINT Hybrid
RI-J (if used) integral strategy            ... SPLIT-RIJ (Revised 2003 algorithm where possible)
Printlevel                                  ...      1
Contraction scheme used                     ... SEGMENTED contraction
Coulomb Range Separation                    ... NOT USED
Exchange Range Separation                   ... NOT USED
Finite Nucleus Model                        ... NOT USED
Auxiliary Coulomb fitting basis             ... NOT available
Auxiliary J/K fitting basis                 ... NOT available
Auxiliary Correlation fitting basis         ... NOT available
Auxiliary 'external' fitting basis          ... NOT available
Integral threshold                          ...     1.000000e-12
Primitive cut-off                           ...     1.000000e-14
Primitive pair pre-selection threshold      ...     1.000000e-14

Calculating pre-screening integrals         ... done (  0.0 sec) Dimension = 89
Organizing shell pair data                  ... done (  0.0 sec)
Shell pair information
Total number of shell pairs                 ...      4005
Shell pairs after pre-screening             ...      3336
Total number of primitive shell pairs       ...      4005
Primitive shell pairs kept                  ...      3336
          la=0 lb=0:   1014 shell pairs
          la=1 lb=0:    858 shell pairs
          la=1 lb=1:    231 shell pairs
          la=2 lb=0:    723 shell pairs
          la=2 lb=1:    357 shell pairs
          la=2 lb=2:    153 shell pairs

Calculating one electron integrals          ... done (  0.0 sec)
Calculating Nuclear repulsion               ... done (  0.0 sec) ENN=     12.880025266753 Eh

SHARK setup successfully completed in   0.1 seconds

Maximum memory used throughout the entire GTOINT-calculation: 8.3 MB


           ************************************************************
           *        Program running with 16 parallel MPI-processes    *
           *              working on a common directory               *
           ************************************************************
-------------------------------------------------------------------------------
                                 ORCA SCF
-------------------------------------------------------------------------------

------------
SCF SETTINGS
------------
Hamiltonian:
 Density Functional     Method          .... DFT(GTOs)
 Exchange Functional    Exchange        .... PBE
   PBE kappa parameter   XKappa         ....  0.804000
   PBE mue parameter    XMuePBE         ....  0.219520
 Correlation Functional Correlation     .... PBE
   PBE beta parameter  CBetaPBE         ....  0.066725
 LDA part of GGA corr.  LDAOpt          .... PW91-LDA
 Gradients option       PostSCFGGA      .... off
   Density functional embedding theory  .... OFF
   NL short-range parameter             ....  6.400000


General Settings:
 Integral files         IntName         .... AgH
 Hartree-Fock type      HFTyp           .... UHF
 Total Charge           Charge          ....    0
 Multiplicity           Mult            ....    1
 Number of Electrons    NEL             ....   48
 Basis Dimension        Dim             ....  199
 Nuclear Repulsion      ENuc            ....     12.8800252668 Eh

Convergence Acceleration:
 DIIS                   CNVDIIS         .... on
   Start iteration      DIISMaxIt       ....    12
   Startup error        DIISStart       ....  0.200000
   # of expansion vecs  DIISMaxEq       ....     5
   Bias factor          DIISBfac        ....   1.050
   Max. coefficient     DIISMaxC        ....  10.000
 Trust-Rad. Augm. Hess. CNVTRAH         .... auto
   Auto Start mean grad. ratio tolernc. ....  1.125000
   Auto Start start iteration           ....    20
   Auto Start num. interpolation iter.  ....    10
   Max. Number of Micro iterations      ....    16
   Max. Number of Macro iterations      .... Maxiter - #DIIS iter
   Number of Davidson start vectors     ....     2
   Converg. threshold I  (grad. norm)   ....   2.000e-06
   Converg. threshold II (energy diff.) ....   1.000e-09
   Grad. Scal. Fac. for Micro threshold ....   0.100
   Minimum threshold for Micro iter.    ....   0.010
   NR start threshold (gradient norm)   ....   0.001
   Initial trust radius                 ....   0.400
   Minimum AH scaling param. (alpha)    ....   1.000
   Maximum AH scaling param. (alpha)    .... 1000.000
   Orbital update algorithm             .... Taylor
   White noise on init. David. guess    .... on
   Maximum white noise                  ....   0.010
   Quad. conv. algorithm                .... NR
 SOSCF                  CNVSOSCF        .... off
 Level Shifting         CNVShift        .... on
   Level shift para.    LevelShift      ....    0.2500
   Turn off err/grad.   ShiftErr        ....    0.0010
 Zerner damping         CNVZerner       .... off
 Static damping         CNVDamp         .... on
   Fraction old density DampFac         ....    0.7000
   Max. Damping (<1)    DampMax         ....    0.9800
   Min. Damping (>=0)   DampMin         ....    0.0000
   Turn off err/grad.   DampErr         ....    0.1000
 Fernandez-Rico         CNVRico         .... off

SCF Procedure:
 Maximum # iterations   MaxIter         ....   400
 SCF integral mode      SCFMode         .... Direct
   Integral package                     .... SHARK and LIBINT hybrid scheme
 Reset frequency        DirectResetFreq ....    20
 Integral Threshold     Thresh          ....  1.000e-12 Eh
 Primitive CutOff       TCut            ....  1.000e-14 Eh

Convergence Tolerance:
 Convergence Check Mode ConvCheckMode   .... Total+1el-Energy
 Convergence forced     ConvForced      .... 0
 Energy Change          TolE            ....  1.000e-09 Eh
 1-El. energy change                    ....  1.000e-06 Eh
 DIIS Error             TolErr          ....  1.000e-08


Diagonalization of the overlap matrix:
Smallest eigenvalue                        ... 6.071e-05
Time for diagonalization                   ...    0.007 sec
Threshold for overlap eigenvalues          ... 1.000e-08
Number of eigenvalues below threshold      ... 0
Time for construction of square roots      ...    0.005 sec
Total time needed                          ...    0.012 sec

Time for model grid setup =    0.128 sec

------------------------------
INITIAL GUESS: MODEL POTENTIAL
------------------------------
Loading Hartree-Fock densities                     ... done
Calculating cut-offs                               ... done
Initializing the effective Hamiltonian             ... done
Setting up the integral package (SHARK)            ... done
Starting the Coulomb interaction                   ... done (   0.0 sec)
Reading the grid                                   ... done
Mapping shells                                     ... done
Starting the XC term evaluation                    ... done (   0.0 sec)
  promolecular density results
     # of electrons  =     48.000655096
     EX              =   -143.672931267
     EC              =     -2.502607115
     EX+EC           =   -146.175538382
Transforming the Hamiltonian                       ... done (   0.0 sec)
Diagonalizing the Hamiltonian                      ... done (   0.0 sec)
Back transforming the eigenvectors                 ... done (   0.0 sec)
Now organizing SCF variables                       ... done
                      ------------------
                      INITIAL GUESS DONE (   0.1 sec)
                      ------------------
-------------------
DFT GRID GENERATION
-------------------

General Integration Accuracy     IntAcc      ... 4.959
Radial Grid Type                 RadialGrid  ... OptM3 with GC (2021)
Angular Grid (max. ang.)         AngularGrid ... 6 (Lebedev-590)
Angular grid pruning method      GridPruning ... 4 (adaptive)
Weight generation scheme         WeightScheme... Becke
Basis function cutoff            BFCut       ... 1.0000e-12
Integration weight cutoff        WCut        ... 1.0000e-14
Angular grids for H and He will be reduced by one unit
Partially contracted basis set               ... off
Rotationally invariant grid construction     ... off

Total number of grid points                  ...    85891
Total number of batches                      ...     1343
Average number of points per batch           ...       63
Average number of grid points per atom       ...    42946
Time for grid setup =    2.485 sec

--------------
SCF ITERATIONS
--------------
ITER       Energy         Delta-E        Max-DP      RMS-DP      [F,P]     Damp
               ***  Starting incremental Fock matrix formation  ***
  0  -5200.1090683005   0.000000000000 0.01321384  0.00027324  0.0716336 0.7000
  1  -5200.1309084738  -0.021840173265 0.01426384  0.00024888  0.0424808 0.7000
                               ***Turning on DIIS***
  2  -5200.1406924017  -0.009783927932 0.03470103  0.00053119  0.0247759 0.0000
  3  -5200.1401897198   0.000502681929 0.00987111  0.00016130  0.0469564 0.0000
  4  -5200.1480033704  -0.007813650599 0.00898913  0.00009660  0.0278628 0.0000
  5  -5200.1509371276  -0.002933757160 0.00616087  0.00007110  0.0164784 0.0000
  6  -5200.1521782969  -0.001241169324 0.00313233  0.00004205  0.0084042 0.0000
  7  -5200.1525338732  -0.000355576350 0.00161007  0.00002685  0.0046029 0.0000
  8  -5200.1526551522  -0.000121278914 0.00086136  0.00001699  0.0025284 0.0000
  9  -5200.1526945326  -0.000039380468 0.00058859  0.00001059  0.0015641 0.0000
 10  -5200.1527094885  -0.000014955898 0.00040162  0.00000713  0.0010438 0.0000
 11  -5200.1527163440  -0.000006855513 0.00079791  0.00001426  0.0007074 0.0000
 12  -5200.1527217294  -0.000005385397 0.00005983  0.00000069  0.0001104 0.0000
 13  -5200.1527217944  -0.000000065005 0.00002367  0.00000030  0.0000431 0.0000
 14  -5200.1527218053  -0.000000010876 0.00000982  0.00000011  0.0000129 0.0000
 15  -5200.1527218062  -0.000000000926 0.00000232  0.00000003  0.0000036 0.0000
 16  -5200.1527218064  -0.000000000121 0.00000039  0.00000001  0.0000010 0.0000
 17  -5200.1527218064  -0.000000000069 0.00000008  0.00000000  0.0000001 0.0000
                 **** Energy Check signals convergence ****

               *****************************************************
               *                     SUCCESS                       *
               *           SCF CONVERGED AFTER  18 CYCLES          *
               *****************************************************


----------------
TOTAL SCF ENERGY
----------------

Total Energy       :        -5200.15272181 Eh         -141503.34945 eV

Components:
Nuclear Repulsion  :           12.88002527 Eh             350.48331 eV
Electronic Energy  :        -5213.03274707 Eh         -141853.83276 eV
One Electron Energy:        -7211.82392473 Eh         -196243.70583 eV
Two Electron Energy:         1998.79117765 Eh           54389.87307 eV

Virial components:
Potential Energy   :       -10397.98303868 Eh         -282943.50305 eV
Kinetic Energy     :         5197.83031687 Eh          141440.15360 eV
Virial Ratio       :            2.00044680


DFT components:
N(Alpha)           :       23.999999999362 electrons
N(Beta)            :       23.999999999362 electrons
N(Total)           :       47.999999998724 electrons
E(X)               :     -143.598021266133 Eh       
E(C)               :       -2.502091543824 Eh       
E(XC)              :     -146.100112809957 Eh       
DFET-embed. en.    :        0.000000000000 Eh       

---------------
SCF CONVERGENCE
---------------

  Last Energy change         ...    5.8208e-11  Tolerance :   1.0000e-09
  Last MAX-Density change    ...    1.7961e-08  Tolerance :   1.0000e-08
  Last RMS-Density change    ...    5.6240e-10  Tolerance :   1.0000e-09
  Last DIIS Error            ...    6.4306e-09  Tolerance :   1.0000e-08

             **** THE GBW FILE WAS UPDATED (AgH.gbw) ****
             **** DENSITY AgH.scfp WAS UPDATED ****
             **** ENERGY FILE WAS UPDATED (AgH.en.tmp) ****
----------------------
UHF SPIN CONTAMINATION
----------------------

Warning: in a DFT calculation there is little theoretical justification to 
         calculate <S**2> as in Hartree-Fock theory. We will do it anyways
         but you should keep in mind that the values have only limited relevance

Expectation value of <S**2>     :    -0.000000
Ideal value S*(S+1) for S=0.0   :     0.000000
Deviation                       :    -0.000000

             **** THE GBW FILE WAS UPDATED (AgH.gbw) ****
             **** DENSITY AgH.scfp WAS UPDATED ****
----------------
ORBITAL ENERGIES
----------------
                 SPIN UP ORBITALS
  NO   OCC          E(Eh)            E(eV) 
   0   1.0000    -901.413427    -24528.7064 
   1   1.0000    -129.990232     -3537.2141 
   2   1.0000    -120.962695     -3291.5623 
   3   1.0000    -120.962695     -3291.5623 
   4   1.0000    -120.962437     -3291.5552 
   5   1.0000     -23.726553      -645.6323 
   6   1.0000     -20.089589      -546.6655 
   7   1.0000     -20.089589      -546.6655 
   8   1.0000     -20.086979      -546.5945 
   9   1.0000     -13.367011      -363.7349 
  10   1.0000     -13.367011      -363.7349 
  11   1.0000     -13.365194      -363.6854 
  12   1.0000     -13.365194      -363.6854 
  13   1.0000     -13.364851      -363.6761 
  14   1.0000      -3.236203       -88.0616 
  15   1.0000      -2.095514       -57.0218 
  16   1.0000      -2.093889       -56.9776 
  17   1.0000      -2.093889       -56.9776 
  18   1.0000      -0.318819        -8.6755 
  19   1.0000      -0.301046        -8.1919 
  20   1.0000      -0.301046        -8.1919 
  21   1.0000      -0.298896        -8.1334 
  22   1.0000      -0.298896        -8.1334 
  23   1.0000      -0.206916        -5.6305 
  24   0.0000      -0.113216        -3.0808 
  25   0.0000       0.014559         0.3962 
  26   0.0000       0.040226         1.0946 
  27   0.0000       0.040226         1.0946 
  28   0.0000       0.053341         1.4515 
  29   0.0000       0.083086         2.2609 
  30   0.0000       0.121176         3.2974 
  31   0.0000       0.121176         3.2974 
  32   0.0000       0.128483         3.4962 
  33   0.0000       0.128483         3.4962 
  34   0.0000       0.135009         3.6738 
  35   0.0000       0.247770         6.7422 
  36   0.0000       0.259178         7.0526 
  37   0.0000       0.449915        12.2428 
  38   0.0000       0.479305        13.0426 
  39   0.0000       0.479305        13.0426 
  40   0.0000       0.489464        13.3190 
  41   0.0000       0.489464        13.3190 
  42   0.0000       0.498965        13.5775 
  43   0.0000       0.704218        19.1627 
  44   0.0000       0.731954        19.9175 
  45   0.0000       0.731954        19.9175 
  46   0.0000       0.877695        23.8833 
  47   0.0000       1.241592        33.7854 
  48   0.0000       1.293769        35.2052 
  49   0.0000       1.293769        35.2052 
  50   0.0000       1.294168        35.2161 
  51   0.0000       1.300461        35.3873 
  52   0.0000       1.300461        35.3873 
  53   0.0000       1.660672        45.1892 
  54   0.0000       2.533030        68.9272 
  55   0.0000       2.533030        68.9272 
  56   0.0000       2.671726        72.7014 
  57   0.0000       3.083177        83.8975 
  58   0.0000       3.088714        84.0482 
  59   0.0000       3.088714        84.0482 
  60   0.0000       3.093048        84.1661 
  61   0.0000       3.093048        84.1661 
  62   0.0000       3.257373        88.6376 
  63   0.0000       3.638918        99.0200 
  64   0.0000       7.020504       191.0376 
  65   0.0000       7.020504       191.0376 
  66   0.0000       7.124384       193.8643 
  67   0.0000       7.124384       193.8643 
  68   0.0000       7.124878       193.8778 
  69   0.0000       7.124878       193.8778 
  70   0.0000       7.146093       194.4551 
  71   0.0000       7.151948       194.6144 
  72   0.0000       7.614134       207.1911 
  73   0.0000       8.559193       232.9075 
  74   0.0000      15.588754       424.1916 
  75   0.0000      16.411297       446.5741 
  76   0.0000      16.411297       446.5741 
  77   0.0000      16.412070       446.5951 
  78   0.0000      16.412070       446.5951 
  79   0.0000      16.439542       447.3427 
  80   0.0000      18.542019       504.5540 
  81   0.0000      18.542019       504.5540 
  82   0.0000      18.666289       507.9355 
  83   0.0000      23.047432       627.1525 
  84   0.0000      31.540594       858.2632 
  85   0.0000      38.083994      1036.3181 
  86   0.0000      38.083994      1036.3182 
  87   0.0000      38.084651      1036.3360 
  88   0.0000      38.084651      1036.3360 
  89   0.0000      38.106138      1036.9207 
  90   0.0000      48.576716      1321.8396 
  91   0.0000      48.576716      1321.8396 
  92   0.0000      48.687668      1324.8588 
  93   0.0000      63.231853      1720.6262 
  94   0.0000      63.315922      1722.9138 
  95   0.0000      88.007245      2394.7989 
  96   0.0000      88.007245      2394.7989 
  97   0.0000      88.008674      2394.8378 
  98   0.0000      88.008674      2394.8378 
  99   0.0000      88.026647      2395.3268 
 100   0.0000     124.466739      3386.9122 
 101   0.0000     124.466739      3386.9122 
 102   0.0000     124.563360      3389.5414 
 103   0.0000     125.982040      3428.1456 
 104   0.0000     171.014030      4653.5283 
 105   0.0000     199.751369      5435.5111 
 106   0.0000     199.751369      5435.5111 
 107   0.0000     199.752483      5435.5414 
 108   0.0000     199.752483      5435.5414 
 109   0.0000     199.767530      5435.9508 
 110   0.0000     249.860026      6799.0370 
 111   0.0000     305.143291      8303.3711 
 112   0.0000     305.143291      8303.3711 
 113   0.0000     305.226719      8305.6413 
 114   0.0000     441.535218     12014.7841 
 115   0.0000     443.476383     12067.6059 
 116   0.0000     443.476383     12067.6059 
 117   0.0000     443.477051     12067.6241 
 118   0.0000     443.477051     12067.6241 
 119   0.0000     443.489713     12067.9686 
 120   0.0000     493.947654     13440.9990 
 121   0.0000     711.746879     19367.6172 
 122   0.0000     711.746879     19367.6172 
 123   0.0000     711.819398     19369.5906 
 124   0.0000     962.796447     26199.0233 
 125   0.0000     962.796447     26199.0233 
 126   0.0000     962.796658     26199.0290 
 127   0.0000     962.796658     26199.0290 
 128   0.0000     962.807281     26199.3181 
 129   0.0000     974.384790     26514.3581 
 130   0.0000    1078.840044     29356.7301 
 131   0.0000    1588.650278     43229.3718 
 132   0.0000    1588.650278     43229.3718 
 133   0.0000    1588.714296     43231.1138 
 134   0.0000    1920.246316     52252.5587 
 135   0.0000    2051.723767     55830.2420 
 136   0.0000    2051.723767     55830.2420 
 137   0.0000    2051.723875     55830.2450 
 138   0.0000    2051.723875     55830.2450 
 139   0.0000    2051.732776     55830.4872 
 140   0.0000    2497.342908     67956.1553 
 141   0.0000    3426.045676     93227.4424 
 142   0.0000    3426.045676     93227.4424 
 143   0.0000    3426.103077     93229.0044 
 144   0.0000    3785.811659    103017.1725 
 145   0.0000    4316.005965    117444.4931 
 146   0.0000    4316.005965    117444.4931 
 147   0.0000    4316.006186    117444.4991 
 148   0.0000    4316.006186    117444.4991 
 149   0.0000    4316.013666    117444.7026 
 150   0.0000    5521.530924    150248.4949 
 151   0.0000    7200.481811    195935.0712 
 152   0.0000    7200.481811    195935.0712 
 153   0.0000    7200.533930    195936.4895 
 154   0.0000    7486.387361    203714.9568 
 155   0.0000    9104.019254    247732.9584 
 156   0.0000    9104.019254    247732.9584 
 157   0.0000    9104.019458    247732.9640 
 158   0.0000    9104.019458    247732.9640 
 159   0.0000    9104.025875    247733.1386 
 160   0.0000   11787.046688    320741.8466 
 161   0.0000   14855.062748    404226.8079 
 162   0.0000   14855.062748    404226.8079 
 163   0.0000   14855.110474    404228.1065 
 164   0.0000   14919.577174    405982.3347 
 165   0.0000   19720.975869    536635.0354 
 166   0.0000   19720.975869    536635.0354 
 167   0.0000   19720.975979    536635.0384 
 168   0.0000   19720.975979    536635.0384 
 169   0.0000   19720.981501    536635.1887 
 170   0.0000   24534.075925    667606.1463 
 171   0.0000   30258.598628    823378.3284 
 172   0.0000   30258.598628    823378.3284 
 173   0.0000   30258.642524    823379.5229 
 174   0.0000   30340.228579    825599.5923 
 175   0.0000   50162.954732   1365003.3937 
 176   0.0000   61208.760193   1665575.0410 
 177   0.0000   61208.760193   1665575.0410 
 178   0.0000   61208.800646   1665576.1418 
 179   0.0000   65279.692010   1776350.7275 
 180   0.0000   101287.924426   2756184.5454 
 181   0.0000   123742.934339   3367216.4293 
 182   0.0000   123742.934339   3367216.4293 
 183   0.0000   123742.971616   3367217.4437 
 184   0.0000   202728.776687   5516530.4686 
 185   0.0000   253668.752990   6902677.6942 
 186   0.0000   253668.752990   6902677.6942 
 187   0.0000   253668.787290   6902678.6276 
 188   0.0000   403309.970842   10974622.2456 
 189   0.0000   544030.574613   14803824.5471 
 190   0.0000   544030.574613   14803824.5471 
 191   0.0000   544030.605905   14803825.3986 
 192   0.0000   799078.448446   21744030.0273 
 193   0.0000   1579633.482515   42984012.3242 
 194   0.0000   3120964.989860   84925774.9171 
 195   0.0000   6181347.351161   168203012.7010 
 196   0.0000   12331203.431381   335549104.3547 
 197   0.0000   25098675.039746   682969669.3385 
 198   0.0000   54010055.821655   1469688336.4184 

                 SPIN DOWN ORBITALS
  NO   OCC          E(Eh)            E(eV) 
   0   1.0000    -901.413427    -24528.7064 
   1   1.0000    -129.990232     -3537.2141 
   2   1.0000    -120.962695     -3291.5623 
   3   1.0000    -120.962695     -3291.5623 
   4   1.0000    -120.962437     -3291.5552 
   5   1.0000     -23.726553      -645.6323 
   6   1.0000     -20.089589      -546.6655 
   7   1.0000     -20.089589      -546.6655 
   8   1.0000     -20.086979      -546.5945 
   9   1.0000     -13.367011      -363.7349 
  10   1.0000     -13.367011      -363.7349 
  11   1.0000     -13.365194      -363.6854 
  12   1.0000     -13.365194      -363.6854 
  13   1.0000     -13.364851      -363.6761 
  14   1.0000      -3.236203       -88.0616 
  15   1.0000      -2.095514       -57.0218 
  16   1.0000      -2.093889       -56.9776 
  17   1.0000      -2.093889       -56.9776 
  18   1.0000      -0.318819        -8.6755 
  19   1.0000      -0.301046        -8.1919 
  20   1.0000      -0.301046        -8.1919 
  21   1.0000      -0.298896        -8.1334 
  22   1.0000      -0.298896        -8.1334 
  23   1.0000      -0.206916        -5.6305 
  24   0.0000      -0.113216        -3.0808 
  25   0.0000       0.014559         0.3962 
  26   0.0000       0.040226         1.0946 
  27   0.0000       0.040226         1.0946 
  28   0.0000       0.053341         1.4515 
  29   0.0000       0.083086         2.2609 
  30   0.0000       0.121176         3.2974 
  31   0.0000       0.121176         3.2974 
  32   0.0000       0.128483         3.4962 
  33   0.0000       0.128483         3.4962 
  34   0.0000       0.135009         3.6738 
  35   0.0000       0.247770         6.7422 
  36   0.0000       0.259178         7.0526 
  37   0.0000       0.449915        12.2428 
  38   0.0000       0.479305        13.0426 
  39   0.0000       0.479305        13.0426 
  40   0.0000       0.489464        13.3190 
  41   0.0000       0.489464        13.3190 
  42   0.0000       0.498965        13.5775 
  43   0.0000       0.704218        19.1627 
  44   0.0000       0.731954        19.9175 
  45   0.0000       0.731954        19.9175 
  46   0.0000       0.877695        23.8833 
  47   0.0000       1.241592        33.7854 
  48   0.0000       1.293769        35.2052 
  49   0.0000       1.293769        35.2052 
  50   0.0000       1.294168        35.2161 
  51   0.0000       1.300461        35.3873 
  52   0.0000       1.300461        35.3873 
  53   0.0000       1.660672        45.1892 
  54   0.0000       2.533030        68.9272 
  55   0.0000       2.533030        68.9272 
  56   0.0000       2.671726        72.7014 
  57   0.0000       3.083177        83.8975 
  58   0.0000       3.088714        84.0482 
  59   0.0000       3.088714        84.0482 
  60   0.0000       3.093048        84.1661 
  61   0.0000       3.093048        84.1661 
  62   0.0000       3.257373        88.6376 
  63   0.0000       3.638918        99.0200 
  64   0.0000       7.020504       191.0376 
  65   0.0000       7.020504       191.0376 
  66   0.0000       7.124384       193.8643 
  67   0.0000       7.124384       193.8643 
  68   0.0000       7.124878       193.8778 
  69   0.0000       7.124878       193.8778 
  70   0.0000       7.146093       194.4551 
  71   0.0000       7.151948       194.6144 
  72   0.0000       7.614134       207.1911 
  73   0.0000       8.559193       232.9075 
  74   0.0000      15.588754       424.1916 
  75   0.0000      16.411297       446.5741 
  76   0.0000      16.411297       446.5741 
  77   0.0000      16.412070       446.5951 
  78   0.0000      16.412070       446.5951 
  79   0.0000      16.439542       447.3427 
  80   0.0000      18.542019       504.5540 
  81   0.0000      18.542019       504.5540 
  82   0.0000      18.666289       507.9355 
  83   0.0000      23.047432       627.1525 
  84   0.0000      31.540594       858.2632 
  85   0.0000      38.083994      1036.3181 
  86   0.0000      38.083994      1036.3182 
  87   0.0000      38.084651      1036.3360 
  88   0.0000      38.084651      1036.3360 
  89   0.0000      38.106138      1036.9207 
  90   0.0000      48.576716      1321.8396 
  91   0.0000      48.576716      1321.8396 
  92   0.0000      48.687668      1324.8588 
  93   0.0000      63.231853      1720.6262 
  94   0.0000      63.315922      1722.9138 
  95   0.0000      88.007245      2394.7989 
  96   0.0000      88.007245      2394.7989 
  97   0.0000      88.008674      2394.8378 
  98   0.0000      88.008674      2394.8378 
  99   0.0000      88.026647      2395.3268 
 100   0.0000     124.466739      3386.9122 
 101   0.0000     124.466739      3386.9122 
 102   0.0000     124.563360      3389.5414 
 103   0.0000     125.982040      3428.1456 
 104   0.0000     171.014030      4653.5283 
 105   0.0000     199.751369      5435.5111 
 106   0.0000     199.751369      5435.5111 
 107   0.0000     199.752483      5435.5414 
 108   0.0000     199.752483      5435.5414 
 109   0.0000     199.767530      5435.9508 
 110   0.0000     249.860026      6799.0370 
 111   0.0000     305.143291      8303.3711 
 112   0.0000     305.143291      8303.3711 
 113   0.0000     305.226719      8305.6413 
 114   0.0000     441.535218     12014.7841 
 115   0.0000     443.476383     12067.6059 
 116   0.0000     443.476383     12067.6059 
 117   0.0000     443.477051     12067.6241 
 118   0.0000     443.477051     12067.6241 
 119   0.0000     443.489713     12067.9686 
 120   0.0000     493.947654     13440.9990 
 121   0.0000     711.746879     19367.6172 
 122   0.0000     711.746879     19367.6172 
 123   0.0000     711.819398     19369.5906 
 124   0.0000     962.796447     26199.0233 
 125   0.0000     962.796447     26199.0233 
 126   0.0000     962.796658     26199.0290 
 127   0.0000     962.796658     26199.0290 
 128   0.0000     962.807281     26199.3181 
 129   0.0000     974.384790     26514.3581 
 130   0.0000    1078.840044     29356.7301 
 131   0.0000    1588.650278     43229.3718 
 132   0.0000    1588.650278     43229.3718 
 133   0.0000    1588.714296     43231.1138 
 134   0.0000    1920.246316     52252.5587 
 135   0.0000    2051.723767     55830.2420 
 136   0.0000    2051.723767     55830.2420 
 137   0.0000    2051.723875     55830.2450 
 138   0.0000    2051.723875     55830.2450 
 139   0.0000    2051.732776     55830.4872 
 140   0.0000    2497.342908     67956.1553 
 141   0.0000    3426.045676     93227.4424 
 142   0.0000    3426.045676     93227.4424 
 143   0.0000    3426.103077     93229.0044 
 144   0.0000    3785.811659    103017.1725 
 145   0.0000    4316.005965    117444.4931 
 146   0.0000    4316.005965    117444.4931 
 147   0.0000    4316.006186    117444.4991 
 148   0.0000    4316.006186    117444.4991 
 149   0.0000    4316.013666    117444.7026 
 150   0.0000    5521.530924    150248.4949 
 151   0.0000    7200.481811    195935.0712 
 152   0.0000    7200.481811    195935.0712 
 153   0.0000    7200.533930    195936.4895 
 154   0.0000    7486.387361    203714.9568 
 155   0.0000    9104.019254    247732.9584 
 156   0.0000    9104.019254    247732.9584 
 157   0.0000    9104.019458    247732.9640 
 158   0.0000    9104.019458    247732.9640 
 159   0.0000    9104.025875    247733.1386 
 160   0.0000   11787.046688    320741.8466 
 161   0.0000   14855.062748    404226.8079 
 162   0.0000   14855.062748    404226.8079 
 163   0.0000   14855.110474    404228.1065 
 164   0.0000   14919.577174    405982.3347 
 165   0.0000   19720.975869    536635.0354 
 166   0.0000   19720.975869    536635.0354 
 167   0.0000   19720.975979    536635.0384 
 168   0.0000   19720.975979    536635.0384 
 169   0.0000   19720.981501    536635.1887 
 170   0.0000   24534.075925    667606.1463 
 171   0.0000   30258.598628    823378.3284 
 172   0.0000   30258.598628    823378.3284 
 173   0.0000   30258.642524    823379.5229 
 174   0.0000   30340.228579    825599.5923 
 175   0.0000   50162.954732   1365003.3937 
 176   0.0000   61208.760193   1665575.0410 
 177   0.0000   61208.760193   1665575.0410 
 178   0.0000   61208.800646   1665576.1418 
 179   0.0000   65279.692010   1776350.7275 
 180   0.0000   101287.924426   2756184.5454 
 181   0.0000   123742.934339   3367216.4293 
 182   0.0000   123742.934339   3367216.4293 
 183   0.0000   123742.971616   3367217.4437 
 184   0.0000   202728.776687   5516530.4686 
 185   0.0000   253668.752990   6902677.6942 
 186   0.0000   253668.752990   6902677.6942 
 187   0.0000   253668.787290   6902678.6276 
 188   0.0000   403309.970842   10974622.2456 
 189   0.0000   544030.574613   14803824.5471 
 190   0.0000   544030.574613   14803824.5471 
 191   0.0000   544030.605905   14803825.3986 
 192   0.0000   799078.448446   21744030.0273 
 193   0.0000   1579633.482515   42984012.3242 
 194   0.0000   3120964.989860   84925774.9171 
 195   0.0000   6181347.351161   168203012.7010 
 196   0.0000   12331203.431381   335549104.3547 
 197   0.0000   25098675.039746   682969669.3385 
 198   0.0000   54010055.821655   1469688336.4184 

                    ********************************
                    * MULLIKEN POPULATION ANALYSIS *
                    ********************************

--------------------------------------------
MULLIKEN ATOMIC CHARGES AND SPIN POPULATIONS
--------------------------------------------
   0 Ag:    0.230622    0.000000
   1 H :   -0.230622    0.000000
Sum of atomic charges         :   -0.0000000
Sum of atomic spin populations:    0.0000000

-----------------------------------------------------
MULLIKEN REDUCED ORBITAL CHARGES AND SPIN POPULATIONS
-----------------------------------------------------
CHARGE
  0 Ags       :     8.764902  s :     8.764902
      pz      :     6.042072  p :    18.043232
      px      :     6.000580
      py      :     6.000580
      dz2     :     3.962403  d :    19.961244
      dxz     :     3.999420
      dyz     :     3.999420
      dx2y2   :     4.000000
      dxy     :     4.000000
  1 H s       :     1.230622  s :     1.230622

SPIN
  0 Ags       :     0.000000  s :     0.000000
      pz      :     0.000000  p :     0.000000
      px      :     0.000000
      py      :     0.000000
      dz2     :     0.000000  d :     0.000000
      dxz     :     0.000000
      dyz     :     0.000000
      dx2y2   :     0.000000
      dxy     :     0.000000
  1 H s       :     0.000000  s :     0.000000


                     *******************************
                     * LOEWDIN POPULATION ANALYSIS *
                     *******************************

-------------------------------------------
LOEWDIN ATOMIC CHARGES AND SPIN POPULATIONS
-------------------------------------------
   0 Ag:    0.241482    0.000000
   1 H :   -0.241482    0.000000

----------------------------------------------------
LOEWDIN REDUCED ORBITAL CHARGES AND SPIN POPULATIONS
----------------------------------------------------
CHARGE
  0 Ags       :     8.725950  s :     8.725950
      pz      :     6.046878  p :    18.048037
      px      :     6.000580
      py      :     6.000580
      dz2     :     3.985690  d :    19.984530
      dxz     :     3.999420
      dyz     :     3.999420
      dx2y2   :     4.000000
      dxy     :     4.000000
  1 H s       :     1.241482  s :     1.241482

SPIN
  0 Ags       :     0.000000  s :     0.000000
      pz      :     0.000000  p :     0.000000
      px      :     0.000000
      py      :     0.000000
      dz2     :     0.000000  d :     0.000000
      dxz     :     0.000000
      dyz     :     0.000000
      dx2y2   :     0.000000
      dxy     :     0.000000
  1 H s       :     0.000000  s :     0.000000


                      *****************************
                      * MAYER POPULATION ANALYSIS *
                      *****************************

  NA   - Mulliken gross atomic population
  ZA   - Total nuclear charge
  QA   - Mulliken gross atomic charge
  VA   - Mayer's total valence
  BVA  - Mayer's bonded valence
  FA   - Mayer's free valence

  ATOM       NA         ZA         QA         VA         BVA        FA
  0 Ag    46.7694    47.0000     0.2306     0.9708     0.9708    -0.0000
  1 H      1.2306     1.0000    -0.2306     0.9708     0.9708    -0.0000

  Mayer bond orders larger than 0.100000
B(  0-Ag,  1-H ) :   0.9708 

-------
TIMINGS
-------

Total SCF time: 0 days 0 hours 0 min 8 sec 

Total time                  ....       8.399 sec
Sum of individual times     ....       8.178 sec  ( 97.4%)

Fock matrix formation       ....       5.134 sec  ( 61.1%)
  XC integration            ....       1.421 sec  ( 27.7% of F)
    Basis function eval.    ....       0.185 sec  ( 13.0% of XC)
    Density eval.           ....       0.259 sec  ( 18.2% of XC)
    XC-Functional eval.     ....       0.081 sec  (  5.7% of XC)
    XC-Potential eval.      ....       0.453 sec  ( 31.9% of XC)
Diagonalization             ....       0.242 sec  (  2.9%)
Density matrix formation    ....       0.014 sec  (  0.2%)
Population analysis         ....       0.012 sec  (  0.1%)
Initial guess               ....       0.020 sec  (  0.2%)
Orbital Transformation      ....       0.000 sec  (  0.0%)
Orbital Orthonormalization  ....       0.000 sec  (  0.0%)
DIIS solution               ....       0.143 sec  (  1.7%)
Grid generation             ....       2.613 sec  ( 31.1%)

Maximum memory used throughout the entire SCF-calculation: 235.4 MB

-------------------------   --------------------
FINAL SINGLE POINT ENERGY     -5200.152721806373
-------------------------   --------------------


                            ***************************************
                            *     ORCA property calculations      *
                            ***************************************

                                    ---------------------
                                    Active property flags
                                    ---------------------
   (+) Dipole Moment


------------------------------------------------------------------------------
                       ORCA ELECTRIC PROPERTIES CALCULATION
------------------------------------------------------------------------------

Dipole Moment Calculation                       ... on
Quadrupole Moment Calculation                   ... off
Polarizability Calculation                      ... off
GBWName                                         ... AgH.gbw
Electron density                                ... AgH.scfp
The origin for moment calculation is the CENTER OF MASS  = ( 0.000000,  0.000000  0.033783)

-------------
DIPOLE MOMENT
-------------
                                X             Y             Z
Electronic contribution:      0.00000       0.00000      -3.36111
Nuclear contribution   :      0.00000       0.00000       2.02746
                        -----------------------------------------
Total Dipole Moment    :      0.00000       0.00000      -1.33365
                        -----------------------------------------
Magnitude (a.u.)       :      1.33365
Magnitude (Debye)      :      3.38986



--------------------
Rotational spectrum 
--------------------
 
Rotational constants in cm-1:     0.000000     4.527008     4.527008 
Rotational constants in MHz :     0.000000 135716.290347 135716.290347 

 Dipole components along the rotational axes: 
x,y,z [a.u.] :    -1.333645     0.000000     0.000000 
x,y,z [Debye]:    -3.389856     0.000000     0.000000 

 

Timings for individual modules:

Sum of individual times         ...        8.978 sec (=   0.150 min)
GTO integral calculation        ...        0.343 sec (=   0.006 min)   3.8 %
SCF iterations                  ...        8.635 sec (=   0.144 min)  96.2 %
                             ****ORCA TERMINATED NORMALLY****
TOTAL RUN TIME: 0 days 0 hours 0 minutes 9 seconds 314 msec
