
                                 *****************
                                 * O   R   C   A *
                                 *****************

           --- An Ab Initio, DFT and Semiempirical electronic structure package ---

                  #######################################################
                  #                        -***-                        #
                  #          Department of theory and spectroscopy      #
                  #               Directorship: Frank Neese             #
                  #        Max Planck Institute fuer Kohlenforschung    #
                  #                Kaiser Wilhelm Platz 1               #
                  #                 D-45470 Muelheim/Ruhr               #
                  #                      Germany                        #
                  #                                                     #
                  #                  All rights reserved                #
                  #                        -***-                        #
                  #######################################################


                         Program Version 4.2.1 -  RELEASE  -


 With contributions from (in alphabetic order):
   Daniel Aravena         : Magnetic Suceptibility
   Michael Atanasov       : Ab Initio Ligand Field Theory (pilot matlab implementation)
   Alexander A. Auer      : GIAO ZORA, VPT2
   Ute Becker             : Parallelization
   Giovanni Bistoni       : ED, misc. LED, open-shell LED, HFLD
   Martin Brehm           : Molecular dynamics
   Dmytro Bykov           : SCF Hessian
   Vijay G. Chilkuri      : MRCI spin determinant printing, contributions to CSF-ICE
   Dipayan Datta          : RHF DLPNO-CCSD density
   Achintya Kumar Dutta   : EOM-CC, STEOM-CC
   Dmitry Ganyushin       : Spin-Orbit,Spin-Spin,Magnetic field MRCI
   Miquel Garcia          : C-PCM Hessian, Gaussian charge scheme
   Yang Guo               : DLPNO-NEVPT2, CIM, IAO-localization
   Andreas Hansen         : Spin unrestricted coupled pair/coupled cluster methods
   Benjamin Helmich-Paris : CASSCF linear response (MC-RPA)
   Lee Huntington         : MR-EOM, pCC
   Robert Izsak           : Overlap fitted RIJCOSX, COSX-SCS-MP3, EOM
   Christian Kollmar      : KDIIS, OOCD, Brueckner-CCSD(T), CCSD density
   Simone Kossmann        : Meta GGA functionals, TD-DFT gradient, OOMP2, MP2 Hessian
   Martin Krupicka        : AUTO-CI
   Lucas Lang             : DCDCAS
   Dagmar Lenk            : GEPOL surface, SMD
   Dimitrios Liakos       : Extrapolation schemes; Compound Job, initial MDCI parallelization
   Dimitrios Manganas     : Further ROCIS development; embedding schemes
   Dimitrios Pantazis     : SARC Basis sets
   Taras Petrenko         : DFT Hessian,TD-DFT gradient, ASA, ECA, R-Raman, ABS, FL, XAS/XES, NRVS
   Peter Pinski           : DLPNO-MP2, DLPNO-MP2 Gradient
   Christoph Reimann      : Effective Core Potentials
   Marius Retegan         : Local ZFS, SOC
   Christoph Riplinger    : Optimizer, TS searches, QM/MM, DLPNO-CCSD(T), (RO)-DLPNO pert. Triples
   Tobias Risthaus        : Range-separated hybrids, TD-DFT gradient, RPA, STAB
   Michael Roemelt        : Original ROCIS implementation
   Masaaki Saitow         : Open-shell DLPNO-CCSD energy and density
   Barbara Sandhoefer     : DKH picture change effects
   Avijit Sen             : IP-ROCIS
   Kantharuban Sivalingam : CASSCF convergence, NEVPT2, FIC-MRCI
   Bernardo de Souza      : ESD, SOC TD-DFT
   Georgi Stoychev        : AutoAux, RI-MP2 NMR
   Willem Van den Heuvel  : Paramagnetic NMR
   Boris Wezisla          : Elementary symmetry handling
   Frank Wennmohs         : Technical directorship


 We gratefully acknowledge several colleagues who have allowed us to
 interface, adapt or use parts of their codes:
   Stefan Grimme, W. Hujo, H. Kruse,             : VdW corrections, initial TS optimization,
                  C. Bannwarth                     DFT functionals, gCP, sTDA/sTD-DF
   Ed Valeev, F. Pavosevic, A. Kumar             : LibInt (2-el integral package), F12 methods
   Garnet Chan, S. Sharma, J. Yang, R. Olivares  : DMRG
   Ulf Ekstrom                                   : XCFun DFT Library
   Mihaly Kallay                                 : mrcc  (arbitrary order and MRCC methods)
   Andreas Klamt, Michael Diedenhofen            : otool_cosmo (COSMO solvation model)
   Jiri Pittner, Ondrej Demel                    : Mk-CCSD
   Frank Weinhold                                : gennbo (NPA and NBO analysis)
   Christopher J. Cramer and Donald G. Truhlar   : smd solvation model
   Lars Goerigk                                  : TD-DFT with DH, B97 family of functionals
   V. Asgeirsson, H. Jonsson                     : NEB implementation
   FAccTs GmbH                                   : IRC, NEB, NEB-TS, Multilevel, MM, QM/MM, CI optimization
   S Lehtola, MJT Oliveira, MAL Marques          : LibXC Library


 Your calculation uses the libint2 library for the computation of 2-el integrals
 For citations please refer to: http://libint.valeyev.net

 Your ORCA version has been built with support for libXC version: 4.2.3
 For citations please refer to: https://tddft.org/programs/libxc/

 This ORCA versions uses:
   CBLAS   interface :  Fast vector & matrix operations
   LAPACKE interface :  Fast linear algebra routines
   SCALAPACK package :  Parallel linear algebra routines


----- Orbital basis set information -----
Your calculation utilizes the basis: ANO-RCC-TZP
   H, He:       P.-O. Widmark, P.-A. Malmqvist, and B. O. Roos, Theor. Chim. Acta 77, 291 (1990).
   s block:     B. O. Roos, V. Veryazov and P.-O. Widmark, Theor. Chem. Acc. 111, 345 (2004).
   p block:     B. O. Roos, R. Lindh, P.-A. Malmqvist, V. Veryazov, and P.-O. Widmark, J. Phys. Chem. A 108, 2851 (2004).
   d block:     B. O. Roos, R. Lindh, P.-A. Malmqvist, V. Veryazov, and P.-O. Widmark, J. Phys. Chem. A 109, 6575 (2005).
   actinides:   B. O. Roos, R. Lindh, P.-A. Malmqvist, V. Veryazov, and P.-O. Widmark, Chem. Phys. Letters 409, 295 (2005).
   lanthanides: B. O. Roos, R. Lindh, P.-A. Malmqvist, V. Veryazov, P.-O. Widmark and A. C. Borin, J. Phys. Chem. A 112, 11431 (2008).

================================================================================
                                        WARNINGS
                       Please study these warnings very carefully!
================================================================================


INFO   : the flag for use of LIBINT has been found!

================================================================================
                                       INPUT FILE
================================================================================
NAME = Ar_ano-rcc-tzp_.inp
|  1> ! LDA ano-rcc-tzp nori grid5 finalgrid6 verytightscf
|  2> %Pal NProcs 18 End
|  3> 
|  4> *xyz 16 1
|  5> Ar 0.0 0.0 0.0
|  6> **                         ****END OF INPUT****
================================================================================

                       ****************************
                       * Single Point Calculation *
                       ****************************

---------------------------------
CARTESIAN COORDINATES (ANGSTROEM)
---------------------------------
  Ar     0.000000    0.000000    0.000000

----------------------------
CARTESIAN COORDINATES (A.U.)
----------------------------
  NO LB      ZA    FRAG     MASS         X           Y           Z
   0 Ar   18.0000    0    39.948    0.000000    0.000000    0.000000

--------------------------------
INTERNAL COORDINATES (ANGSTROEM)
--------------------------------
 Ar     0   0   0     0.000000000000     0.00000000     0.00000000

---------------------------
INTERNAL COORDINATES (A.U.)
---------------------------
 Ar     0   0   0     0.000000000000     0.00000000     0.00000000

---------------------
BASIS SET INFORMATION
---------------------
There are 1 groups of distinct atoms

 Group   1 Type Ar  : 85s48p10d4f contracted to 5s4p2d1f pattern {1717171717/12121212/55/4}

Atom   0Ar   basis set group =>   1


           ************************************************************
           *        Program running with 18 parallel MPI-processes    *
           *              working on a common directory               *
           ************************************************************


------------------------------------------------------------------------------
                       ORCA GTO INTEGRAL CALCULATION
                     -- ANO INTEGRAL GENERATION BRANCH --
------------------------------------------------------------------------------


Gathering ANO information                         ... done
Calculation Information:
Number of atoms                                   ... 1
Number of basis functions                         ... 34
Highest angular momentum                          ... 3
Number of primitive shells                        ... 38
Total number of shells                            ... 12
Maximum number of shells                          ... 12

Getting memory                                    ... done
Making prescreening integrals                     ... done
Gathering atom contracted prescreening            ... done
Making one-electron integrals                     ... done

Timings:

Total time                                        ...    0.2 sec
Prescreening matrix                               ...    0.1 sec
One-electron matrix                               ...    0.0 sec
Two-index integrals + Cholesky                    ...    0.0 sec


           ************************************************************
           *        Program running with 18 parallel MPI-processes    *
           *              working on a common directory               *
           ************************************************************
-------------------------------------------------------------------------------
                                 ORCA SCF
-------------------------------------------------------------------------------

------------
SCF SETTINGS
------------
Hamiltonian:
 Density Functional     Method          .... DFT(GTOs)
 Exchange Functional    Exchange        .... Slater
   X-Alpha parameter    XAlpha          ....  0.666667
 Correlation Functional Correlation     .... VWN-5
 Gradients option       PostSCFGGA      .... off
   Density functional embedding theory  .... OFF


General Settings:
 Integral files         IntName         .... Ar_ano-rcc-tzp_
 Hartree-Fock type      HFTyp           .... RHF
 Total Charge           Charge          ....   16
 Multiplicity           Mult            ....    1
 Number of Electrons    NEL             ....    2
 Basis Dimension        Dim             ....   34
 Nuclear Repulsion      ENuc            ....      0.0000000000 Eh

Convergence Acceleration:
 DIIS                   CNVDIIS         .... on
   Start iteration      DIISMaxIt       ....    12
   Startup error        DIISStart       ....  0.200000
   # of expansion vecs  DIISMaxEq       ....     5
   Bias factor          DIISBfac        ....   1.050
   Max. coefficient     DIISMaxC        ....  10.000
 Newton-Raphson         CNVNR           .... off
 SOSCF                  CNVSOSCF        .... on
   Start iteration      SOSCFMaxIt      ....   150
   Startup grad/error   SOSCFStart      ....  0.003300
 Level Shifting         CNVShift        .... on
   Level shift para.    LevelShift      ....    0.2500
   Turn off err/grad.   ShiftErr        ....    0.0010
 Zerner damping         CNVZerner       .... off
 Static damping         CNVDamp         .... on
   Fraction old density DampFac         ....    0.7000
   Max. Damping (<1)    DampMax         ....    0.9800
   Min. Damping (>=0)   DampMin         ....    0.0000
   Turn off err/grad.   DampErr         ....    0.1000
 Fernandez-Rico         CNVRico         .... off

SCF Procedure:
 Maximum # iterations   MaxIter         ....   125
 SCF integral mode      SCFMode         .... Direct
   Integral package                     .... LIBINT
 Reset frequency        DirectResetFreq ....    20
 Integral Threshold     Thresh          ....  1.000e-12 Eh
 Primitive CutOff       TCut            ....  1.000e-14 Eh

Convergence Tolerance:
 Convergence Check Mode ConvCheckMode   .... Total+1el-Energy
 Convergence forced     ConvForced      .... 0
 Energy Change          TolE            ....  1.000e-09 Eh
 1-El. energy change                    ....  1.000e-06 Eh
 Orbital Gradient       TolG            ....  2.000e-06
 Orbital Rotation angle TolX            ....  2.000e-06
 DIIS Error             TolErr          ....  1.000e-08


Diagonalization of the overlap matrix:
Smallest eigenvalue                        ... 1.000e+00
Time for diagonalization                   ...    0.001 sec
Threshold for overlap eigenvalues          ... 1.000e-08
Number of eigenvalues below threshold      ... 0
Time for construction of square roots      ...    0.001 sec
Total time needed                          ...    0.002 sec

-------------------
DFT GRID GENERATION
-------------------

General Integration Accuracy     IntAcc      ...  5.010
Radial Grid Type                 RadialGrid  ... Gauss-Chebyshev
Angular Grid (max. acc.)         AngularGrid ... Lebedev-434
Angular grid pruning method      GridPruning ... 3 (G Style)
Weight generation scheme         WeightScheme... Becke
Basis function cutoff            BFCut       ...    1.0000e-12
Integration weight cutoff        WCut        ...    1.0000e-14
Grids for H and He will be reduced by one unit

# of grid points (after initial pruning)     ...  11992 (   0.0 sec)
# of grid points (after weights+screening)   ...  11992 (   0.0 sec)
Grid point division into batches done        ...    0.1 sec
Reduced shell lists constructed in    0.1 sec

Total number of grid points                  ...    11992
Total number of batches                      ...      188
Average number of points per batch           ...       63
Average number of grid points per atom       ...    11992
Average number of shells per batch           ...     6.67 (55.56%)
Average number of basis functions per batch  ...    16.33 (48.04%)
Average number of large shells per batch     ...     3.58 (53.75%)
Average number of large basis fcns per batch ...     9.08 (55.61%)
Maximum spatial batch extension              ...  18.71, 18.71, 18.71 au
Average spatial batch extension              ...   0.97,  0.98,  0.97 au

Time for grid setup =    0.157 sec

------------------------------
INITIAL GUESS: MODEL POTENTIAL
------------------------------
Loading Hartree-Fock densities                     ... done
Calculating cut-offs                               ... done
Setting up the integral package                    ... done
Initializing the effective Hamiltonian             ... done
Starting the Coulomb interaction                   ... done (   0.0 sec)
Reading the grid                                   ... done
Mapping shells                                     ... done
Starting the XC term evaluation                    ... done (   0.0 sec)
  promolecular density results
     # of electrons  =     17.999998971
     EX              =    -27.869847309
     EC              =     -1.431662733
     EX+EC           =    -29.301510042
Transforming the Hamiltonian                       ... done (   0.0 sec)
Diagonalizing the Hamiltonian                      ... done (   0.0 sec)
Back transforming the eigenvectors                 ... done (   0.0 sec)
Now organizing SCF variables                       ... done
                      ------------------
                      INITIAL GUESS DONE (   0.2 sec)
                      ------------------
--------------
SCF ITERATIONS
--------------
ITER       Energy         Delta-E        Max-DP      RMS-DP      [F,P]     Damp
               ***  Starting incremental Fock matrix formation  ***
  0   -311.0384359924   0.000000000000 0.00502303  0.00016421  1.8654046 0.7000
                      *** Initiating the SOSCF procedure ***
                      *** Re-Reading the Fockian *** 
                      *** Removing any level shift *** 
ITER      Energy       Delta-E        Grad      Rot      Max-DP    RMS-DP
  1   -311.04457442  -0.0061384262  0.000331  0.000331  0.011718  0.000383
               *** Restarting incremental Fock matrix formation ***
  2   -311.05877866  -0.0142042442  0.005568  0.000050  0.000092  0.000003
  3   -311.05877932  -0.0000006614  0.000044  0.000000  0.000001  0.000000
                 **** Energy Check signals convergence ****
              ***Rediagonalizing the Fockian in SOSCF/NRSCF***

               *****************************************************
               *                     SUCCESS                       *
               *           SCF CONVERGED AFTER   4 CYCLES          *
               *****************************************************

Setting up the final grid:

General Integration Accuracy     IntAcc      ...  5.340
Radial Grid Type                 RadialGrid  ... Gauss-Chebyshev
Angular Grid (max. acc.)         AngularGrid ... Lebedev-590
Angular grid pruning method      GridPruning ... 3 (G Style)
Weight generation scheme         WeightScheme... Becke
Basis function cutoff            BFCut       ...    1.0000e-12
Integration weight cutoff        WCut        ...    1.0000e-14
Grids for H and He will be reduced by one unit

# of grid points (after initial pruning)     ...  18110 (   0.0 sec)
# of grid points (after weights+screening)   ...  18110 (   0.0 sec)
Grid point division into batches done        ...    0.2 sec
Reduced shell lists constructed in    0.2 sec

Total number of grid points                  ...    18110
Total number of batches                      ...      283
Average number of points per batch           ...       63
Average number of grid points per atom       ...    18110
Average number of shells per batch           ...     2.35 (19.61%)
Average number of basis functions per batch  ...     5.88 (17.30%)
Average number of large shells per batch     ...     1.18 (50.00%)
Average number of large basis fcns per batch ...     3.53 (60.00%)
Maximum spatial batch extension              ...  19.03, 19.03, 19.03 au
Average spatial batch extension              ...   0.84,  0.84,  0.80 au

Final grid set up in    0.2 sec
Final integration                            ... done (   0.0 sec)
Change in XC energy                          ...     0.000014066
Integrated number of electrons               ...     2.000000249
Previous integrated no of electrons          ...     2.000000961

----------------
TOTAL SCF ENERGY
----------------

Total Energy       :         -311.05876526 Eh           -8464.33932 eV

Components:
Nuclear Repulsion  :            0.00000000 Eh               0.00000 eV
Electronic Energy  :         -311.05876526 Eh           -8464.33932 eV
One Electron Energy:         -323.42812609 Eh           -8800.92674 eV
Two Electron Energy:           12.36936083 Eh             336.58742 eV

Virial components:
Potential Energy   :         -630.56352004 Eh          -17158.50570 eV
Kinetic Energy     :          319.50475479 Eh            8694.16638 eV
Virial Ratio       :            1.97356537


DFT components:
N(Alpha)           :        1.000000124499 electrons
N(Beta)            :        1.000000124499 electrons
N(Total)           :        2.000000248997 electrons
E(X)               :       -9.487689595089 Eh       
E(C)               :       -0.237083380707 Eh       
E(XC)              :       -9.724772975797 Eh       
DFET-embed. en.    :        0.000000000000 Eh       

---------------
SCF CONVERGENCE
---------------

  Last Energy change         ...   -4.0416e-11  Tolerance :   1.0000e-09
  Last MAX-Density change    ...    0.0000e+00  Tolerance :   1.0000e-08
  Last RMS-Density change    ...    0.0000e+00  Tolerance :   1.0000e-09
  Last Orbital Gradient      ...    1.0349e-10  Tolerance :   2.0000e-06
  Last Orbital Rotation      ...    0.0000e+00  Tolerance :   2.0000e-06

================================================================================
                                        WARNING
Number of found core electrons (2) does not match given number of chemical core electrons (10)
================================================================================
             **** THE GBW FILE WAS UPDATED (Ar_ano-rcc-tzp_.gbw) ****
             **** DENSITY FILE WAS UPDATED (Ar_ano-rcc-tzp_.scfp) ****
             **** ENERGY FILE WAS UPDATED (Ar_ano-rcc-tzp_.en.tmp) ****
             **** THE GBW FILE WAS UPDATED (Ar_ano-rcc-tzp_.gbw) ****
             **** DENSITY FILE WAS UPDATED (Ar_ano-rcc-tzp_.scfp) ****
----------------
ORBITAL ENERGIES
----------------

  NO   OCC          E(Eh)            E(eV) 
   0   2.0000    -146.073158     -3974.8527 
   1   0.0000     -33.848773      -921.0720 
   2   0.0000     -32.765839      -891.6038 
   3   0.0000     -32.765839      -891.6038 
   4   0.0000     -32.765839      -891.6038 
   5   0.0000     -14.282032      -388.6339 
   6   0.0000     -13.463504      -366.3606 
   7   0.0000     -13.463504      -366.3606 
   8   0.0000     -13.463504      -366.3606 
   9   0.0000     -10.759701      -292.7864 
  10   0.0000     -10.759701      -292.7864 
  11   0.0000     -10.759701      -292.7864 
  12   0.0000     -10.759701      -292.7864 
  13   0.0000     -10.759701      -292.7864 
  14   0.0000      -7.847203      -213.5333 
  15   0.0000      -7.212926      -196.2737 
  16   0.0000      -7.212926      -196.2737 
  17   0.0000      -7.212926      -196.2737 
  18   0.0000      -7.115230      -193.6152 
  19   0.0000      -7.115230      -193.6152 
  20   0.0000      -7.115230      -193.6152 
  21   0.0000      -7.115230      -193.6152 
  22   0.0000      -7.115230      -193.6152 
  23   0.0000      -7.115230      -193.6152 
  24   0.0000      -7.115230      -193.6152 
  25   0.0000      -5.645688      -153.6270 
  26   0.0000      -5.645688      -153.6270 
  27   0.0000      -5.645688      -153.6270 
  28   0.0000      -5.645688      -153.6270 
  29   0.0000      -5.645688      -153.6270 
  30   0.0000      -4.872681      -132.5924 
  31   0.0000      -4.272556      -116.2622 
  32   0.0000      -4.272555      -116.2621 
  33   0.0000      -4.272555      -116.2621 

                    ********************************
                    * MULLIKEN POPULATION ANALYSIS *
                    ********************************

-----------------------
MULLIKEN ATOMIC CHARGES
-----------------------
   0 Ar:   16.000000
Sum of atomic charges:   16.0000000

--------------------------------
MULLIKEN REDUCED ORBITAL CHARGES
--------------------------------
  0 Ars       :     2.000000  s :     2.000000
      pz      :     0.000000  p :     0.000000
      px      :     0.000000
      py      :     0.000000
      dz2     :     0.000000  d :     0.000000
      dxz     :     0.000000
      dyz     :     0.000000
      dx2y2   :     0.000000
      dxy     :     0.000000
      f0      :     0.000000  f :     0.000000
      f+1     :     0.000000
      f-1     :     0.000000
      f+2     :     0.000000
      f-2     :     0.000000
      f+3     :     0.000000
      f-3     :     0.000000


                     *******************************
                     * LOEWDIN POPULATION ANALYSIS *
                     *******************************

----------------------
LOEWDIN ATOMIC CHARGES
----------------------
   0 Ar:   16.000000

-------------------------------
LOEWDIN REDUCED ORBITAL CHARGES
-------------------------------
  0 Ars       :     2.000000  s :     2.000000
      pz      :     0.000000  p :     0.000000
      px      :     0.000000
      py      :     0.000000
      dz2     :     0.000000  d :     0.000000
      dxz     :     0.000000
      dyz     :     0.000000
      dx2y2   :     0.000000
      dxy     :     0.000000
      f0      :     0.000000  f :     0.000000
      f+1     :     0.000000
      f-1     :     0.000000
      f+2     :     0.000000
      f-2     :     0.000000
      f+3     :     0.000000
      f-3     :     0.000000


                      *****************************
                      * MAYER POPULATION ANALYSIS *
                      *****************************

  NA   - Mulliken gross atomic population
  ZA   - Total nuclear charge
  QA   - Mulliken gross atomic charge
  VA   - Mayer's total valence
  BVA  - Mayer's bonded valence
  FA   - Mayer's free valence

  ATOM       NA         ZA         QA         VA         BVA        FA
  0 Ar     2.0000    18.0000    16.0000    -0.0000     0.0000    -0.0000

  Mayer bond orders larger than 0.100000


--------------------------
ATOM BASIS FOR ELEMENT Ar
--------------------------
 NewGTO Ar
 S 85
    1     455476.770000000019         0.000319857283
    2      64817.743000000002         0.001011611406
    3      19256.987000000001         0.002170201563
    4       6877.007300000000         0.005962899341
    5       2643.487700000000         0.015907984851
    6       1054.237500000000         0.044046515797
    7        429.371220000000         0.114459247595
    8        177.188590000000         0.254626506785
    9         73.763945000000         0.398474274706
   10         30.897007000000         0.278947590162
   11         12.999482000000         0.038335014320
   12          5.487679300000         0.003118583506
   13          2.322571600000        -0.001384658236
   14          0.984980700000         0.001002731481
   15          0.418397300000        -0.000643174536
   16          0.177959400000         0.000282017604
   17          0.071183800000        -0.000076279352
   18     455476.770000000019         0.000000367540
   19      64817.743000000002         0.000001164016
   20      19256.987000000001         0.000002504111
   21       6877.007300000000         0.000006903101
   22       2643.487700000000         0.000018596785
   23       1054.237500000000         0.000052429977
   24        429.371220000000         0.000142708494
   25        177.188590000000         0.000351640358
   26         73.763945000000         0.000701657688
   27         30.897007000000         0.000746074034
   28         12.999482000000        -0.000549758859
   29          5.487679300000        -0.002548518100
   30          2.322571600000        -0.001533987302
   31          0.984980700000        -0.000019977237
   32          0.418397300000        -0.000047107340
   33          0.177959400000         0.000017892786
   34          0.071183800000        -0.000005185106
   35     455476.770000000019         0.000000018670
   36      64817.743000000002         0.000000059079
   37      19256.987000000001         0.000000127560
   38       6877.007300000000         0.000000349571
   39       2643.487700000000         0.000000950762
   40       1054.237500000000         0.000002658363
   41        429.371220000000         0.000007348000
   42        177.188590000000         0.000018079633
   43         73.763945000000         0.000037556632
   44         30.897007000000         0.000040784438
   45         12.999482000000        -0.000031484605
   46          5.487679300000        -0.000213172625
   47          2.322571600000        -0.000225712979
   48          0.984980700000         0.000221490412
   49          0.418397300000         0.000439864382
   50          0.177959400000         0.000165290413
   51          0.071183800000         0.000002932374
   52     455476.770000000019         0.000000018613
   53      64817.743000000002         0.000000058882
   54      19256.987000000001         0.000000127229
   55       6877.007300000000         0.000000348488
   56       2643.487700000000         0.000000948571
   57       1054.237500000000         0.000002654985
   58        429.371220000000         0.000007351553
   59        177.188590000000         0.000018189002
   60         73.763945000000         0.000038254145
   61         30.897007000000         0.000042523306
   62         12.999482000000        -0.000046522827
   63          5.487679300000        -0.000224111370
   64          2.322571600000        -0.000359032897
   65          0.984980700000         0.001021452069
   66          0.418397300000         0.000001437204
   67          0.177959400000        -0.000637995699
   68          0.071183800000        -0.000024717931
   69     455476.770000000019         0.000000018813
   70      64817.743000000002         0.000000056870
   71      19256.987000000001         0.000000140982
   72       6877.007300000000         0.000000293535
   73       2643.487700000000         0.000001145426
   74       1054.237500000000         0.000002079070
   75        429.371220000000         0.000009127303
   76        177.188590000000         0.000013829917
   77         73.763945000000         0.000052498366
   78         30.897007000000         0.000011333962
   79         12.999482000000         0.000014151108
   80          5.487679300000        -0.000503703668
   81          2.322571600000         0.000265573388
   82          0.984980700000         0.001075684581
   83          0.418397300000        -0.001706661578
   84          0.177959400000         0.000800627334
   85          0.071183800000         0.000094695502
 S 84
    1     455476.770000000019        -0.000001314817
    2      64817.743000000002        -0.000004158367
    3      19256.987000000001        -0.000008920910
    4       6877.007300000000        -0.000024511313
    5       2643.487700000000        -0.000065391945
    6       1054.237500000000        -0.000181059222
    7        429.371220000000        -0.000470500377
    8        177.188590000000        -0.001046677048
    9         73.763945000000        -0.001637982954
   10         30.897007000000        -0.001146652185
   11         12.999482000000        -0.000157581314
   12          5.487679300000        -0.000012819364
   13          2.322571600000         0.000005691827
   14          0.984980700000        -0.000004121865
   15          0.418397300000         0.000002643857
   16          0.177959400000        -0.000001159272
   17     455476.770000000019         0.000090487533
   18      64817.743000000002         0.000286578456
   19      19256.987000000001         0.000616507490
   20       6877.007300000000         0.001699530461
   21       2643.487700000000         0.004578493203
   22       1054.237500000000         0.012908160783
   23        429.371220000000         0.035134560256
   24        177.188590000000         0.086573188548
   25         73.763945000000         0.172746790556
   26         30.897007000000         0.183682010717
   27         12.999482000000        -0.135349587212
   28          5.487679300000        -0.627440317346
   29          2.322571600000        -0.377664761162
   30          0.984980700000        -0.004918357773
   31          0.418397300000        -0.011597737590
   32          0.177959400000         0.004405169983
   33          0.071183800000        -0.001276563279
   34     455476.770000000019         0.000002789511
   35      64817.743000000002         0.000008826857
   36      19256.987000000001         0.000019058601
   37       6877.007300000000         0.000052228787
   38       2643.487700000000         0.000142051801
   39       1054.237500000000         0.000397181546
   40        429.371220000000         0.001097852394
   41        177.188590000000         0.002701247871
   42         73.763945000000         0.005611273873
   43         30.897007000000         0.006093535011
   44         12.999482000000        -0.004704062484
   45          5.487679300000        -0.031849767100
   46          2.322571600000        -0.033723400643
   47          0.984980700000         0.033092513875
   48          0.418397300000         0.065719405257
   49          0.177959400000         0.024695765507
   50          0.071183800000         0.000438121064
   51     455476.770000000019         0.000002939134
   52      64817.743000000002         0.000009297787
   53      19256.987000000001         0.000020090106
   54       6877.007300000000         0.000055028261
   55       2643.487700000000         0.000149784758
   56       1054.237500000000         0.000419237194
   57        429.371220000000         0.001160851890
   58        177.188590000000         0.002872146516
   59         73.763945000000         0.006040546338
   60         30.897007000000         0.006714671158
   61         12.999482000000        -0.007346218141
   62          5.487679300000        -0.035388455896
   63          2.322571600000        -0.056693329867
   64          0.984980700000         0.161293072555
   65          0.418397300000         0.000226942612
   66          0.177959400000        -0.100743137926
   67          0.071183800000        -0.003903101442
   68     455476.770000000019         0.000003524864
   69      64817.743000000002         0.000010655315
   70      19256.987000000001         0.000026414572
   71       6877.007300000000         0.000054997108
   72       2643.487700000000         0.000214608497
   73       1054.237500000000         0.000389537094
   74        429.371220000000         0.001710102698
   75        177.188590000000         0.002591190378
   76         73.763945000000         0.009836158723
   77         30.897007000000         0.002123545060
   78         12.999482000000         0.002651369075
   79          5.487679300000        -0.094374541373
   80          2.322571600000         0.049758157924
   81          0.984980700000         0.201541591641
   82          0.418397300000        -0.319762221097
   83          0.177959400000         0.150006526193
   84          0.071183800000         0.017742266292
 S 82
    1     455476.770000000019         0.000000105842
    2      64817.743000000002         0.000000334747
    3      19256.987000000001         0.000000718131
    4       6877.007300000000         0.000001973153
    5       2643.487700000000         0.000005264032
    6       1054.237500000000         0.000014575214
    7        429.371220000000         0.000037875141
    8        177.188590000000         0.000084257192
    9         73.763945000000         0.000131857142
   10         30.897007000000         0.000092305161
   11         12.999482000000         0.000012685249
   12          5.487679300000         0.000001031955
   13          2.322571600000        -0.000000458190
   14          0.984980700000         0.000000331809
   15     455476.770000000019         0.000013411428
   16      64817.743000000002         0.000042474650
   17      19256.987000000001         0.000091374419
   18       6877.007300000000         0.000251892492
   19       2643.487700000000         0.000678592169
   20       1054.237500000000         0.001913157110
   21        429.371220000000         0.005207398242
   22        177.188590000000         0.012831271163
   23         73.763945000000         0.025603318410
   24         30.897007000000         0.027224060091
   25         12.999482000000        -0.020060567070
   26          5.487679300000        -0.092994805730
   27          2.322571600000        -0.055974823620
   28          0.984980700000        -0.000728964513
   29          0.418397300000        -0.001718935370
   30          0.177959400000         0.000652903416
   31          0.071183800000        -0.000189203261
   32     455476.770000000019        -0.000022210115
   33      64817.743000000002        -0.000070279533
   34      19256.987000000001        -0.000151744790
   35       6877.007300000000        -0.000415846179
   36       2643.487700000000        -0.001131018021
   37       1054.237500000000        -0.003162363878
   38        429.371220000000        -0.008741112958
   39        177.188590000000        -0.021507365558
   40         73.763945000000        -0.044677024916
   41         30.897007000000        -0.048516793455
   42         12.999482000000         0.037453797759
   43          5.487679300000         0.253588199506
   44          2.322571600000         0.268506090588
   45          0.984980700000        -0.263482963138
   46          0.418397300000        -0.523258634812
   47          0.177959400000        -0.196627959337
   48          0.071183800000        -0.003488324778
   49     455476.770000000019        -0.000018179642
   50      64817.743000000002        -0.000057510292
   51      19256.987000000001        -0.000124264831
   52       6877.007300000000        -0.000340370404
   53       2643.487700000000        -0.000926474831
   54       1054.237500000000        -0.002593139071
   55        429.371220000000        -0.007180303745
   56        177.188590000000        -0.017765301984
   57         73.763945000000        -0.037363041626
   58         30.897007000000        -0.041532756130
   59         12.999482000000         0.045439110771
   60          5.487679300000         0.218890854674
   61          2.322571600000         0.350669480059
   62          0.984980700000        -0.997658067042
   63          0.418397300000        -0.001403725055
   64          0.177959400000         0.623134042021
   65          0.071183800000         0.024142144349
   66     455476.770000000019        -0.000014840304
   67      64817.743000000002        -0.000044860765
   68      19256.987000000001        -0.000111210031
   69       6877.007300000000        -0.000231547576
   70       2643.487700000000        -0.000903539826
   71       1054.237500000000        -0.001640020235
   72        429.371220000000        -0.007199835586
   73        177.188590000000        -0.010909370950
   74         73.763945000000        -0.041411972319
   75         30.897007000000        -0.008940501239
   76         12.999482000000        -0.011162733934
   77          5.487679300000         0.397333553186
   78          2.322571600000        -0.209490667718
   79          0.984980700000        -0.848525837121
   80          0.418397300000         1.346255649400
   81          0.177959400000        -0.631554073651
   82          0.071183800000        -0.074698087056
 S 79
    1     455476.770000000019         0.000000001300
    2      64817.743000000002         0.000000004111
    3      19256.987000000001         0.000000008819
    4       6877.007300000000         0.000000024231
    5       2643.487700000000         0.000000064643
    6       1054.237500000000         0.000000178986
    7        429.371220000000         0.000000465113
    8        177.188590000000         0.000001034693
    9         73.763945000000         0.000001619229
   10         30.897007000000         0.000001133524
   11         12.999482000000         0.000000155777
   12     455476.770000000019         0.000002810628
   13      64817.743000000002         0.000008901398
   14      19256.987000000001         0.000019149305
   15       6877.007300000000         0.000052789022
   16       2643.487700000000         0.000142212325
   17       1054.237500000000         0.000400939671
   18        429.371220000000         0.001091312641
   19        177.188590000000         0.002689045040
   20         73.763945000000         0.005365678545
   21         30.897007000000         0.005705336816
   22         12.999482000000        -0.004204086072
   23          5.487679300000        -0.019488889132
   24          2.322571600000        -0.011730624342
   25          0.984980700000        -0.000152768840
   26          0.418397300000        -0.000360236688
   27          0.177959400000         0.000136828742
   28          0.071183800000        -0.000039651262
   29     455476.770000000019         0.000017929408
   30      64817.743000000002         0.000056734079
   31      19256.987000000001         0.000122497980
   32       6877.007300000000         0.000335697304
   33       2643.487700000000         0.000913029191
   34       1054.237500000000         0.002552859883
   35        429.371220000000         0.007056378539
   36        177.188590000000         0.017362104057
   37         73.763945000000         0.036066116674
   38         30.897007000000         0.039165820389
   39         12.999482000000        -0.030235071436
   40          5.487679300000        -0.204712413322
   41          2.322571600000        -0.216755077338
   42          0.984980700000         0.212700091559
   43          0.418397300000         0.422407423265
   44          0.177959400000         0.158730509388
   45          0.071183800000         0.002815996112
   46     455476.770000000019        -0.000018511612
   47      64817.743000000002        -0.000058560458
   48      19256.987000000001        -0.000126533968
   49       6877.007300000000        -0.000346585736
   50       2643.487700000000        -0.000943392720
   51       1054.237500000000        -0.002640491074
   52        429.371220000000        -0.007311419644
   53        177.188590000000        -0.018089705188
   54         73.763945000000        -0.038045309252
   55         30.897007000000        -0.042291164806
   56         12.999482000000         0.046268851416
   57          5.487679300000         0.222887909981
   58          2.322571600000         0.357072878265
   59          0.984980700000        -1.015875796958
   60          0.418397300000        -0.001429357769
   61          0.177959400000         0.634512777936
   62          0.071183800000         0.024582991849
   63     455476.770000000019        -0.000025953859
   64      64817.743000000002        -0.000078455940
   65      19256.987000000001        -0.000194492616
   66       6877.007300000000        -0.000404948129
   67       2643.487700000000        -0.001580179625
   68       1054.237500000000        -0.002868192950
   69        429.371220000000        -0.012591623701
   70        177.188590000000        -0.019079143151
   71         73.763945000000        -0.072424427742
   72         30.897007000000        -0.015635833062
   73         12.999482000000        -0.019522243736
   74          5.487679300000         0.694887338140
   75          2.322571600000        -0.366373318559
   76          0.984980700000        -1.483966948101
   77          0.418397300000         2.354434950599
   78          0.177959400000        -1.104510116530
   79          0.071183800000        -0.130637733618
 S 80
    1     455476.770000000019        -0.000000006405
    2      64817.743000000002        -0.000000020256
    3      19256.987000000001        -0.000000043455
    4       6877.007300000000        -0.000000119399
    5       2643.487700000000        -0.000000318536
    6       1054.237500000000        -0.000000881973
    7        429.371220000000        -0.000002291895
    8        177.188590000000        -0.000005098559
    9         73.763945000000        -0.000007978921
   10         30.897007000000        -0.000005585557
   11         12.999482000000        -0.000000767608
   12          5.487679300000        -0.000000062446
   13     455476.770000000019         0.000001358683
   14      64817.743000000002         0.000004303016
   15      19256.987000000001         0.000009256948
   16       6877.007300000000         0.000025518691
   17       2643.487700000000         0.000068746726
   18       1054.237500000000         0.000193817869
   19        429.371220000000         0.000527550416
   20        177.188590000000         0.001299908730
   21         73.763945000000         0.002593817612
   22         30.897007000000         0.002758011497
   23         12.999482000000        -0.002032293289
   24          5.487679300000        -0.009421105541
   25          2.322571600000        -0.005670690065
   26          0.984980700000        -0.000073849841
   27          0.418397300000        -0.000174141678
   28          0.177959400000         0.000066144253
   29          0.071183800000        -0.000019167779
   30     455476.770000000019        -0.000003640538
   31      64817.743000000002        -0.000011519767
   32      19256.987000000001        -0.000024873025
   33       6877.007300000000        -0.000068162816
   34       2643.487700000000        -0.000185389159
   35       1054.237500000000        -0.000518354234
   36        429.371220000000        -0.001432786702
   37        177.188590000000        -0.003525348260
   38         73.763945000000        -0.007323168969
   39         30.897007000000        -0.007952558993
   40         12.999482000000         0.006139184291
   41          5.487679300000         0.041566537544
   42          2.322571600000         0.044011781766
   43          0.984980700000        -0.043188423202
   44          0.418397300000        -0.085769171165
   45          0.177959400000        -0.032229983374
   46          0.071183800000        -0.000571783636
   47     455476.770000000019         0.000021993672
   48      64817.743000000002         0.000069575762
   49      19256.987000000001         0.000150335184
   50       6877.007300000000         0.000411778996
   51       2643.487700000000         0.001120846206
   52       1054.237500000000         0.003137171127
   53        429.371220000000         0.008686707876
   54        177.188590000000         0.021492403963
   55         73.763945000000         0.045201684982
   56         30.897007000000         0.050246191887
   57         12.999482000000        -0.054972086896
   58          5.487679300000        -0.264813436699
   59          2.322571600000        -0.424238784659
   60          0.984980700000         1.206963451157
   61          0.418397300000         0.001698221959
   62          0.177959400000        -0.753865516389
   63          0.071183800000        -0.029207086901
   64     455476.770000000019        -0.000034582656
   65      64817.743000000002        -0.000104539936
   66      19256.987000000001        -0.000259154955
   67       6877.007300000000        -0.000539579940
   68       2643.487700000000        -0.002105536896
   69       1054.237500000000        -0.003821771897
   70        429.371220000000        -0.016777920609
   71        177.188590000000        -0.025422324927
   72         73.763945000000        -0.096503145875
   73         30.897007000000        -0.020834228532
   74         12.999482000000        -0.026012741748
   75          5.487679300000         0.925914311656
   76          2.322571600000        -0.488180285412
   77          0.984980700000        -1.977336698851
   78          0.418397300000         3.137206417456
   79          0.177959400000        -1.471723066650
   80          0.071183800000        -0.174070443596
 P 48
    1       1462.496200000000         0.000947127750
    2        354.067310000000         0.006111883446
    3        126.697790000000         0.025364715125
    4         49.989095000000         0.091562936846
    5         20.509295000000         0.240197354232
    6          8.580464100000         0.409939350418
    7          3.630104900000         0.338870883753
    8          1.546528000000         0.071806176363
    9          0.661936900000         0.003460282228
   10          0.284242800000         0.000285923686
   11          0.122346300000         0.000468782888
   12          0.048938500000        -0.000084157183
   13       1462.496200000000         0.000028290631
   14        354.067310000000         0.000183314295
   15        126.697790000000         0.000767181917
   16         49.989095000000         0.002828894726
   17         20.509295000000         0.007666170695
   18          8.580464100000         0.013748306261
   19          3.630104900000         0.011364326403
   20          1.546528000000        -0.016687322179
   21          0.661936900000        -0.046062417383
   22          0.284242800000        -0.042253467140
   23          0.122346300000        -0.015114016387
   24          0.048938500000        -0.000696955215
   25       1462.496200000000         0.000033121486
   26        354.067310000000         0.000201462201
   27        126.697790000000         0.000916955435
   28         49.989095000000         0.003120225693
   29         20.509295000000         0.009469654964
   30          8.580464100000         0.014159749179
   31          3.630104900000         0.017279033482
   32          1.546528000000        -0.044316760973
   33          0.661936900000        -0.072424658182
   34          0.284242800000         0.050248492060
   35          0.122346300000         0.059527338424
   36          0.048938500000         0.006126884104
   37       1462.496200000000         0.000050121450
   38        354.067310000000         0.000293514879
   39        126.697790000000         0.001419926428
   40         49.989095000000         0.004615902807
   41         20.509295000000         0.015559283138
   42          8.580464100000         0.018359480427
   43          3.630104900000         0.025006450382
   44          1.546528000000        -0.147658669546
   45          0.661936900000         0.071851820808
   46          0.284242800000         0.110025096280
   47          0.122346300000        -0.108944696687
   48          0.048938500000        -0.011639903095
 P 48
    1       1462.496200000000        -0.000164376403
    2        354.067310000000        -0.001060732746
    3        126.697790000000        -0.004402110111
    4         49.989095000000        -0.015890978002
    5         20.509295000000        -0.041686855007
    6          8.580464100000        -0.071146005406
    7          3.630104900000        -0.058811894254
    8          1.546528000000        -0.012462142525
    9          0.661936900000        -0.000600540684
   10          0.284242800000        -0.000049622775
   11          0.122346300000        -0.000081358449
   12          0.048938500000         0.000014605691
   13       1462.496200000000         0.000190964639
   14        354.067310000000         0.001237390167
   15        126.697790000000         0.005178556107
   16         49.989095000000         0.019095327623
   17         20.509295000000         0.051747433267
   18          8.580464100000         0.092802468027
   19          3.630104900000         0.076710361091
   20          1.546528000000        -0.112641124918
   21          0.661936900000        -0.310926010462
   22          0.284242800000        -0.285215208241
   23          0.122346300000        -0.102021150524
   24          0.048938500000        -0.004704518712
   25       1462.496200000000         0.000189143154
   26        354.067310000000         0.001150467606
   27        126.697790000000         0.005236354601
   28         49.989095000000         0.017818323047
   29         20.509295000000         0.054077296938
   30          8.580464100000         0.080860492149
   31          3.630104900000         0.098673439311
   32          1.546528000000        -0.253074758423
   33          0.661936900000        -0.413587375762
   34          0.284242800000         0.286948430118
   35          0.122346300000         0.339936097771
   36          0.048938500000         0.034988110152
   37       1462.496200000000         0.000208570137
   38        354.067310000000         0.001221401973
   39        126.697790000000         0.005908732616
   40         49.989095000000         0.019208132843
   41         20.509295000000         0.064746765682
   42          8.580464100000         0.076399212405
   43          3.630104900000         0.104059214624
   44          1.546528000000        -0.614451269610
   45          0.661936900000         0.298996616013
   46          0.284242800000         0.457846872831
   47          0.122346300000        -0.453351011509
   48          0.048938500000        -0.048437069470
 P 47
    1       1462.496200000000        -0.000028385341
    2        354.067310000000        -0.000183172648
    3        126.697790000000        -0.000760178443
    4         49.989095000000        -0.002744133747
    5         20.509295000000        -0.007198695111
    6          8.580464100000        -0.012285848888
    7          3.630104900000        -0.010155932740
    8          1.546528000000        -0.002152025248
    9          0.661936900000        -0.000103704376
   10          0.284242800000        -0.000008569110
   11          0.122346300000        -0.000014049385
   12       1462.496200000000        -0.000187997374
   13        354.067310000000        -0.001218163231
   14        126.697790000000        -0.005098090164
   15         49.989095000000        -0.018798618753
   16         20.509295000000        -0.050943366284
   17          8.580464100000        -0.091360475725
   18          3.630104900000        -0.075518412725
   19          1.546528000000         0.110890873675
   20          0.661936900000         0.306094749796
   21          0.284242800000         0.280783449654
   22          0.122346300000         0.100435915596
   23          0.048938500000         0.004631418503
   24       1462.496200000000         0.000121077309
   25        354.067310000000         0.000736455532
   26        126.697790000000         0.003351978181
   27         49.989095000000         0.011406146951
   28         20.509295000000         0.034616815170
   29          8.580464100000         0.051761697974
   30          3.630104900000         0.063164403628
   31          1.546528000000        -0.162002219651
   32          0.661936900000        -0.264752096616
   33          0.284242800000         0.183685970478
   34          0.122346300000         0.217605274906
   35          0.048938500000         0.022397142810
   36       1462.496200000000         0.000318957041
   37        354.067310000000         0.001867835756
   38        126.697790000000         0.009035962196
   39         49.989095000000         0.029374143918
   40         20.509295000000         0.099014351315
   41          8.580464100000         0.116833920236
   42          3.630104900000         0.159133132377
   43          1.546528000000        -0.939653019484
   44          0.661936900000         0.457242237013
   45          0.284242800000         0.700164875221
   46          0.122346300000        -0.693289554305
   47          0.048938500000        -0.074072657725
 P 47
    1       1462.496200000000        -0.000012794285
    2        354.067310000000        -0.000082562439
    3        126.697790000000        -0.000342639508
    4         49.989095000000        -0.001236878850
    5         20.509295000000        -0.003244708366
    6          8.580464100000        -0.005537669822
    7          3.630104900000        -0.004577640728
    8          1.546528000000        -0.000969994453
    9          0.661936900000        -0.000046743257
   10          0.284242800000        -0.000003862403
   11          0.122346300000        -0.000006332558
   12       1462.496200000000         0.000057926847
   13        354.067310000000         0.000375347561
   14        126.697790000000         0.001570853281
   15         49.989095000000         0.005792340071
   16         20.509295000000         0.015696967195
   17          8.580464100000         0.028150522728
   18          3.630104900000         0.023269173862
   19          1.546528000000        -0.034168342874
   20          0.661936900000        -0.094315699897
   21          0.284242800000        -0.086516634445
   22          0.122346300000        -0.030946900202
   23          0.048938500000        -0.001427059686
   24       1462.496200000000        -0.000246767522
   25        354.067310000000        -0.001500969158
   26        126.697790000000        -0.006831662812
   27         49.989095000000        -0.023246854766
   28         20.509295000000        -0.070552490532
   29          8.580464100000        -0.105495456131
   30          3.630104900000        -0.128735297194
   31          1.546528000000         0.330176534491
   32          0.661936900000         0.539590938619
   33          0.284242800000        -0.374370161703
   34          0.122346300000        -0.443501056406
   35          0.048938500000        -0.045647590579
   36       1462.496200000000         0.000323090204
   37        354.067310000000         0.001892039864
   38        126.697790000000         0.009153053543
   39         49.989095000000         0.029754784961
   40         20.509295000000         0.100297415973
   41          8.580464100000         0.118347897471
   42          3.630104900000         0.161195238480
   43          1.546528000000        -0.951829391535
   44          0.661936900000         0.463167351369
   45          0.284242800000         0.709237871147
   46          0.122346300000        -0.702273457275
   47          0.048938500000        -0.075032518674
 D 10
    1          4.328841700000         0.023696795819
    2          1.774230200000         0.164645982561
    3          0.727190600000         0.511795015900
    4          0.298048200000         0.259267690188
    5          0.119219300000         0.024473859190
    6          4.328841700000        -0.069706091630
    7          1.774230200000         0.386954219649
    8          0.727190600000         0.171176964892
    9          0.298048200000        -0.503790029191
   10          0.119219300000        -0.036194342161
 D 10
    1          4.328841700000        -0.014700295105
    2          1.774230200000        -0.102138050648
    3          0.727190600000        -0.317491775033
    4          0.298048200000        -0.160836578336
    5          0.119219300000        -0.015182345968
    6          4.328841700000        -0.112365841879
    7          1.774230200000         0.623768104657
    8          0.727190600000         0.275936339571
    9          0.298048200000        -0.812106796351
   10          0.119219300000        -0.058345083378
 F 4
    1          1.631174000000         0.245409970118
    2          0.820328800000         0.580760500278
    3          0.412549100000         0.264213740127
    4          0.165019600000         0.038934170019
 end
  // -----------------------------------------------
  // The basis set
  // -----------------------------------------------
  BAS[ATNO] = new BFNGauss[NSH];
  // Basis function   1 L = s
  InitBFNGauss(BAS[ATNO][  0]);
  BAS[ATNO][  0].l  = 0;
  BAS[ATNO][  0].ng = 85;
  BAS[ATNO][  0].a[  0] =    455476.770000000019;     BAS[ATNO][  0].d[  0] =         0.000319857283;
  BAS[ATNO][  0].a[  1] =     64817.743000000002;     BAS[ATNO][  0].d[  1] =         0.001011611406;
  BAS[ATNO][  0].a[  2] =     19256.987000000001;     BAS[ATNO][  0].d[  2] =         0.002170201563;
  BAS[ATNO][  0].a[  3] =      6877.007300000000;     BAS[ATNO][  0].d[  3] =         0.005962899341;
  BAS[ATNO][  0].a[  4] =      2643.487700000000;     BAS[ATNO][  0].d[  4] =         0.015907984851;
  BAS[ATNO][  0].a[  5] =      1054.237500000000;     BAS[ATNO][  0].d[  5] =         0.044046515797;
  BAS[ATNO][  0].a[  6] =       429.371220000000;     BAS[ATNO][  0].d[  6] =         0.114459247595;
  BAS[ATNO][  0].a[  7] =       177.188590000000;     BAS[ATNO][  0].d[  7] =         0.254626506785;
  BAS[ATNO][  0].a[  8] =        73.763945000000;     BAS[ATNO][  0].d[  8] =         0.398474274706;
  BAS[ATNO][  0].a[  9] =        30.897007000000;     BAS[ATNO][  0].d[  9] =         0.278947590162;
  BAS[ATNO][  0].a[ 10] =        12.999482000000;     BAS[ATNO][  0].d[ 10] =         0.038335014320;
  BAS[ATNO][  0].a[ 11] =         5.487679300000;     BAS[ATNO][  0].d[ 11] =         0.003118583506;
  BAS[ATNO][  0].a[ 12] =         2.322571600000;     BAS[ATNO][  0].d[ 12] =        -0.001384658236;
  BAS[ATNO][  0].a[ 13] =         0.984980700000;     BAS[ATNO][  0].d[ 13] =         0.001002731481;
  BAS[ATNO][  0].a[ 14] =         0.418397300000;     BAS[ATNO][  0].d[ 14] =        -0.000643174536;
  BAS[ATNO][  0].a[ 15] =         0.177959400000;     BAS[ATNO][  0].d[ 15] =         0.000282017604;
  BAS[ATNO][  0].a[ 16] =         0.071183800000;     BAS[ATNO][  0].d[ 16] =        -0.000076279352;
  BAS[ATNO][  0].a[ 17] =    455476.770000000019;     BAS[ATNO][  0].d[ 17] =         0.000000367540;
  BAS[ATNO][  0].a[ 18] =     64817.743000000002;     BAS[ATNO][  0].d[ 18] =         0.000001164016;
  BAS[ATNO][  0].a[ 19] =     19256.987000000001;     BAS[ATNO][  0].d[ 19] =         0.000002504111;
  BAS[ATNO][  0].a[ 20] =      6877.007300000000;     BAS[ATNO][  0].d[ 20] =         0.000006903101;
  BAS[ATNO][  0].a[ 21] =      2643.487700000000;     BAS[ATNO][  0].d[ 21] =         0.000018596785;
  BAS[ATNO][  0].a[ 22] =      1054.237500000000;     BAS[ATNO][  0].d[ 22] =         0.000052429977;
  BAS[ATNO][  0].a[ 23] =       429.371220000000;     BAS[ATNO][  0].d[ 23] =         0.000142708494;
  BAS[ATNO][  0].a[ 24] =       177.188590000000;     BAS[ATNO][  0].d[ 24] =         0.000351640358;
  BAS[ATNO][  0].a[ 25] =        73.763945000000;     BAS[ATNO][  0].d[ 25] =         0.000701657688;
  BAS[ATNO][  0].a[ 26] =        30.897007000000;     BAS[ATNO][  0].d[ 26] =         0.000746074034;
  BAS[ATNO][  0].a[ 27] =        12.999482000000;     BAS[ATNO][  0].d[ 27] =        -0.000549758859;
  BAS[ATNO][  0].a[ 28] =         5.487679300000;     BAS[ATNO][  0].d[ 28] =        -0.002548518100;
  BAS[ATNO][  0].a[ 29] =         2.322571600000;     BAS[ATNO][  0].d[ 29] =        -0.001533987302;
  BAS[ATNO][  0].a[ 30] =         0.984980700000;     BAS[ATNO][  0].d[ 30] =        -0.000019977237;
  BAS[ATNO][  0].a[ 31] =         0.418397300000;     BAS[ATNO][  0].d[ 31] =        -0.000047107340;
  BAS[ATNO][  0].a[ 32] =         0.177959400000;     BAS[ATNO][  0].d[ 32] =         0.000017892786;
  BAS[ATNO][  0].a[ 33] =         0.071183800000;     BAS[ATNO][  0].d[ 33] =        -0.000005185106;
  BAS[ATNO][  0].a[ 34] =    455476.770000000019;     BAS[ATNO][  0].d[ 34] =         0.000000018670;
  BAS[ATNO][  0].a[ 35] =     64817.743000000002;     BAS[ATNO][  0].d[ 35] =         0.000000059079;
  BAS[ATNO][  0].a[ 36] =     19256.987000000001;     BAS[ATNO][  0].d[ 36] =         0.000000127560;
  BAS[ATNO][  0].a[ 37] =      6877.007300000000;     BAS[ATNO][  0].d[ 37] =         0.000000349571;
  BAS[ATNO][  0].a[ 38] =      2643.487700000000;     BAS[ATNO][  0].d[ 38] =         0.000000950762;
  BAS[ATNO][  0].a[ 39] =      1054.237500000000;     BAS[ATNO][  0].d[ 39] =         0.000002658363;
  BAS[ATNO][  0].a[ 40] =       429.371220000000;     BAS[ATNO][  0].d[ 40] =         0.000007348000;
  BAS[ATNO][  0].a[ 41] =       177.188590000000;     BAS[ATNO][  0].d[ 41] =         0.000018079633;
  BAS[ATNO][  0].a[ 42] =        73.763945000000;     BAS[ATNO][  0].d[ 42] =         0.000037556632;
  BAS[ATNO][  0].a[ 43] =        30.897007000000;     BAS[ATNO][  0].d[ 43] =         0.000040784438;
  BAS[ATNO][  0].a[ 44] =        12.999482000000;     BAS[ATNO][  0].d[ 44] =        -0.000031484605;
  BAS[ATNO][  0].a[ 45] =         5.487679300000;     BAS[ATNO][  0].d[ 45] =        -0.000213172625;
  BAS[ATNO][  0].a[ 46] =         2.322571600000;     BAS[ATNO][  0].d[ 46] =        -0.000225712979;
  BAS[ATNO][  0].a[ 47] =         0.984980700000;     BAS[ATNO][  0].d[ 47] =         0.000221490412;
  BAS[ATNO][  0].a[ 48] =         0.418397300000;     BAS[ATNO][  0].d[ 48] =         0.000439864382;
  BAS[ATNO][  0].a[ 49] =         0.177959400000;     BAS[ATNO][  0].d[ 49] =         0.000165290413;
  BAS[ATNO][  0].a[ 50] =         0.071183800000;     BAS[ATNO][  0].d[ 50] =         0.000002932374;
  BAS[ATNO][  0].a[ 51] =    455476.770000000019;     BAS[ATNO][  0].d[ 51] =         0.000000018613;
  BAS[ATNO][  0].a[ 52] =     64817.743000000002;     BAS[ATNO][  0].d[ 52] =         0.000000058882;
  BAS[ATNO][  0].a[ 53] =     19256.987000000001;     BAS[ATNO][  0].d[ 53] =         0.000000127229;
  BAS[ATNO][  0].a[ 54] =      6877.007300000000;     BAS[ATNO][  0].d[ 54] =         0.000000348488;
  BAS[ATNO][  0].a[ 55] =      2643.487700000000;     BAS[ATNO][  0].d[ 55] =         0.000000948571;
  BAS[ATNO][  0].a[ 56] =      1054.237500000000;     BAS[ATNO][  0].d[ 56] =         0.000002654985;
  BAS[ATNO][  0].a[ 57] =       429.371220000000;     BAS[ATNO][  0].d[ 57] =         0.000007351553;
  BAS[ATNO][  0].a[ 58] =       177.188590000000;     BAS[ATNO][  0].d[ 58] =         0.000018189002;
  BAS[ATNO][  0].a[ 59] =        73.763945000000;     BAS[ATNO][  0].d[ 59] =         0.000038254145;
  BAS[ATNO][  0].a[ 60] =        30.897007000000;     BAS[ATNO][  0].d[ 60] =         0.000042523306;
  BAS[ATNO][  0].a[ 61] =        12.999482000000;     BAS[ATNO][  0].d[ 61] =        -0.000046522827;
  BAS[ATNO][  0].a[ 62] =         5.487679300000;     BAS[ATNO][  0].d[ 62] =        -0.000224111370;
  BAS[ATNO][  0].a[ 63] =         2.322571600000;     BAS[ATNO][  0].d[ 63] =        -0.000359032897;
  BAS[ATNO][  0].a[ 64] =         0.984980700000;     BAS[ATNO][  0].d[ 64] =         0.001021452069;
  BAS[ATNO][  0].a[ 65] =         0.418397300000;     BAS[ATNO][  0].d[ 65] =         0.000001437204;
  BAS[ATNO][  0].a[ 66] =         0.177959400000;     BAS[ATNO][  0].d[ 66] =        -0.000637995699;
  BAS[ATNO][  0].a[ 67] =         0.071183800000;     BAS[ATNO][  0].d[ 67] =        -0.000024717931;
  BAS[ATNO][  0].a[ 68] =    455476.770000000019;     BAS[ATNO][  0].d[ 68] =         0.000000018813;
  BAS[ATNO][  0].a[ 69] =     64817.743000000002;     BAS[ATNO][  0].d[ 69] =         0.000000056870;
  BAS[ATNO][  0].a[ 70] =     19256.987000000001;     BAS[ATNO][  0].d[ 70] =         0.000000140982;
  BAS[ATNO][  0].a[ 71] =      6877.007300000000;     BAS[ATNO][  0].d[ 71] =         0.000000293535;
  BAS[ATNO][  0].a[ 72] =      2643.487700000000;     BAS[ATNO][  0].d[ 72] =         0.000001145426;
  BAS[ATNO][  0].a[ 73] =      1054.237500000000;     BAS[ATNO][  0].d[ 73] =         0.000002079070;
  BAS[ATNO][  0].a[ 74] =       429.371220000000;     BAS[ATNO][  0].d[ 74] =         0.000009127303;
  BAS[ATNO][  0].a[ 75] =       177.188590000000;     BAS[ATNO][  0].d[ 75] =         0.000013829917;
  BAS[ATNO][  0].a[ 76] =        73.763945000000;     BAS[ATNO][  0].d[ 76] =         0.000052498366;
  BAS[ATNO][  0].a[ 77] =        30.897007000000;     BAS[ATNO][  0].d[ 77] =         0.000011333962;
  BAS[ATNO][  0].a[ 78] =        12.999482000000;     BAS[ATNO][  0].d[ 78] =         0.000014151108;
  BAS[ATNO][  0].a[ 79] =         5.487679300000;     BAS[ATNO][  0].d[ 79] =        -0.000503703668;
  BAS[ATNO][  0].a[ 80] =         2.322571600000;     BAS[ATNO][  0].d[ 80] =         0.000265573388;
  BAS[ATNO][  0].a[ 81] =         0.984980700000;     BAS[ATNO][  0].d[ 81] =         0.001075684581;
  BAS[ATNO][  0].a[ 82] =         0.418397300000;     BAS[ATNO][  0].d[ 82] =        -0.001706661578;
  BAS[ATNO][  0].a[ 83] =         0.177959400000;     BAS[ATNO][  0].d[ 83] =         0.000800627334;
  BAS[ATNO][  0].a[ 84] =         0.071183800000;     BAS[ATNO][  0].d[ 84] =         0.000094695502;

  // Basis function   2 L = s
  InitBFNGauss(BAS[ATNO][  1]);
  BAS[ATNO][  1].l  = 0;
  BAS[ATNO][  1].ng = 84;
  BAS[ATNO][  1].a[  0] =    455476.770000000019;     BAS[ATNO][  1].d[  0] =         0.000001314817;
  BAS[ATNO][  1].a[  1] =     64817.743000000002;     BAS[ATNO][  1].d[  1] =         0.000004158367;
  BAS[ATNO][  1].a[  2] =     19256.987000000001;     BAS[ATNO][  1].d[  2] =         0.000008920910;
  BAS[ATNO][  1].a[  3] =      6877.007300000000;     BAS[ATNO][  1].d[  3] =         0.000024511313;
  BAS[ATNO][  1].a[  4] =      2643.487700000000;     BAS[ATNO][  1].d[  4] =         0.000065391945;
  BAS[ATNO][  1].a[  5] =      1054.237500000000;     BAS[ATNO][  1].d[  5] =         0.000181059222;
  BAS[ATNO][  1].a[  6] =       429.371220000000;     BAS[ATNO][  1].d[  6] =         0.000470500377;
  BAS[ATNO][  1].a[  7] =       177.188590000000;     BAS[ATNO][  1].d[  7] =         0.001046677048;
  BAS[ATNO][  1].a[  8] =        73.763945000000;     BAS[ATNO][  1].d[  8] =         0.001637982954;
  BAS[ATNO][  1].a[  9] =        30.897007000000;     BAS[ATNO][  1].d[  9] =         0.001146652185;
  BAS[ATNO][  1].a[ 10] =        12.999482000000;     BAS[ATNO][  1].d[ 10] =         0.000157581314;
  BAS[ATNO][  1].a[ 11] =         5.487679300000;     BAS[ATNO][  1].d[ 11] =         0.000012819364;
  BAS[ATNO][  1].a[ 12] =         2.322571600000;     BAS[ATNO][  1].d[ 12] =        -0.000005691827;
  BAS[ATNO][  1].a[ 13] =         0.984980700000;     BAS[ATNO][  1].d[ 13] =         0.000004121865;
  BAS[ATNO][  1].a[ 14] =         0.418397300000;     BAS[ATNO][  1].d[ 14] =        -0.000002643857;
  BAS[ATNO][  1].a[ 15] =         0.177959400000;     BAS[ATNO][  1].d[ 15] =         0.000001159272;
  BAS[ATNO][  1].a[ 16] =    455476.770000000019;     BAS[ATNO][  1].d[ 16] =        -0.000090487533;
  BAS[ATNO][  1].a[ 17] =     64817.743000000002;     BAS[ATNO][  1].d[ 17] =        -0.000286578456;
  BAS[ATNO][  1].a[ 18] =     19256.987000000001;     BAS[ATNO][  1].d[ 18] =        -0.000616507490;
  BAS[ATNO][  1].a[ 19] =      6877.007300000000;     BAS[ATNO][  1].d[ 19] =        -0.001699530461;
  BAS[ATNO][  1].a[ 20] =      2643.487700000000;     BAS[ATNO][  1].d[ 20] =        -0.004578493203;
  BAS[ATNO][  1].a[ 21] =      1054.237500000000;     BAS[ATNO][  1].d[ 21] =        -0.012908160783;
  BAS[ATNO][  1].a[ 22] =       429.371220000000;     BAS[ATNO][  1].d[ 22] =        -0.035134560256;
  BAS[ATNO][  1].a[ 23] =       177.188590000000;     BAS[ATNO][  1].d[ 23] =        -0.086573188548;
  BAS[ATNO][  1].a[ 24] =        73.763945000000;     BAS[ATNO][  1].d[ 24] =        -0.172746790556;
  BAS[ATNO][  1].a[ 25] =        30.897007000000;     BAS[ATNO][  1].d[ 25] =        -0.183682010717;
  BAS[ATNO][  1].a[ 26] =        12.999482000000;     BAS[ATNO][  1].d[ 26] =         0.135349587212;
  BAS[ATNO][  1].a[ 27] =         5.487679300000;     BAS[ATNO][  1].d[ 27] =         0.627440317346;
  BAS[ATNO][  1].a[ 28] =         2.322571600000;     BAS[ATNO][  1].d[ 28] =         0.377664761162;
  BAS[ATNO][  1].a[ 29] =         0.984980700000;     BAS[ATNO][  1].d[ 29] =         0.004918357773;
  BAS[ATNO][  1].a[ 30] =         0.418397300000;     BAS[ATNO][  1].d[ 30] =         0.011597737590;
  BAS[ATNO][  1].a[ 31] =         0.177959400000;     BAS[ATNO][  1].d[ 31] =        -0.004405169983;
  BAS[ATNO][  1].a[ 32] =         0.071183800000;     BAS[ATNO][  1].d[ 32] =         0.001276563279;
  BAS[ATNO][  1].a[ 33] =    455476.770000000019;     BAS[ATNO][  1].d[ 33] =        -0.000002789511;
  BAS[ATNO][  1].a[ 34] =     64817.743000000002;     BAS[ATNO][  1].d[ 34] =        -0.000008826857;
  BAS[ATNO][  1].a[ 35] =     19256.987000000001;     BAS[ATNO][  1].d[ 35] =        -0.000019058601;
  BAS[ATNO][  1].a[ 36] =      6877.007300000000;     BAS[ATNO][  1].d[ 36] =        -0.000052228787;
  BAS[ATNO][  1].a[ 37] =      2643.487700000000;     BAS[ATNO][  1].d[ 37] =        -0.000142051801;
  BAS[ATNO][  1].a[ 38] =      1054.237500000000;     BAS[ATNO][  1].d[ 38] =        -0.000397181546;
  BAS[ATNO][  1].a[ 39] =       429.371220000000;     BAS[ATNO][  1].d[ 39] =        -0.001097852394;
  BAS[ATNO][  1].a[ 40] =       177.188590000000;     BAS[ATNO][  1].d[ 40] =        -0.002701247871;
  BAS[ATNO][  1].a[ 41] =        73.763945000000;     BAS[ATNO][  1].d[ 41] =        -0.005611273873;
  BAS[ATNO][  1].a[ 42] =        30.897007000000;     BAS[ATNO][  1].d[ 42] =        -0.006093535011;
  BAS[ATNO][  1].a[ 43] =        12.999482000000;     BAS[ATNO][  1].d[ 43] =         0.004704062484;
  BAS[ATNO][  1].a[ 44] =         5.487679300000;     BAS[ATNO][  1].d[ 44] =         0.031849767100;
  BAS[ATNO][  1].a[ 45] =         2.322571600000;     BAS[ATNO][  1].d[ 45] =         0.033723400643;
  BAS[ATNO][  1].a[ 46] =         0.984980700000;     BAS[ATNO][  1].d[ 46] =        -0.033092513875;
  BAS[ATNO][  1].a[ 47] =         0.418397300000;     BAS[ATNO][  1].d[ 47] =        -0.065719405257;
  BAS[ATNO][  1].a[ 48] =         0.177959400000;     BAS[ATNO][  1].d[ 48] =        -0.024695765507;
  BAS[ATNO][  1].a[ 49] =         0.071183800000;     BAS[ATNO][  1].d[ 49] =        -0.000438121064;
  BAS[ATNO][  1].a[ 50] =    455476.770000000019;     BAS[ATNO][  1].d[ 50] =        -0.000002939134;
  BAS[ATNO][  1].a[ 51] =     64817.743000000002;     BAS[ATNO][  1].d[ 51] =        -0.000009297787;
  BAS[ATNO][  1].a[ 52] =     19256.987000000001;     BAS[ATNO][  1].d[ 52] =        -0.000020090106;
  BAS[ATNO][  1].a[ 53] =      6877.007300000000;     BAS[ATNO][  1].d[ 53] =        -0.000055028261;
  BAS[ATNO][  1].a[ 54] =      2643.487700000000;     BAS[ATNO][  1].d[ 54] =        -0.000149784758;
  BAS[ATNO][  1].a[ 55] =      1054.237500000000;     BAS[ATNO][  1].d[ 55] =        -0.000419237194;
  BAS[ATNO][  1].a[ 56] =       429.371220000000;     BAS[ATNO][  1].d[ 56] =        -0.001160851890;
  BAS[ATNO][  1].a[ 57] =       177.188590000000;     BAS[ATNO][  1].d[ 57] =        -0.002872146516;
  BAS[ATNO][  1].a[ 58] =        73.763945000000;     BAS[ATNO][  1].d[ 58] =        -0.006040546338;
  BAS[ATNO][  1].a[ 59] =        30.897007000000;     BAS[ATNO][  1].d[ 59] =        -0.006714671158;
  BAS[ATNO][  1].a[ 60] =        12.999482000000;     BAS[ATNO][  1].d[ 60] =         0.007346218141;
  BAS[ATNO][  1].a[ 61] =         5.487679300000;     BAS[ATNO][  1].d[ 61] =         0.035388455896;
  BAS[ATNO][  1].a[ 62] =         2.322571600000;     BAS[ATNO][  1].d[ 62] =         0.056693329867;
  BAS[ATNO][  1].a[ 63] =         0.984980700000;     BAS[ATNO][  1].d[ 63] =        -0.161293072555;
  BAS[ATNO][  1].a[ 64] =         0.418397300000;     BAS[ATNO][  1].d[ 64] =        -0.000226942612;
  BAS[ATNO][  1].a[ 65] =         0.177959400000;     BAS[ATNO][  1].d[ 65] =         0.100743137926;
  BAS[ATNO][  1].a[ 66] =         0.071183800000;     BAS[ATNO][  1].d[ 66] =         0.003903101442;
  BAS[ATNO][  1].a[ 67] =    455476.770000000019;     BAS[ATNO][  1].d[ 67] =        -0.000003524864;
  BAS[ATNO][  1].a[ 68] =     64817.743000000002;     BAS[ATNO][  1].d[ 68] =        -0.000010655315;
  BAS[ATNO][  1].a[ 69] =     19256.987000000001;     BAS[ATNO][  1].d[ 69] =        -0.000026414572;
  BAS[ATNO][  1].a[ 70] =      6877.007300000000;     BAS[ATNO][  1].d[ 70] =        -0.000054997108;
  BAS[ATNO][  1].a[ 71] =      2643.487700000000;     BAS[ATNO][  1].d[ 71] =        -0.000214608497;
  BAS[ATNO][  1].a[ 72] =      1054.237500000000;     BAS[ATNO][  1].d[ 72] =        -0.000389537094;
  BAS[ATNO][  1].a[ 73] =       429.371220000000;     BAS[ATNO][  1].d[ 73] =        -0.001710102698;
  BAS[ATNO][  1].a[ 74] =       177.188590000000;     BAS[ATNO][  1].d[ 74] =        -0.002591190378;
  BAS[ATNO][  1].a[ 75] =        73.763945000000;     BAS[ATNO][  1].d[ 75] =        -0.009836158723;
  BAS[ATNO][  1].a[ 76] =        30.897007000000;     BAS[ATNO][  1].d[ 76] =        -0.002123545060;
  BAS[ATNO][  1].a[ 77] =        12.999482000000;     BAS[ATNO][  1].d[ 77] =        -0.002651369075;
  BAS[ATNO][  1].a[ 78] =         5.487679300000;     BAS[ATNO][  1].d[ 78] =         0.094374541373;
  BAS[ATNO][  1].a[ 79] =         2.322571600000;     BAS[ATNO][  1].d[ 79] =        -0.049758157924;
  BAS[ATNO][  1].a[ 80] =         0.984980700000;     BAS[ATNO][  1].d[ 80] =        -0.201541591641;
  BAS[ATNO][  1].a[ 81] =         0.418397300000;     BAS[ATNO][  1].d[ 81] =         0.319762221097;
  BAS[ATNO][  1].a[ 82] =         0.177959400000;     BAS[ATNO][  1].d[ 82] =        -0.150006526193;
  BAS[ATNO][  1].a[ 83] =         0.071183800000;     BAS[ATNO][  1].d[ 83] =        -0.017742266292;

  // Basis function   3 L = s
  InitBFNGauss(BAS[ATNO][  2]);
  BAS[ATNO][  2].l  = 0;
  BAS[ATNO][  2].ng = 82;
  BAS[ATNO][  2].a[  0] =    455476.770000000019;     BAS[ATNO][  2].d[  0] =         0.000000105842;
  BAS[ATNO][  2].a[  1] =     64817.743000000002;     BAS[ATNO][  2].d[  1] =         0.000000334747;
  BAS[ATNO][  2].a[  2] =     19256.987000000001;     BAS[ATNO][  2].d[  2] =         0.000000718131;
  BAS[ATNO][  2].a[  3] =      6877.007300000000;     BAS[ATNO][  2].d[  3] =         0.000001973153;
  BAS[ATNO][  2].a[  4] =      2643.487700000000;     BAS[ATNO][  2].d[  4] =         0.000005264032;
  BAS[ATNO][  2].a[  5] =      1054.237500000000;     BAS[ATNO][  2].d[  5] =         0.000014575214;
  BAS[ATNO][  2].a[  6] =       429.371220000000;     BAS[ATNO][  2].d[  6] =         0.000037875141;
  BAS[ATNO][  2].a[  7] =       177.188590000000;     BAS[ATNO][  2].d[  7] =         0.000084257192;
  BAS[ATNO][  2].a[  8] =        73.763945000000;     BAS[ATNO][  2].d[  8] =         0.000131857142;
  BAS[ATNO][  2].a[  9] =        30.897007000000;     BAS[ATNO][  2].d[  9] =         0.000092305161;
  BAS[ATNO][  2].a[ 10] =        12.999482000000;     BAS[ATNO][  2].d[ 10] =         0.000012685249;
  BAS[ATNO][  2].a[ 11] =         5.487679300000;     BAS[ATNO][  2].d[ 11] =         0.000001031955;
  BAS[ATNO][  2].a[ 12] =         2.322571600000;     BAS[ATNO][  2].d[ 12] =        -0.000000458190;
  BAS[ATNO][  2].a[ 13] =         0.984980700000;     BAS[ATNO][  2].d[ 13] =         0.000000331809;
  BAS[ATNO][  2].a[ 14] =    455476.770000000019;     BAS[ATNO][  2].d[ 14] =         0.000013411428;
  BAS[ATNO][  2].a[ 15] =     64817.743000000002;     BAS[ATNO][  2].d[ 15] =         0.000042474650;
  BAS[ATNO][  2].a[ 16] =     19256.987000000001;     BAS[ATNO][  2].d[ 16] =         0.000091374419;
  BAS[ATNO][  2].a[ 17] =      6877.007300000000;     BAS[ATNO][  2].d[ 17] =         0.000251892492;
  BAS[ATNO][  2].a[ 18] =      2643.487700000000;     BAS[ATNO][  2].d[ 18] =         0.000678592169;
  BAS[ATNO][  2].a[ 19] =      1054.237500000000;     BAS[ATNO][  2].d[ 19] =         0.001913157110;
  BAS[ATNO][  2].a[ 20] =       429.371220000000;     BAS[ATNO][  2].d[ 20] =         0.005207398242;
  BAS[ATNO][  2].a[ 21] =       177.188590000000;     BAS[ATNO][  2].d[ 21] =         0.012831271163;
  BAS[ATNO][  2].a[ 22] =        73.763945000000;     BAS[ATNO][  2].d[ 22] =         0.025603318410;
  BAS[ATNO][  2].a[ 23] =        30.897007000000;     BAS[ATNO][  2].d[ 23] =         0.027224060091;
  BAS[ATNO][  2].a[ 24] =        12.999482000000;     BAS[ATNO][  2].d[ 24] =        -0.020060567070;
  BAS[ATNO][  2].a[ 25] =         5.487679300000;     BAS[ATNO][  2].d[ 25] =        -0.092994805730;
  BAS[ATNO][  2].a[ 26] =         2.322571600000;     BAS[ATNO][  2].d[ 26] =        -0.055974823620;
  BAS[ATNO][  2].a[ 27] =         0.984980700000;     BAS[ATNO][  2].d[ 27] =        -0.000728964513;
  BAS[ATNO][  2].a[ 28] =         0.418397300000;     BAS[ATNO][  2].d[ 28] =        -0.001718935370;
  BAS[ATNO][  2].a[ 29] =         0.177959400000;     BAS[ATNO][  2].d[ 29] =         0.000652903416;
  BAS[ATNO][  2].a[ 30] =         0.071183800000;     BAS[ATNO][  2].d[ 30] =        -0.000189203261;
  BAS[ATNO][  2].a[ 31] =    455476.770000000019;     BAS[ATNO][  2].d[ 31] =        -0.000022210115;
  BAS[ATNO][  2].a[ 32] =     64817.743000000002;     BAS[ATNO][  2].d[ 32] =        -0.000070279533;
  BAS[ATNO][  2].a[ 33] =     19256.987000000001;     BAS[ATNO][  2].d[ 33] =        -0.000151744790;
  BAS[ATNO][  2].a[ 34] =      6877.007300000000;     BAS[ATNO][  2].d[ 34] =        -0.000415846179;
  BAS[ATNO][  2].a[ 35] =      2643.487700000000;     BAS[ATNO][  2].d[ 35] =        -0.001131018021;
  BAS[ATNO][  2].a[ 36] =      1054.237500000000;     BAS[ATNO][  2].d[ 36] =        -0.003162363878;
  BAS[ATNO][  2].a[ 37] =       429.371220000000;     BAS[ATNO][  2].d[ 37] =        -0.008741112958;
  BAS[ATNO][  2].a[ 38] =       177.188590000000;     BAS[ATNO][  2].d[ 38] =        -0.021507365558;
  BAS[ATNO][  2].a[ 39] =        73.763945000000;     BAS[ATNO][  2].d[ 39] =        -0.044677024916;
  BAS[ATNO][  2].a[ 40] =        30.897007000000;     BAS[ATNO][  2].d[ 40] =        -0.048516793455;
  BAS[ATNO][  2].a[ 41] =        12.999482000000;     BAS[ATNO][  2].d[ 41] =         0.037453797759;
[...]
  BAS[ATNO][  6].a[ 11] =         0.048938500000;     BAS[ATNO][  6].d[ 11] =        -0.000014605691;
  BAS[ATNO][  6].a[ 12] =      1462.496200000000;     BAS[ATNO][  6].d[ 12] =        -0.000190964639;
  BAS[ATNO][  6].a[ 13] =       354.067310000000;     BAS[ATNO][  6].d[ 13] =        -0.001237390167;
  BAS[ATNO][  6].a[ 14] =       126.697790000000;     BAS[ATNO][  6].d[ 14] =        -0.005178556107;
  BAS[ATNO][  6].a[ 15] =        49.989095000000;     BAS[ATNO][  6].d[ 15] =        -0.019095327623;
  BAS[ATNO][  6].a[ 16] =        20.509295000000;     BAS[ATNO][  6].d[ 16] =        -0.051747433267;
  BAS[ATNO][  6].a[ 17] =         8.580464100000;     BAS[ATNO][  6].d[ 17] =        -0.092802468027;
  BAS[ATNO][  6].a[ 18] =         3.630104900000;     BAS[ATNO][  6].d[ 18] =        -0.076710361091;
  BAS[ATNO][  6].a[ 19] =         1.546528000000;     BAS[ATNO][  6].d[ 19] =         0.112641124918;
  BAS[ATNO][  6].a[ 20] =         0.661936900000;     BAS[ATNO][  6].d[ 20] =         0.310926010462;
  BAS[ATNO][  6].a[ 21] =         0.284242800000;     BAS[ATNO][  6].d[ 21] =         0.285215208241;
  BAS[ATNO][  6].a[ 22] =         0.122346300000;     BAS[ATNO][  6].d[ 22] =         0.102021150524;
  BAS[ATNO][  6].a[ 23] =         0.048938500000;     BAS[ATNO][  6].d[ 23] =         0.004704518712;
  BAS[ATNO][  6].a[ 24] =      1462.496200000000;     BAS[ATNO][  6].d[ 24] =        -0.000189143154;
  BAS[ATNO][  6].a[ 25] =       354.067310000000;     BAS[ATNO][  6].d[ 25] =        -0.001150467606;
  BAS[ATNO][  6].a[ 26] =       126.697790000000;     BAS[ATNO][  6].d[ 26] =        -0.005236354601;
  BAS[ATNO][  6].a[ 27] =        49.989095000000;     BAS[ATNO][  6].d[ 27] =        -0.017818323047;
  BAS[ATNO][  6].a[ 28] =        20.509295000000;     BAS[ATNO][  6].d[ 28] =        -0.054077296938;
  BAS[ATNO][  6].a[ 29] =         8.580464100000;     BAS[ATNO][  6].d[ 29] =        -0.080860492149;
  BAS[ATNO][  6].a[ 30] =         3.630104900000;     BAS[ATNO][  6].d[ 30] =        -0.098673439311;
  BAS[ATNO][  6].a[ 31] =         1.546528000000;     BAS[ATNO][  6].d[ 31] =         0.253074758423;
  BAS[ATNO][  6].a[ 32] =         0.661936900000;     BAS[ATNO][  6].d[ 32] =         0.413587375762;
  BAS[ATNO][  6].a[ 33] =         0.284242800000;     BAS[ATNO][  6].d[ 33] =        -0.286948430118;
  BAS[ATNO][  6].a[ 34] =         0.122346300000;     BAS[ATNO][  6].d[ 34] =        -0.339936097771;
  BAS[ATNO][  6].a[ 35] =         0.048938500000;     BAS[ATNO][  6].d[ 35] =        -0.034988110152;
  BAS[ATNO][  6].a[ 36] =      1462.496200000000;     BAS[ATNO][  6].d[ 36] =        -0.000208570137;
  BAS[ATNO][  6].a[ 37] =       354.067310000000;     BAS[ATNO][  6].d[ 37] =        -0.001221401973;
  BAS[ATNO][  6].a[ 38] =       126.697790000000;     BAS[ATNO][  6].d[ 38] =        -0.005908732616;
  BAS[ATNO][  6].a[ 39] =        49.989095000000;     BAS[ATNO][  6].d[ 39] =        -0.019208132843;
  BAS[ATNO][  6].a[ 40] =        20.509295000000;     BAS[ATNO][  6].d[ 40] =        -0.064746765682;
  BAS[ATNO][  6].a[ 41] =         8.580464100000;     BAS[ATNO][  6].d[ 41] =        -0.076399212405;
  BAS[ATNO][  6].a[ 42] =         3.630104900000;     BAS[ATNO][  6].d[ 42] =        -0.104059214624;
  BAS[ATNO][  6].a[ 43] =         1.546528000000;     BAS[ATNO][  6].d[ 43] =         0.614451269610;
  BAS[ATNO][  6].a[ 44] =         0.661936900000;     BAS[ATNO][  6].d[ 44] =        -0.298996616013;
  BAS[ATNO][  6].a[ 45] =         0.284242800000;     BAS[ATNO][  6].d[ 45] =        -0.457846872831;
  BAS[ATNO][  6].a[ 46] =         0.122346300000;     BAS[ATNO][  6].d[ 46] =         0.453351011509;
  BAS[ATNO][  6].a[ 47] =         0.048938500000;     BAS[ATNO][  6].d[ 47] =         0.048437069470;

  // Basis function   8 L = p
  InitBFNGauss(BAS[ATNO][  7]);
  BAS[ATNO][  7].l  = 1;
  BAS[ATNO][  7].ng = 47;
  BAS[ATNO][  7].a[  0] =      1462.496200000000;     BAS[ATNO][  7].d[  0] =         0.000028385341;
  BAS[ATNO][  7].a[  1] =       354.067310000000;     BAS[ATNO][  7].d[  1] =         0.000183172648;
  BAS[ATNO][  7].a[  2] =       126.697790000000;     BAS[ATNO][  7].d[  2] =         0.000760178443;
  BAS[ATNO][  7].a[  3] =        49.989095000000;     BAS[ATNO][  7].d[  3] =         0.002744133747;
  BAS[ATNO][  7].a[  4] =        20.509295000000;     BAS[ATNO][  7].d[  4] =         0.007198695111;
  BAS[ATNO][  7].a[  5] =         8.580464100000;     BAS[ATNO][  7].d[  5] =         0.012285848888;
  BAS[ATNO][  7].a[  6] =         3.630104900000;     BAS[ATNO][  7].d[  6] =         0.010155932740;
  BAS[ATNO][  7].a[  7] =         1.546528000000;     BAS[ATNO][  7].d[  7] =         0.002152025248;
  BAS[ATNO][  7].a[  8] =         0.661936900000;     BAS[ATNO][  7].d[  8] =         0.000103704376;
  BAS[ATNO][  7].a[  9] =         0.284242800000;     BAS[ATNO][  7].d[  9] =         0.000008569110;
  BAS[ATNO][  7].a[ 10] =         0.122346300000;     BAS[ATNO][  7].d[ 10] =         0.000014049385;
  BAS[ATNO][  7].a[ 11] =      1462.496200000000;     BAS[ATNO][  7].d[ 11] =         0.000187997374;
  BAS[ATNO][  7].a[ 12] =       354.067310000000;     BAS[ATNO][  7].d[ 12] =         0.001218163231;
  BAS[ATNO][  7].a[ 13] =       126.697790000000;     BAS[ATNO][  7].d[ 13] =         0.005098090164;
  BAS[ATNO][  7].a[ 14] =        49.989095000000;     BAS[ATNO][  7].d[ 14] =         0.018798618753;
  BAS[ATNO][  7].a[ 15] =        20.509295000000;     BAS[ATNO][  7].d[ 15] =         0.050943366284;
  BAS[ATNO][  7].a[ 16] =         8.580464100000;     BAS[ATNO][  7].d[ 16] =         0.091360475725;
  BAS[ATNO][  7].a[ 17] =         3.630104900000;     BAS[ATNO][  7].d[ 17] =         0.075518412725;
  BAS[ATNO][  7].a[ 18] =         1.546528000000;     BAS[ATNO][  7].d[ 18] =        -0.110890873675;
  BAS[ATNO][  7].a[ 19] =         0.661936900000;     BAS[ATNO][  7].d[ 19] =        -0.306094749796;
  BAS[ATNO][  7].a[ 20] =         0.284242800000;     BAS[ATNO][  7].d[ 20] =        -0.280783449654;
  BAS[ATNO][  7].a[ 21] =         0.122346300000;     BAS[ATNO][  7].d[ 21] =        -0.100435915596;
  BAS[ATNO][  7].a[ 22] =         0.048938500000;     BAS[ATNO][  7].d[ 22] =        -0.004631418503;
  BAS[ATNO][  7].a[ 23] =      1462.496200000000;     BAS[ATNO][  7].d[ 23] =        -0.000121077309;
  BAS[ATNO][  7].a[ 24] =       354.067310000000;     BAS[ATNO][  7].d[ 24] =        -0.000736455532;
  BAS[ATNO][  7].a[ 25] =       126.697790000000;     BAS[ATNO][  7].d[ 25] =        -0.003351978181;
  BAS[ATNO][  7].a[ 26] =        49.989095000000;     BAS[ATNO][  7].d[ 26] =        -0.011406146951;
  BAS[ATNO][  7].a[ 27] =        20.509295000000;     BAS[ATNO][  7].d[ 27] =        -0.034616815170;
  BAS[ATNO][  7].a[ 28] =         8.580464100000;     BAS[ATNO][  7].d[ 28] =        -0.051761697974;
  BAS[ATNO][  7].a[ 29] =         3.630104900000;     BAS[ATNO][  7].d[ 29] =        -0.063164403628;
  BAS[ATNO][  7].a[ 30] =         1.546528000000;     BAS[ATNO][  7].d[ 30] =         0.162002219651;
  BAS[ATNO][  7].a[ 31] =         0.661936900000;     BAS[ATNO][  7].d[ 31] =         0.264752096616;
  BAS[ATNO][  7].a[ 32] =         0.284242800000;     BAS[ATNO][  7].d[ 32] =        -0.183685970478;
  BAS[ATNO][  7].a[ 33] =         0.122346300000;     BAS[ATNO][  7].d[ 33] =        -0.217605274906;
  BAS[ATNO][  7].a[ 34] =         0.048938500000;     BAS[ATNO][  7].d[ 34] =        -0.022397142810;
  BAS[ATNO][  7].a[ 35] =      1462.496200000000;     BAS[ATNO][  7].d[ 35] =        -0.000318957041;
  BAS[ATNO][  7].a[ 36] =       354.067310000000;     BAS[ATNO][  7].d[ 36] =        -0.001867835756;
  BAS[ATNO][  7].a[ 37] =       126.697790000000;     BAS[ATNO][  7].d[ 37] =        -0.009035962196;
  BAS[ATNO][  7].a[ 38] =        49.989095000000;     BAS[ATNO][  7].d[ 38] =        -0.029374143918;
  BAS[ATNO][  7].a[ 39] =        20.509295000000;     BAS[ATNO][  7].d[ 39] =        -0.099014351315;
  BAS[ATNO][  7].a[ 40] =         8.580464100000;     BAS[ATNO][  7].d[ 40] =        -0.116833920236;
  BAS[ATNO][  7].a[ 41] =         3.630104900000;     BAS[ATNO][  7].d[ 41] =        -0.159133132377;
  BAS[ATNO][  7].a[ 42] =         1.546528000000;     BAS[ATNO][  7].d[ 42] =         0.939653019484;
  BAS[ATNO][  7].a[ 43] =         0.661936900000;     BAS[ATNO][  7].d[ 43] =        -0.457242237013;
  BAS[ATNO][  7].a[ 44] =         0.284242800000;     BAS[ATNO][  7].d[ 44] =        -0.700164875221;
  BAS[ATNO][  7].a[ 45] =         0.122346300000;     BAS[ATNO][  7].d[ 45] =         0.693289554305;
  BAS[ATNO][  7].a[ 46] =         0.048938500000;     BAS[ATNO][  7].d[ 46] =         0.074072657725;

  // Basis function   9 L = p
  InitBFNGauss(BAS[ATNO][  8]);
  BAS[ATNO][  8].l  = 1;
  BAS[ATNO][  8].ng = 47;
  BAS[ATNO][  8].a[  0] =      1462.496200000000;     BAS[ATNO][  8].d[  0] =         0.000012794285;
  BAS[ATNO][  8].a[  1] =       354.067310000000;     BAS[ATNO][  8].d[  1] =         0.000082562439;
  BAS[ATNO][  8].a[  2] =       126.697790000000;     BAS[ATNO][  8].d[  2] =         0.000342639508;
  BAS[ATNO][  8].a[  3] =        49.989095000000;     BAS[ATNO][  8].d[  3] =         0.001236878850;
  BAS[ATNO][  8].a[  4] =        20.509295000000;     BAS[ATNO][  8].d[  4] =         0.003244708366;
  BAS[ATNO][  8].a[  5] =         8.580464100000;     BAS[ATNO][  8].d[  5] =         0.005537669822;
  BAS[ATNO][  8].a[  6] =         3.630104900000;     BAS[ATNO][  8].d[  6] =         0.004577640728;
  BAS[ATNO][  8].a[  7] =         1.546528000000;     BAS[ATNO][  8].d[  7] =         0.000969994453;
  BAS[ATNO][  8].a[  8] =         0.661936900000;     BAS[ATNO][  8].d[  8] =         0.000046743257;
  BAS[ATNO][  8].a[  9] =         0.284242800000;     BAS[ATNO][  8].d[  9] =         0.000003862403;
  BAS[ATNO][  8].a[ 10] =         0.122346300000;     BAS[ATNO][  8].d[ 10] =         0.000006332558;
  BAS[ATNO][  8].a[ 11] =      1462.496200000000;     BAS[ATNO][  8].d[ 11] =        -0.000057926847;
  BAS[ATNO][  8].a[ 12] =       354.067310000000;     BAS[ATNO][  8].d[ 12] =        -0.000375347561;
  BAS[ATNO][  8].a[ 13] =       126.697790000000;     BAS[ATNO][  8].d[ 13] =        -0.001570853281;
  BAS[ATNO][  8].a[ 14] =        49.989095000000;     BAS[ATNO][  8].d[ 14] =        -0.005792340071;
  BAS[ATNO][  8].a[ 15] =        20.509295000000;     BAS[ATNO][  8].d[ 15] =        -0.015696967195;
  BAS[ATNO][  8].a[ 16] =         8.580464100000;     BAS[ATNO][  8].d[ 16] =        -0.028150522728;
  BAS[ATNO][  8].a[ 17] =         3.630104900000;     BAS[ATNO][  8].d[ 17] =        -0.023269173862;
  BAS[ATNO][  8].a[ 18] =         1.546528000000;     BAS[ATNO][  8].d[ 18] =         0.034168342874;
  BAS[ATNO][  8].a[ 19] =         0.661936900000;     BAS[ATNO][  8].d[ 19] =         0.094315699897;
  BAS[ATNO][  8].a[ 20] =         0.284242800000;     BAS[ATNO][  8].d[ 20] =         0.086516634445;
  BAS[ATNO][  8].a[ 21] =         0.122346300000;     BAS[ATNO][  8].d[ 21] =         0.030946900202;
  BAS[ATNO][  8].a[ 22] =         0.048938500000;     BAS[ATNO][  8].d[ 22] =         0.001427059686;
  BAS[ATNO][  8].a[ 23] =      1462.496200000000;     BAS[ATNO][  8].d[ 23] =         0.000246767522;
  BAS[ATNO][  8].a[ 24] =       354.067310000000;     BAS[ATNO][  8].d[ 24] =         0.001500969158;
  BAS[ATNO][  8].a[ 25] =       126.697790000000;     BAS[ATNO][  8].d[ 25] =         0.006831662812;
  BAS[ATNO][  8].a[ 26] =        49.989095000000;     BAS[ATNO][  8].d[ 26] =         0.023246854766;
  BAS[ATNO][  8].a[ 27] =        20.509295000000;     BAS[ATNO][  8].d[ 27] =         0.070552490532;
  BAS[ATNO][  8].a[ 28] =         8.580464100000;     BAS[ATNO][  8].d[ 28] =         0.105495456131;
  BAS[ATNO][  8].a[ 29] =         3.630104900000;     BAS[ATNO][  8].d[ 29] =         0.128735297194;
  BAS[ATNO][  8].a[ 30] =         1.546528000000;     BAS[ATNO][  8].d[ 30] =        -0.330176534491;
  BAS[ATNO][  8].a[ 31] =         0.661936900000;     BAS[ATNO][  8].d[ 31] =        -0.539590938619;
  BAS[ATNO][  8].a[ 32] =         0.284242800000;     BAS[ATNO][  8].d[ 32] =         0.374370161703;
  BAS[ATNO][  8].a[ 33] =         0.122346300000;     BAS[ATNO][  8].d[ 33] =         0.443501056406;
  BAS[ATNO][  8].a[ 34] =         0.048938500000;     BAS[ATNO][  8].d[ 34] =         0.045647590579;
  BAS[ATNO][  8].a[ 35] =      1462.496200000000;     BAS[ATNO][  8].d[ 35] =        -0.000323090204;
  BAS[ATNO][  8].a[ 36] =       354.067310000000;     BAS[ATNO][  8].d[ 36] =        -0.001892039864;
  BAS[ATNO][  8].a[ 37] =       126.697790000000;     BAS[ATNO][  8].d[ 37] =        -0.009153053543;
  BAS[ATNO][  8].a[ 38] =        49.989095000000;     BAS[ATNO][  8].d[ 38] =        -0.029754784961;
  BAS[ATNO][  8].a[ 39] =        20.509295000000;     BAS[ATNO][  8].d[ 39] =        -0.100297415973;
  BAS[ATNO][  8].a[ 40] =         8.580464100000;     BAS[ATNO][  8].d[ 40] =        -0.118347897471;
  BAS[ATNO][  8].a[ 41] =         3.630104900000;     BAS[ATNO][  8].d[ 41] =        -0.161195238480;
  BAS[ATNO][  8].a[ 42] =         1.546528000000;     BAS[ATNO][  8].d[ 42] =         0.951829391535;
  BAS[ATNO][  8].a[ 43] =         0.661936900000;     BAS[ATNO][  8].d[ 43] =        -0.463167351369;
  BAS[ATNO][  8].a[ 44] =         0.284242800000;     BAS[ATNO][  8].d[ 44] =        -0.709237871147;
  BAS[ATNO][  8].a[ 45] =         0.122346300000;     BAS[ATNO][  8].d[ 45] =         0.702273457275;
  BAS[ATNO][  8].a[ 46] =         0.048938500000;     BAS[ATNO][  8].d[ 46] =         0.075032518674;

  // Basis function  10 L = d
  InitBFNGauss(BAS[ATNO][  9]);
  BAS[ATNO][  9].l  = 2;
  BAS[ATNO][  9].ng = 10;
  BAS[ATNO][  9].a[  0] =         4.328841700000;     BAS[ATNO][  9].d[  0] =         0.023696795819;
  BAS[ATNO][  9].a[  1] =         1.774230200000;     BAS[ATNO][  9].d[  1] =         0.164645982561;
  BAS[ATNO][  9].a[  2] =         0.727190600000;     BAS[ATNO][  9].d[  2] =         0.511795015900;
  BAS[ATNO][  9].a[  3] =         0.298048200000;     BAS[ATNO][  9].d[  3] =         0.259267690188;
  BAS[ATNO][  9].a[  4] =         0.119219300000;     BAS[ATNO][  9].d[  4] =         0.024473859190;
  BAS[ATNO][  9].a[  5] =         4.328841700000;     BAS[ATNO][  9].d[  5] =        -0.069706091630;
  BAS[ATNO][  9].a[  6] =         1.774230200000;     BAS[ATNO][  9].d[  6] =         0.386954219649;
  BAS[ATNO][  9].a[  7] =         0.727190600000;     BAS[ATNO][  9].d[  7] =         0.171176964892;
  BAS[ATNO][  9].a[  8] =         0.298048200000;     BAS[ATNO][  9].d[  8] =        -0.503790029191;
  BAS[ATNO][  9].a[  9] =         0.119219300000;     BAS[ATNO][  9].d[  9] =        -0.036194342161;

  // Basis function  11 L = d
  InitBFNGauss(BAS[ATNO][ 10]);
  BAS[ATNO][ 10].l  = 2;
  BAS[ATNO][ 10].ng = 10;
  BAS[ATNO][ 10].a[  0] =         4.328841700000;     BAS[ATNO][ 10].d[  0] =         0.014700295105;
  BAS[ATNO][ 10].a[  1] =         1.774230200000;     BAS[ATNO][ 10].d[  1] =         0.102138050648;
  BAS[ATNO][ 10].a[  2] =         0.727190600000;     BAS[ATNO][ 10].d[  2] =         0.317491775033;
  BAS[ATNO][ 10].a[  3] =         0.298048200000;     BAS[ATNO][ 10].d[  3] =         0.160836578336;
  BAS[ATNO][ 10].a[  4] =         0.119219300000;     BAS[ATNO][ 10].d[  4] =         0.015182345968;
  BAS[ATNO][ 10].a[  5] =         4.328841700000;     BAS[ATNO][ 10].d[  5] =         0.112365841879;
  BAS[ATNO][ 10].a[  6] =         1.774230200000;     BAS[ATNO][ 10].d[  6] =        -0.623768104657;
  BAS[ATNO][ 10].a[  7] =         0.727190600000;     BAS[ATNO][ 10].d[  7] =        -0.275936339571;
  BAS[ATNO][ 10].a[  8] =         0.298048200000;     BAS[ATNO][ 10].d[  8] =         0.812106796351;
  BAS[ATNO][ 10].a[  9] =         0.119219300000;     BAS[ATNO][ 10].d[  9] =         0.058345083378;

  // Basis function  12 L = f
  InitBFNGauss(BAS[ATNO][ 11]);
  BAS[ATNO][ 11].l  = 3;
  BAS[ATNO][ 11].ng = 4;
  BAS[ATNO][ 11].a[  0] =         1.631174000000;     BAS[ATNO][ 11].d[  0] =         0.245409970118;
  BAS[ATNO][ 11].a[  1] =         0.820328800000;     BAS[ATNO][ 11].d[  1] =         0.580760500278;
  BAS[ATNO][ 11].a[  2] =         0.412549100000;     BAS[ATNO][ 11].d[  2] =         0.264213740127;
  BAS[ATNO][ 11].a[  3] =         0.165019600000;     BAS[ATNO][ 11].d[  3] =         0.038934170019;

-------
TIMINGS
-------

Total SCF time: 0 days 0 hours 0 min 7 sec 

Total time                  ....       7.256 sec
Sum of individual times     ....       6.990 sec  ( 96.3%)

Fock matrix formation       ....       6.529 sec  ( 90.0%)
  XC integration            ....       0.021 sec  (  0.3% of F)
    Basis function eval.    ....       0.009 sec  ( 42.5% of XC)
    Density eval.           ....       0.001 sec  (  4.3% of XC)
    XC-Functional eval.     ....       0.001 sec  (  5.8% of XC)
    XC-Potential eval.      ....       0.001 sec  (  4.0% of XC)
Diagonalization             ....       0.000 sec  (  0.0%)
Density matrix formation    ....       0.000 sec  (  0.0%)
Population analysis         ....       0.001 sec  (  0.0%)
Initial guess               ....       0.076 sec  (  1.0%)
Orbital Transformation      ....       0.000 sec  (  0.0%)
Orbital Orthonormalization  ....       0.000 sec  (  0.0%)
DIIS solution               ....       0.000 sec  (  0.0%)
SOSCF solution              ....       0.001 sec  (  0.0%)
Grid generation             ....       0.382 sec  (  5.3%)

-------------------------   --------------------
FINAL SINGLE POINT ENERGY      -311.058765258528
-------------------------   --------------------


                            ***************************************
                            *     ORCA property calculations      *
                            ***************************************

                                    ---------------------
                                    Active property flags
                                    ---------------------
   (+) Dipole Moment


------------------------------------------------------------------------------
                       ORCA ELECTRIC PROPERTIES CALCULATION
------------------------------------------------------------------------------

Dipole Moment Calculation                       ... on
Quadrupole Moment Calculation                   ... off
Polarizability Calculation                      ... off
GBWName                                         ... Ar_ano-rcc-tzp_.gbw
Electron density file                           ... Ar_ano-rcc-tzp_.scfp
The origin for moment calculation is the CENTER OF MASS  = ( 0.000000,  0.000000  0.000000)

-------------
DIPOLE MOMENT
-------------
                                X             Y             Z
Electronic contribution:     -0.00000       0.00000      -0.00000
Nuclear contribution   :      0.00000       0.00000       0.00000
                        -----------------------------------------
Total Dipole Moment    :     -0.00000       0.00000      -0.00000
                        -----------------------------------------
Magnitude (a.u.)       :      0.00000
Magnitude (Debye)      :      0.00000



--------------------
Rotational spectrum 
--------------------
 
Rotational constants in cm-1:     0.000000     0.000000     0.000000 
Rotational constants in MHz :     0.000000     0.000000     0.000000 

 Dipole components along the rotational axes: 
x,y,z [a.u.] :    -0.000000     0.000000    -0.000000 
x,y,z [Debye]:    -0.000000     0.000000    -0.000000 

 

Timings for individual modules:

Sum of individual times         ...        7.952 sec (=   0.133 min)
GTO integral calculation        ...        0.431 sec (=   0.007 min)   5.4 %
SCF iterations                  ...        7.520 sec (=   0.125 min)  94.6 %
                             ****ORCA TERMINATED NORMALLY****
TOTAL RUN TIME: 0 days 0 hours 0 minutes 8 seconds 305 msec
