
                                 *****************
                                 * O   R   C   A *
                                 *****************

           --- An Ab Initio, DFT and Semiempirical electronic structure package ---

                  #######################################################
                  #                        -***-                        #
                  #          Department of theory and spectroscopy      #
                  #               Directorship: Frank Neese             #
                  #        Max Planck Institute fuer Kohlenforschung    #
                  #                Kaiser Wilhelm Platz 1               #
                  #                 D-45470 Muelheim/Ruhr               #
                  #                      Germany                        #
                  #                                                     #
                  #                  All rights reserved                #
                  #                        -***-                        #
                  #######################################################


                         Program Version 4.2.1 -  RELEASE  -


 With contributions from (in alphabetic order):
   Daniel Aravena         : Magnetic Suceptibility
   Michael Atanasov       : Ab Initio Ligand Field Theory (pilot matlab implementation)
   Alexander A. Auer      : GIAO ZORA, VPT2
   Ute Becker             : Parallelization
   Giovanni Bistoni       : ED, misc. LED, open-shell LED, HFLD
   Martin Brehm           : Molecular dynamics
   Dmytro Bykov           : SCF Hessian
   Vijay G. Chilkuri      : MRCI spin determinant printing, contributions to CSF-ICE
   Dipayan Datta          : RHF DLPNO-CCSD density
   Achintya Kumar Dutta   : EOM-CC, STEOM-CC
   Dmitry Ganyushin       : Spin-Orbit,Spin-Spin,Magnetic field MRCI
   Miquel Garcia          : C-PCM Hessian, Gaussian charge scheme
   Yang Guo               : DLPNO-NEVPT2, CIM, IAO-localization
   Andreas Hansen         : Spin unrestricted coupled pair/coupled cluster methods
   Benjamin Helmich-Paris : CASSCF linear response (MC-RPA)
   Lee Huntington         : MR-EOM, pCC
   Robert Izsak           : Overlap fitted RIJCOSX, COSX-SCS-MP3, EOM
   Christian Kollmar      : KDIIS, OOCD, Brueckner-CCSD(T), CCSD density
   Simone Kossmann        : Meta GGA functionals, TD-DFT gradient, OOMP2, MP2 Hessian
   Martin Krupicka        : AUTO-CI
   Lucas Lang             : DCDCAS
   Dagmar Lenk            : GEPOL surface, SMD
   Dimitrios Liakos       : Extrapolation schemes; Compound Job, initial MDCI parallelization
   Dimitrios Manganas     : Further ROCIS development; embedding schemes
   Dimitrios Pantazis     : SARC Basis sets
   Taras Petrenko         : DFT Hessian,TD-DFT gradient, ASA, ECA, R-Raman, ABS, FL, XAS/XES, NRVS
   Peter Pinski           : DLPNO-MP2, DLPNO-MP2 Gradient
   Christoph Reimann      : Effective Core Potentials
   Marius Retegan         : Local ZFS, SOC
   Christoph Riplinger    : Optimizer, TS searches, QM/MM, DLPNO-CCSD(T), (RO)-DLPNO pert. Triples
   Tobias Risthaus        : Range-separated hybrids, TD-DFT gradient, RPA, STAB
   Michael Roemelt        : Original ROCIS implementation
   Masaaki Saitow         : Open-shell DLPNO-CCSD energy and density
   Barbara Sandhoefer     : DKH picture change effects
   Avijit Sen             : IP-ROCIS
   Kantharuban Sivalingam : CASSCF convergence, NEVPT2, FIC-MRCI
   Bernardo de Souza      : ESD, SOC TD-DFT
   Georgi Stoychev        : AutoAux, RI-MP2 NMR
   Willem Van den Heuvel  : Paramagnetic NMR
   Boris Wezisla          : Elementary symmetry handling
   Frank Wennmohs         : Technical directorship


 We gratefully acknowledge several colleagues who have allowed us to
 interface, adapt or use parts of their codes:
   Stefan Grimme, W. Hujo, H. Kruse,             : VdW corrections, initial TS optimization,
                  C. Bannwarth                     DFT functionals, gCP, sTDA/sTD-DF
   Ed Valeev, F. Pavosevic, A. Kumar             : LibInt (2-el integral package), F12 methods
   Garnet Chan, S. Sharma, J. Yang, R. Olivares  : DMRG
   Ulf Ekstrom                                   : XCFun DFT Library
   Mihaly Kallay                                 : mrcc  (arbitrary order and MRCC methods)
   Andreas Klamt, Michael Diedenhofen            : otool_cosmo (COSMO solvation model)
   Jiri Pittner, Ondrej Demel                    : Mk-CCSD
   Frank Weinhold                                : gennbo (NPA and NBO analysis)
   Christopher J. Cramer and Donald G. Truhlar   : smd solvation model
   Lars Goerigk                                  : TD-DFT with DH, B97 family of functionals
   V. Asgeirsson, H. Jonsson                     : NEB implementation
   FAccTs GmbH                                   : IRC, NEB, NEB-TS, Multilevel, MM, QM/MM, CI optimization
   S Lehtola, MJT Oliveira, MAL Marques          : LibXC Library


 Your calculation uses the libint2 library for the computation of 2-el integrals
 For citations please refer to: http://libint.valeyev.net

 Your ORCA version has been built with support for libXC version: 4.2.3
 For citations please refer to: https://tddft.org/programs/libxc/

 This ORCA versions uses:
   CBLAS   interface :  Fast vector & matrix operations
   LAPACKE interface :  Fast linear algebra routines
   SCALAPACK package :  Parallel linear algebra routines


----- Orbital basis set information -----
Your calculation utilizes the basis: ANO-RCC-DZP
   H, He:       P.-O. Widmark, P.-A. Malmqvist, and B. O. Roos, Theor. Chim. Acta 77, 291 (1990).
   s block:     B. O. Roos, V. Veryazov and P.-O. Widmark, Theor. Chem. Acc. 111, 345 (2004).
   p block:     B. O. Roos, R. Lindh, P.-A. Malmqvist, V. Veryazov, and P.-O. Widmark, J. Phys. Chem. A 108, 2851 (2004).
   d block:     B. O. Roos, R. Lindh, P.-A. Malmqvist, V. Veryazov, and P.-O. Widmark, J. Phys. Chem. A 109, 6575 (2005).
   actinides:   B. O. Roos, R. Lindh, P.-A. Malmqvist, V. Veryazov, and P.-O. Widmark, Chem. Phys. Letters 409, 295 (2005).
   lanthanides: B. O. Roos, R. Lindh, P.-A. Malmqvist, V. Veryazov, P.-O. Widmark and A. C. Borin, J. Phys. Chem. A 112, 11431 (2008).

================================================================================
                                        WARNINGS
                       Please study these warnings very carefully!
================================================================================


INFO   : the flag for use of LIBINT has been found!

================================================================================
                                       INPUT FILE
================================================================================
NAME = Ar_ano-rcc-dzp_.inp
|  1> ! LDA ano-rcc-dzp nori grid5 finalgrid6 verytightscf
|  2> %Pal NProcs 18 End
|  3> 
|  4> *xyz 16 1
|  5> Ar 0.0 0.0 0.0
|  6> **                         ****END OF INPUT****
================================================================================

                       ****************************
                       * Single Point Calculation *
                       ****************************

---------------------------------
CARTESIAN COORDINATES (ANGSTROEM)
---------------------------------
  Ar     0.000000    0.000000    0.000000

----------------------------
CARTESIAN COORDINATES (A.U.)
----------------------------
  NO LB      ZA    FRAG     MASS         X           Y           Z
   0 Ar   18.0000    0    39.948    0.000000    0.000000    0.000000

--------------------------------
INTERNAL COORDINATES (ANGSTROEM)
--------------------------------
 Ar     0   0   0     0.000000000000     0.00000000     0.00000000

---------------------------
INTERNAL COORDINATES (A.U.)
---------------------------
 Ar     0   0   0     0.000000000000     0.00000000     0.00000000

---------------------
BASIS SET INFORMATION
---------------------
There are 1 groups of distinct atoms

 Group   1 Type Ar  : 68s36p5d contracted to 4s3p1d pattern {17171717/121212/5}

Atom   0Ar   basis set group =>   1

Checking for AutoStart:
The File: Ar_ano-rcc-dzp_.gbw exists
Trying to determine its content:
     ... Fine, the file contains calculation information
     ... Fine, the calculation information was read
     ... Fine, the file contains a basis set
     ... Fine, the basis set was read
     ... Fine, the file contains a geometry
     ... Fine, the geometry was read
     ... Fine, the file contains a set of orbitals
     ... Fine, the orbitals can be read
     => possible old guess file was deleted
     => GBW file was renamed to GES file
     => GES file is set as startup file
     => Guess is set to MORead
     ... now leaving AutoStart



           ************************************************************
           *        Program running with 18 parallel MPI-processes    *
           *              working on a common directory               *
           ************************************************************


------------------------------------------------------------------------------
                       ORCA GTO INTEGRAL CALCULATION
                     -- ANO INTEGRAL GENERATION BRANCH --
------------------------------------------------------------------------------


Gathering ANO information                         ... done
Calculation Information:
Number of atoms                                   ... 1
Number of basis functions                         ... 18
Highest angular momentum                          ... 2
Number of primitive shells                        ... 34
Total number of shells                            ... 8
Maximum number of shells                          ... 8

Getting memory                                    ... done
Making prescreening integrals                     ... done
Gathering atom contracted prescreening            ... done
Making one-electron integrals                     ... done

Timings:

Total time                                        ...    0.1 sec
Prescreening matrix                               ...    0.1 sec
One-electron matrix                               ...    0.0 sec
Two-index integrals + Cholesky                    ...    0.0 sec


           ************************************************************
           *        Program running with 18 parallel MPI-processes    *
           *              working on a common directory               *
           ************************************************************
-------------------------------------------------------------------------------
                                 ORCA SCF
-------------------------------------------------------------------------------

------------
SCF SETTINGS
------------
Hamiltonian:
 Density Functional     Method          .... DFT(GTOs)
 Exchange Functional    Exchange        .... Slater
   X-Alpha parameter    XAlpha          ....  0.666667
 Correlation Functional Correlation     .... VWN-5
 Gradients option       PostSCFGGA      .... off
   Density functional embedding theory  .... OFF


General Settings:
 Integral files         IntName         .... Ar_ano-rcc-dzp_
 Hartree-Fock type      HFTyp           .... RHF
 Total Charge           Charge          ....   16
 Multiplicity           Mult            ....    1
 Number of Electrons    NEL             ....    2
 Basis Dimension        Dim             ....   18
 Nuclear Repulsion      ENuc            ....      0.0000000000 Eh

Convergence Acceleration:
 DIIS                   CNVDIIS         .... on
   Start iteration      DIISMaxIt       ....    12
   Startup error        DIISStart       ....  0.200000
   # of expansion vecs  DIISMaxEq       ....     5
   Bias factor          DIISBfac        ....   1.050
   Max. coefficient     DIISMaxC        ....  10.000
 Newton-Raphson         CNVNR           .... off
 SOSCF                  CNVSOSCF        .... on
   Start iteration      SOSCFMaxIt      ....   150
   Startup grad/error   SOSCFStart      ....  0.003300
 Level Shifting         CNVShift        .... on
   Level shift para.    LevelShift      ....    0.2500
   Turn off err/grad.   ShiftErr        ....    0.0010
 Zerner damping         CNVZerner       .... off
 Static damping         CNVDamp         .... on
   Fraction old density DampFac         ....    0.7000
   Max. Damping (<1)    DampMax         ....    0.9800
   Min. Damping (>=0)   DampMin         ....    0.0000
   Turn off err/grad.   DampErr         ....    0.1000
 Fernandez-Rico         CNVRico         .... off

SCF Procedure:
 Maximum # iterations   MaxIter         ....   125
 SCF integral mode      SCFMode         .... Direct
   Integral package                     .... LIBINT
 Reset frequency        DirectResetFreq ....    20
 Integral Threshold     Thresh          ....  1.000e-12 Eh
 Primitive CutOff       TCut            ....  1.000e-14 Eh

Convergence Tolerance:
 Convergence Check Mode ConvCheckMode   .... Total+1el-Energy
 Convergence forced     ConvForced      .... 0
 Energy Change          TolE            ....  1.000e-09 Eh
 1-El. energy change                    ....  1.000e-06 Eh
 Orbital Gradient       TolG            ....  2.000e-06
 Orbital Rotation angle TolX            ....  2.000e-06
 DIIS Error             TolErr          ....  1.000e-08


Diagonalization of the overlap matrix:
Smallest eigenvalue                        ... 1.000e+00
Time for diagonalization                   ...    0.001 sec
Threshold for overlap eigenvalues          ... 1.000e-08
Number of eigenvalues below threshold      ... 0
Time for construction of square roots      ...    0.001 sec
Total time needed                          ...    0.002 sec

---------------------
INITIAL GUESS: MOREAD
---------------------
Guess MOs are being read from file: Ar_ano-rcc-dzp_.ges
Input Geometry matches current geometry (good)
Input basis set matches current basis set (good)
MOs were renormalized
MOs were reorthogonalized (Cholesky)
                      ------------------
                      INITIAL GUESS DONE (   0.0 sec)
                      ------------------
-------------------
DFT GRID GENERATION
-------------------

General Integration Accuracy     IntAcc      ...  5.010
Radial Grid Type                 RadialGrid  ... Gauss-Chebyshev
Angular Grid (max. acc.)         AngularGrid ... Lebedev-434
Angular grid pruning method      GridPruning ... 3 (G Style)
Weight generation scheme         WeightScheme... Becke
Basis function cutoff            BFCut       ...    1.0000e-12
Integration weight cutoff        WCut        ...    1.0000e-14
Grids for H and He will be reduced by one unit

# of grid points (after initial pruning)     ...  11992 (   0.0 sec)
# of grid points (after weights+screening)   ...  11992 (   0.0 sec)
Grid point division into batches done        ...    0.1 sec
Reduced shell lists constructed in    0.1 sec

Total number of grid points                  ...    11992
Total number of batches                      ...      188
Average number of points per batch           ...       63
Average number of grid points per atom       ...    11992
Average number of shells per batch           ...     3.50 (43.75%)
Average number of basis functions per batch  ...     9.67 (53.70%)
Average number of large shells per batch     ...     2.25 (64.29%)
Average number of large basis fcns per batch ...     5.92 (61.21%)
Maximum spatial batch extension              ...  18.71, 18.71, 18.71 au
Average spatial batch extension              ...   0.97,  0.98,  0.97 au

Time for grid setup =    0.151 sec

--------------
SCF ITERATIONS
--------------
ITER       Energy         Delta-E        Max-DP      RMS-DP      [F,P]     Damp
               ***  Starting incremental Fock matrix formation  ***
                      *** Initiating the SOSCF procedure ***
                      *** Re-Reading the Fockian *** 
                      *** Removing any level shift *** 
ITER      Energy       Delta-E        Grad      Rot      Max-DP    RMS-DP
  0   -311.05873247 -311.0587324680  0.000000  0.000000  0.000000  0.000000
               *** Restarting incremental Fock matrix formation ***
                 **** Energy Check signals convergence ****
              ***Rediagonalizing the Fockian in SOSCF/NRSCF***

               *****************************************************
               *                     SUCCESS                       *
               *           SCF CONVERGED AFTER   1 CYCLES          *
               *****************************************************

Setting up the final grid:

General Integration Accuracy     IntAcc      ...  5.340
Radial Grid Type                 RadialGrid  ... Gauss-Chebyshev
Angular Grid (max. acc.)         AngularGrid ... Lebedev-590
Angular grid pruning method      GridPruning ... 3 (G Style)
Weight generation scheme         WeightScheme... Becke
Basis function cutoff            BFCut       ...    1.0000e-12
Integration weight cutoff        WCut        ...    1.0000e-14
Grids for H and He will be reduced by one unit

# of grid points (after initial pruning)     ...  18110 (   0.0 sec)
# of grid points (after weights+screening)   ...  18110 (   0.0 sec)
Grid point division into batches done        ...    0.2 sec
Reduced shell lists constructed in    0.2 sec

Total number of grid points                  ...    18110
Total number of batches                      ...      283
Average number of points per batch           ...       63
Average number of grid points per atom       ...    18110
Average number of shells per batch           ...     1.18 (14.71%)
Average number of basis functions per batch  ...     3.53 (19.61%)
Average number of large shells per batch     ...     0.59 (50.00%)
Average number of large basis fcns per batch ...     1.76 (50.00%)
Maximum spatial batch extension              ...  19.03, 19.03, 19.03 au
Average spatial batch extension              ...   0.84,  0.84,  0.80 au

Final grid set up in    0.2 sec
Final integration                            ... done (   0.0 sec)
Change in XC energy                          ...     0.000014063
Integrated number of electrons               ...     2.000000249
Previous integrated no of electrons          ...     2.000000960

----------------
TOTAL SCF ENERGY
----------------

Total Energy       :         -311.05871841 Eh           -8464.33805 eV

Components:
Nuclear Repulsion  :            0.00000000 Eh               0.00000 eV
Electronic Energy  :         -311.05871841 Eh           -8464.33805 eV
One Electron Energy:         -323.42685508 Eh           -8800.89216 eV
Two Electron Energy:           12.36813668 Eh             336.55411 eV

Virial components:
Potential Energy   :         -630.51916692 Eh          -17157.29879 eV
Kinetic Energy     :          319.46044851 Eh            8692.96075 eV
Virial Ratio       :            1.97370025


DFT components:
N(Alpha)           :        1.000000124392 electrons
N(Beta)            :        1.000000124392 electrons
N(Total)           :        2.000000248785 electrons
E(X)               :       -9.486840176338 Eh       
E(C)               :       -0.237076948231 Eh       
E(XC)              :       -9.723917124569 Eh       
DFET-embed. en.    :        0.000000000000 Eh       

---------------
SCF CONVERGENCE
---------------

  Last Energy change         ...    0.0000e+00  Tolerance :   1.0000e-09
  Last MAX-Density change    ...    0.0000e+00  Tolerance :   1.0000e-08
  Last RMS-Density change    ...    0.0000e+00  Tolerance :   1.0000e-09
  Last Orbital Gradient      ...    3.1172e-13  Tolerance :   2.0000e-06
  Last Orbital Rotation      ...    0.0000e+00  Tolerance :   2.0000e-06

================================================================================
                                        WARNING
Number of found core electrons (2) does not match given number of chemical core electrons (10)
================================================================================
             **** THE GBW FILE WAS UPDATED (Ar_ano-rcc-dzp_.gbw) ****
             **** DENSITY FILE WAS UPDATED (Ar_ano-rcc-dzp_.scfp) ****
             **** ENERGY FILE WAS UPDATED (Ar_ano-rcc-dzp_.en.tmp) ****
             **** THE GBW FILE WAS UPDATED (Ar_ano-rcc-dzp_.gbw) ****
             **** DENSITY FILE WAS UPDATED (Ar_ano-rcc-dzp_.scfp) ****
----------------
ORBITAL ENERGIES
----------------

  NO   OCC          E(Eh)            E(eV) 
   0   2.0000    -146.074033     -3974.8765 
   1   0.0000     -33.691690      -916.7975 
   2   0.0000     -32.514994      -884.7780 
   3   0.0000     -32.514994      -884.7780 
   4   0.0000     -32.514994      -884.7780 
   5   0.0000     -13.435391      -365.5956 
   6   0.0000     -12.170963      -331.1887 
   7   0.0000     -12.170963      -331.1887 
   8   0.0000     -12.170963      -331.1887 
   9   0.0000      -9.339430      -254.1388 
  10   0.0000      -9.339430      -254.1388 
  11   0.0000      -9.339430      -254.1388 
  12   0.0000      -9.339430      -254.1388 
  13   0.0000      -9.339430      -254.1388 
  14   0.0000      -6.742998      -183.4863 
  15   0.0000      -5.702247      -155.1660 
  16   0.0000      -5.702246      -155.1660 
  17   0.0000      -5.702246      -155.1660 

                    ********************************
                    * MULLIKEN POPULATION ANALYSIS *
                    ********************************

-----------------------
MULLIKEN ATOMIC CHARGES
-----------------------
   0 Ar:   16.000000
Sum of atomic charges:   16.0000000

--------------------------------
MULLIKEN REDUCED ORBITAL CHARGES
--------------------------------
  0 Ars       :     2.000000  s :     2.000000
      pz      :     0.000000  p :     0.000000
      px      :     0.000000
      py      :     0.000000
      dz2     :     0.000000  d :     0.000000
      dxz     :     0.000000
      dyz     :     0.000000
      dx2y2   :     0.000000
      dxy     :     0.000000


                     *******************************
                     * LOEWDIN POPULATION ANALYSIS *
                     *******************************

----------------------
LOEWDIN ATOMIC CHARGES
----------------------
   0 Ar:   16.000000

-------------------------------
LOEWDIN REDUCED ORBITAL CHARGES
-------------------------------
  0 Ars       :     2.000000  s :     2.000000
      pz      :     0.000000  p :     0.000000
      px      :     0.000000
      py      :     0.000000
      dz2     :     0.000000  d :     0.000000
      dxz     :     0.000000
      dyz     :     0.000000
      dx2y2   :     0.000000
      dxy     :     0.000000


                      *****************************
                      * MAYER POPULATION ANALYSIS *
                      *****************************

  NA   - Mulliken gross atomic population
  ZA   - Total nuclear charge
  QA   - Mulliken gross atomic charge
  VA   - Mayer's total valence
  BVA  - Mayer's bonded valence
  FA   - Mayer's free valence

  ATOM       NA         ZA         QA         VA         BVA        FA
  0 Ar     2.0000    18.0000    16.0000    -0.0000     0.0000    -0.0000

  Mayer bond orders larger than 0.100000


--------------------------
ATOM BASIS FOR ELEMENT Ar
--------------------------
 NewGTO Ar
 S 68
    1     455476.770000000019         0.000319857319
    2      64817.743000000002         0.001011611519
    3      19256.987000000001         0.002170201806
    4       6877.007300000000         0.005962900011
    5       2643.487700000000         0.015907986638
    6       1054.237500000000         0.044046520744
    7        429.371220000000         0.114459260451
    8        177.188590000000         0.254626535384
    9         73.763945000000         0.398474319461
   10         30.897007000000         0.278947621492
   11         12.999482000000         0.038335018625
   12          5.487679300000         0.003118583856
   13          2.322571600000        -0.001384658392
   14          0.984980700000         0.001002731594
   15          0.418397300000        -0.000643174608
   16          0.177959400000         0.000282017636
   17          0.071183800000        -0.000076279361
   18     455476.770000000019         0.000000367063
   19      64817.743000000002         0.000001162507
   20      19256.987000000001         0.000002500865
   21       6877.007300000000         0.000006894152
   22       2643.487700000000         0.000018572675
   23       1054.237500000000         0.000052362002
   24        429.371220000000         0.000142523473
   25        177.188590000000         0.000351184458
   26         73.763945000000         0.000700747992
   27         30.897007000000         0.000745106753
   28         12.999482000000        -0.000549046099
   29          5.487679300000        -0.002545213959
   30          2.322571600000        -0.001531998495
   31          0.984980700000        -0.000019951336
   32          0.418397300000        -0.000047046265
   33          0.177959400000         0.000017869588
   34          0.071183800000        -0.000005178384
   35     455476.770000000019         0.000000018538
   36      64817.743000000002         0.000000058661
   37      19256.987000000001         0.000000126659
   38       6877.007300000000         0.000000347101
   39       2643.487700000000         0.000000944046
   40       1054.237500000000         0.000002639584
   41        429.371220000000         0.000007296093
   42        177.188590000000         0.000017951918
   43         73.763945000000         0.000037291331
   44         30.897007000000         0.000040496336
   45         12.999482000000        -0.000031262198
   46          5.487679300000        -0.000211666771
   47          2.322571600000        -0.000224118541
   48          0.984980700000         0.000219925801
   49          0.418397300000         0.000436757175
   50          0.177959400000         0.000164122800
   51          0.071183800000         0.000002911659
   52     455476.770000000019         0.000000018342
   53      64817.743000000002         0.000000058022
   54      19256.987000000001         0.000000125372
   55       6877.007300000000         0.000000343402
   56       2643.487700000000         0.000000934726
   57       1054.237500000000         0.000002616234
   58        429.371220000000         0.000007244254
   59        177.188590000000         0.000017923526
   60         73.763945000000         0.000037695810
   61         30.897007000000         0.000041902661
   62         12.999482000000        -0.000045843807
   63          5.487679300000        -0.000220840373
   64          2.322571600000        -0.000353792665
   65          0.984980700000         0.001006543558
   66          0.418397300000         0.000001416227
   67          0.177959400000        -0.000628683891
   68          0.071183800000        -0.000024357163
 S 67
    1     455476.770000000019        -0.000001305550
    2      64817.743000000002        -0.000004129059
    3      19256.987000000001        -0.000008858036
    4       6877.007300000000        -0.000024338559
    5       2643.487700000000        -0.000064931069
    6       1054.237500000000        -0.000179783133
    7        429.371220000000        -0.000467184333
    8        177.188590000000        -0.001039300163
    9         73.763945000000        -0.001626438597
   10         30.897007000000        -0.001138570683
   11         12.999482000000        -0.000156470696
   12          5.487679300000        -0.000012729014
   13          2.322571600000         0.000005651711
   14          0.984980700000        -0.000004092814
   15          0.418397300000         0.000002625223
   16          0.177959400000        -0.000001151101
   17     455476.770000000019         0.000090870098
   18      64817.743000000002         0.000287790058
   19      19256.987000000001         0.000619113972
   20       6877.007300000000         0.001706715768
   21       2643.487700000000         0.004597850245
   22       1054.237500000000         0.012962734154
   23        429.371220000000         0.035283102826
   24        177.188590000000         0.086939204340
   25         73.763945000000         0.173477132761
   26         30.897007000000         0.184458585055
   27         12.999482000000        -0.135921820800
   28          5.487679300000        -0.630093021590
   29          2.322571600000        -0.379261459505
   30          0.984980700000        -0.004939151701
   31          0.418397300000        -0.011646770728
   32          0.177959400000         0.004423794246
   33          0.071183800000        -0.001281960357
   34     455476.770000000019         0.000002631845
   35      64817.743000000002         0.000008327956
   36      19256.987000000001         0.000017981393
   37       6877.007300000000         0.000049276772
   38       2643.487700000000         0.000134022916
   39       1054.237500000000         0.000374732517
   40        429.371220000000         0.001035800871
   41        177.188590000000         0.002548571113
   42         73.763945000000         0.005294120046
   43         30.897007000000         0.005749123387
   44         12.999482000000        -0.004438184993
   45          5.487679300000        -0.030049591999
   46          2.322571600000        -0.031817326228
   47          0.984980700000         0.031222097702
   48          0.418397300000         0.062004890277
   49          0.177959400000         0.023299940475
   50          0.071183800000         0.000413358100
   51     455476.770000000019         0.000002658362
   52      64817.743000000002         0.000008409579
   53      19256.987000000001         0.000018170921
   54       6877.007300000000         0.000049771473
   55       2643.487700000000         0.000135475989
   56       1054.237500000000         0.000379187937
   57        429.371220000000         0.001049957018
   58        177.188590000000         0.002597773599
   59         73.763945000000         0.005463499759
   60         30.897007000000         0.006073226195
   61         12.999482000000        -0.006644442207
   62          5.487679300000        -0.032007836615
   63          2.322571600000        -0.051277480005
   64          0.984980700000         0.145884927242
   65          0.418397300000         0.000205263040
   66          0.177959400000        -0.091119259579
   67          0.071183800000        -0.003530242563
 S 65
    1     455476.770000000019        -0.000000110825
    2      64817.743000000002        -0.000000350504
    3      19256.987000000001        -0.000000751934
    4       6877.007300000000        -0.000002066032
    5       2643.487700000000        -0.000005511818
    6       1054.237500000000        -0.000015261289
    7        429.371220000000        -0.000039657977
    8        177.188590000000        -0.000088223296
    9         73.763945000000        -0.000138063842
   10         30.897007000000        -0.000096650093
   11         12.999482000000        -0.000013282361
   12          5.487679300000        -0.000001080531
   13          2.322571600000         0.000000479758
   14          0.984980700000        -0.000000347428
   15     455476.770000000019        -0.000010807287
   16      64817.743000000002        -0.000034227207
   17      19256.987000000001        -0.000073631946
   18       6877.007300000000        -0.000202981696
   19       2643.487700000000        -0.000546827690
   20       1054.237500000000        -0.001541673085
   21        429.371220000000        -0.004196260552
   22        177.188590000000        -0.010339780926
   23         73.763945000000        -0.020631837639
   24         30.897007000000        -0.021937874563
   25         12.999482000000         0.016165340606
   26          5.487679300000         0.074937697621
   27          2.322571600000         0.045106007522
   28          0.984980700000         0.000587419070
   29          0.418397300000         0.001385164020
   30          0.177959400000        -0.000526127007
   31          0.071183800000         0.000152465040
   32     455476.770000000019         0.000024673481
   33      64817.743000000002         0.000078074370
   34      19256.987000000001         0.000168575094
   35       6877.007300000000         0.000461968473
   36       2643.487700000000         0.001256461392
   37       1054.237500000000         0.003513107700
   38        429.371220000000         0.009710606501
   39        177.188590000000         0.023892788573
   40         73.763945000000         0.049632239130
   41         30.897007000000         0.053897883735
   42         12.999482000000        -0.041607870045
   43          5.487679300000        -0.281714151335
   44          2.322571600000        -0.298286614225
   45          0.984980700000         0.292706362111
   46          0.418397300000         0.581294249975
   47          0.177959400000         0.218436342074
   48          0.071183800000         0.003875221546
   49     455476.770000000019         0.000017329785
   50      64817.743000000002         0.000054821816
   51      19256.987000000001         0.000118455731
   52       6877.007300000000         0.000324458856
   53       2643.487700000000         0.000883164224
   54       1054.237500000000         0.002471915673
   55        429.371220000000         0.006844640754
   56        177.188590000000         0.016934814221
   57         73.763945000000         0.035616403775
   58         30.897007000000         0.039591193538
   59         12.999482000000        -0.043314934919
   60          5.487679300000        -0.208658201351
   61          2.322571600000        -0.334276473481
   62          0.984980700000         0.951019804562
   63          0.418397300000         0.001338104077
   64          0.177959400000        -0.594003932244
   65          0.071183800000        -0.023013553600
 S 63
    1     455476.770000000019        -0.000000016230
    2      64817.743000000002        -0.000000051330
    3      19256.987000000001        -0.000000110118
    4       6877.007300000000        -0.000000302562
    5       2643.487700000000        -0.000000807183
    6       1054.237500000000        -0.000002234954
    7        429.371220000000        -0.000005807751
    8        177.188590000000        -0.000012919946
    9         73.763945000000        -0.000020218893
   10         30.897007000000        -0.000014154016
   11         12.999482000000        -0.000001945148
   12          5.487679300000        -0.000000158239
   13     455476.770000000019        -0.000001853074
   14      64817.743000000002        -0.000005868776
   15      19256.987000000001        -0.000012625319
   16       6877.007300000000        -0.000034804305
   17       2643.487700000000        -0.000093761940
   18       1054.237500000000        -0.000264343343
   19        429.371220000000        -0.000719512816
   20        177.188590000000        -0.001772913001
   21         73.763945000000        -0.003537642958
   22         30.897007000000        -0.003761582891
   23         12.999482000000         0.002771793980
   24          5.487679300000         0.012849210184
   25          2.322571600000         0.007734112331
   26          0.984980700000         0.000100721951
   27          0.418397300000         0.000237507479
   28          0.177959400000        -0.000090212493
   29          0.071183800000         0.000026142454
   30     455476.770000000019        -0.000014835110
   31      64817.743000000002        -0.000046942782
   32      19256.987000000001        -0.000101356999
   33       6877.007300000000        -0.000277761896
   34       2643.487700000000        -0.000755456528
   35       1054.237500000000        -0.002112281493
   36        429.371220000000        -0.005838572612
   37        177.188590000000        -0.014365712478
   38         73.763945000000        -0.029841743872
   39         30.897007000000        -0.032406493639
   40         12.999482000000         0.025017033740
   41          5.487679300000         0.169382677399
   42          2.322571600000         0.179346990949
   43          0.984980700000        -0.175991823879
   44          0.418397300000        -0.349507385237
   45          0.177959400000        -0.131336435484
   46          0.071183800000        -0.002330005070
   47     455476.770000000019         0.000029294213
   48      64817.743000000002         0.000092670622
   49      19256.987000000001         0.000200237188
   50       6877.007300000000         0.000548464210
   51       2643.487700000000         0.001492897975
   52       1054.237500000000         0.004178518335
   53        429.371220000000         0.011570158802
   54        177.188590000000         0.028626555701
   55         73.763945000000         0.060205854830
   56         30.897007000000         0.066924826712
   57         12.999482000000        -0.073219427211
   58          5.487679300000        -0.352715155050
   59          2.322571600000        -0.565059879795
   60          0.984980700000         1.607600830688
   61          0.418397300000         0.002261926845
   62          0.177959400000        -1.004102343955
   63          0.071183800000        -0.038902037273
 P 36
    1       1462.496200000000         0.000953780877
    2        354.067310000000         0.006154816552
    3        126.697790000000         0.025542890319
    4         49.989095000000         0.092206123411
    5         20.509295000000         0.241884627670
    6          8.580464100000         0.412818981541
    7          3.630104900000         0.341251292325
    8          1.546528000000         0.072310580978
    9          0.661936900000         0.003484589083
   10          0.284242800000         0.000287932166
   11          0.122346300000         0.000472075867
   12          0.048938500000        -0.000084748348
   13       1462.496200000000         0.000026232107
   14        354.067310000000         0.000169975718
   15        126.697790000000         0.000711359128
   16         49.989095000000         0.002623054638
   17         20.509295000000         0.007108353808
   18          8.580464100000         0.012747932319
   19          3.630104900000         0.010537419017
   20          1.546528000000        -0.015473095354
   21          0.661936900000        -0.042710757828
   22          0.284242800000        -0.039178959875
   23          0.122346300000        -0.014014268690
   24          0.048938500000        -0.000646242362
   25       1462.496200000000         0.000029090062
   26        354.067310000000         0.000176940976
   27        126.697790000000         0.000805347053
   28         49.989095000000         0.002740443504
   29         20.509295000000         0.008317044018
   30          8.580464100000         0.012436277525
   31          3.630104900000         0.015175894223
   32          1.546528000000        -0.038922690758
   33          0.661936900000        -0.063609399959
   34          0.284242800000         0.044132433746
   35          0.122346300000         0.052281893672
   36          0.048938500000         0.005381142711
 P 36
    1       1462.496200000000        -0.000122464725
    2        354.067310000000        -0.000790273674
    3        126.697790000000        -0.003279687315
    4         49.989095000000        -0.011839194765
    5         20.509295000000        -0.031057798677
    6          8.580464100000        -0.053005637201
    7          3.630104900000        -0.043816401387
    8          1.546528000000        -0.009284622540
    9          0.661936900000        -0.000447418537
   10          0.284242800000        -0.000036970267
   11          0.122346300000        -0.000060614175
   12          0.048938500000         0.000010881622
   13       1462.496200000000         0.000227535314
   14        354.067310000000         0.001474356518
   15        126.697790000000         0.006170275272
   16         49.989095000000         0.022752177521
   17         20.509295000000         0.061657323256
   18          8.580464100000         0.110574600688
   19          3.630104900000         0.091400775503
   20          1.546528000000        -0.134212458716
   21          0.661936900000        -0.370469882765
   22          0.284242800000        -0.339835334468
   23          0.122346300000        -0.121558706581
   24          0.048938500000        -0.005605457366
   25       1462.496200000000         0.000184345160
   26        354.067310000000         0.001121283698
   27        126.697790000000         0.005103524014
   28         49.989095000000         0.017366325713
   29         20.509295000000         0.052705518350
   30          8.580464100000         0.078809304349
   31          3.630104900000         0.096170390548
   32          1.546528000000        -0.246655011979
   33          0.661936900000        -0.403095906359
   34          0.284242800000         0.279669410372
   35          0.122346300000         0.331312940059
   36          0.048938500000         0.034100566894
 P 35
    1       1462.496200000000        -0.000018558770
    2        354.067310000000        -0.000119761078
    3        126.697790000000        -0.000497016287
    4         49.989095000000        -0.001794156594
    5         20.509295000000        -0.004706616911
    6          8.580464100000        -0.008032675820
    7          3.630104900000        -0.006640104082
    8          1.546528000000        -0.001407027005
    9          0.661936900000        -0.000067803506
   10          0.284242800000        -0.000005602615
   11          0.122346300000        -0.000009185703
   12       1462.496200000000        -0.000153316479
   13        354.067310000000        -0.000993442056
   14        126.697790000000        -0.004157617834
   15         49.989095000000        -0.015330735642
   16         20.509295000000        -0.041545567337
   17          8.580464100000        -0.074506713495
   18          3.630104900000        -0.061587121738
   19          1.546528000000         0.090434233059
   20          0.661936900000         0.249627791934
   21          0.284242800000         0.228985804544
   22          0.122346300000         0.081907957774
   23          0.048938500000         0.003777035625
   24       1462.496200000000         0.000278561879
   25        354.067310000000         0.001694359068
   26        126.697790000000         0.007711877206
   27         49.989095000000         0.026242057655
   28         20.509295000000         0.079642710503
   29          8.580464100000         0.119087845215
   30          3.630104900000         0.145321985499
   31          1.546528000000        -0.372717588751
   32          0.661936900000        -0.609113648442
   33          0.284242800000         0.422605271405
   34          0.122346300000         0.500643222896
   35          0.048938500000         0.051528979548
 D 5
    1          4.328841700000         0.027886140074
    2          1.774230200000         0.193753660516
    3          0.727190600000         0.602274991605
    4          0.298048200000         0.305103490813
    5          0.119219300000         0.028800580077
 end
  // -----------------------------------------------
  // The basis set
  // -----------------------------------------------
  BAS[ATNO] = new BFNGauss[NSH];
  // Basis function   1 L = s
  InitBFNGauss(BAS[ATNO][  0]);
  BAS[ATNO][  0].l  = 0;
  BAS[ATNO][  0].ng = 68;
  BAS[ATNO][  0].a[  0] =    455476.770000000019;     BAS[ATNO][  0].d[  0] =         0.000319857319;
  BAS[ATNO][  0].a[  1] =     64817.743000000002;     BAS[ATNO][  0].d[  1] =         0.001011611519;
  BAS[ATNO][  0].a[  2] =     19256.987000000001;     BAS[ATNO][  0].d[  2] =         0.002170201806;
  BAS[ATNO][  0].a[  3] =      6877.007300000000;     BAS[ATNO][  0].d[  3] =         0.005962900011;
  BAS[ATNO][  0].a[  4] =      2643.487700000000;     BAS[ATNO][  0].d[  4] =         0.015907986638;
  BAS[ATNO][  0].a[  5] =      1054.237500000000;     BAS[ATNO][  0].d[  5] =         0.044046520744;
  BAS[ATNO][  0].a[  6] =       429.371220000000;     BAS[ATNO][  0].d[  6] =         0.114459260451;
  BAS[ATNO][  0].a[  7] =       177.188590000000;     BAS[ATNO][  0].d[  7] =         0.254626535384;
  BAS[ATNO][  0].a[  8] =        73.763945000000;     BAS[ATNO][  0].d[  8] =         0.398474319461;
  BAS[ATNO][  0].a[  9] =        30.897007000000;     BAS[ATNO][  0].d[  9] =         0.278947621492;
  BAS[ATNO][  0].a[ 10] =        12.999482000000;     BAS[ATNO][  0].d[ 10] =         0.038335018625;
  BAS[ATNO][  0].a[ 11] =         5.487679300000;     BAS[ATNO][  0].d[ 11] =         0.003118583856;
  BAS[ATNO][  0].a[ 12] =         2.322571600000;     BAS[ATNO][  0].d[ 12] =        -0.001384658392;
  BAS[ATNO][  0].a[ 13] =         0.984980700000;     BAS[ATNO][  0].d[ 13] =         0.001002731594;
  BAS[ATNO][  0].a[ 14] =         0.418397300000;     BAS[ATNO][  0].d[ 14] =        -0.000643174608;
  BAS[ATNO][  0].a[ 15] =         0.177959400000;     BAS[ATNO][  0].d[ 15] =         0.000282017636;
  BAS[ATNO][  0].a[ 16] =         0.071183800000;     BAS[ATNO][  0].d[ 16] =        -0.000076279361;
  BAS[ATNO][  0].a[ 17] =    455476.770000000019;     BAS[ATNO][  0].d[ 17] =         0.000000367063;
  BAS[ATNO][  0].a[ 18] =     64817.743000000002;     BAS[ATNO][  0].d[ 18] =         0.000001162507;
  BAS[ATNO][  0].a[ 19] =     19256.987000000001;     BAS[ATNO][  0].d[ 19] =         0.000002500865;
  BAS[ATNO][  0].a[ 20] =      6877.007300000000;     BAS[ATNO][  0].d[ 20] =         0.000006894152;
  BAS[ATNO][  0].a[ 21] =      2643.487700000000;     BAS[ATNO][  0].d[ 21] =         0.000018572675;
  BAS[ATNO][  0].a[ 22] =      1054.237500000000;     BAS[ATNO][  0].d[ 22] =         0.000052362002;
  BAS[ATNO][  0].a[ 23] =       429.371220000000;     BAS[ATNO][  0].d[ 23] =         0.000142523473;
  BAS[ATNO][  0].a[ 24] =       177.188590000000;     BAS[ATNO][  0].d[ 24] =         0.000351184458;
  BAS[ATNO][  0].a[ 25] =        73.763945000000;     BAS[ATNO][  0].d[ 25] =         0.000700747992;
  BAS[ATNO][  0].a[ 26] =        30.897007000000;     BAS[ATNO][  0].d[ 26] =         0.000745106753;
  BAS[ATNO][  0].a[ 27] =        12.999482000000;     BAS[ATNO][  0].d[ 27] =        -0.000549046099;
  BAS[ATNO][  0].a[ 28] =         5.487679300000;     BAS[ATNO][  0].d[ 28] =        -0.002545213959;
  BAS[ATNO][  0].a[ 29] =         2.322571600000;     BAS[ATNO][  0].d[ 29] =        -0.001531998495;
  BAS[ATNO][  0].a[ 30] =         0.984980700000;     BAS[ATNO][  0].d[ 30] =        -0.000019951336;
  BAS[ATNO][  0].a[ 31] =         0.418397300000;     BAS[ATNO][  0].d[ 31] =        -0.000047046265;
  BAS[ATNO][  0].a[ 32] =         0.177959400000;     BAS[ATNO][  0].d[ 32] =         0.000017869588;
  BAS[ATNO][  0].a[ 33] =         0.071183800000;     BAS[ATNO][  0].d[ 33] =        -0.000005178384;
  BAS[ATNO][  0].a[ 34] =    455476.770000000019;     BAS[ATNO][  0].d[ 34] =         0.000000018538;
  BAS[ATNO][  0].a[ 35] =     64817.743000000002;     BAS[ATNO][  0].d[ 35] =         0.000000058661;
  BAS[ATNO][  0].a[ 36] =     19256.987000000001;     BAS[ATNO][  0].d[ 36] =         0.000000126659;
  BAS[ATNO][  0].a[ 37] =      6877.007300000000;     BAS[ATNO][  0].d[ 37] =         0.000000347101;
  BAS[ATNO][  0].a[ 38] =      2643.487700000000;     BAS[ATNO][  0].d[ 38] =         0.000000944046;
  BAS[ATNO][  0].a[ 39] =      1054.237500000000;     BAS[ATNO][  0].d[ 39] =         0.000002639584;
  BAS[ATNO][  0].a[ 40] =       429.371220000000;     BAS[ATNO][  0].d[ 40] =         0.000007296093;
  BAS[ATNO][  0].a[ 41] =       177.188590000000;     BAS[ATNO][  0].d[ 41] =         0.000017951918;
  BAS[ATNO][  0].a[ 42] =        73.763945000000;     BAS[ATNO][  0].d[ 42] =         0.000037291331;
  BAS[ATNO][  0].a[ 43] =        30.897007000000;     BAS[ATNO][  0].d[ 43] =         0.000040496336;
  BAS[ATNO][  0].a[ 44] =        12.999482000000;     BAS[ATNO][  0].d[ 44] =        -0.000031262198;
  BAS[ATNO][  0].a[ 45] =         5.487679300000;     BAS[ATNO][  0].d[ 45] =        -0.000211666771;
  BAS[ATNO][  0].a[ 46] =         2.322571600000;     BAS[ATNO][  0].d[ 46] =        -0.000224118541;
  BAS[ATNO][  0].a[ 47] =         0.984980700000;     BAS[ATNO][  0].d[ 47] =         0.000219925801;
  BAS[ATNO][  0].a[ 48] =         0.418397300000;     BAS[ATNO][  0].d[ 48] =         0.000436757175;
  BAS[ATNO][  0].a[ 49] =         0.177959400000;     BAS[ATNO][  0].d[ 49] =         0.000164122800;
  BAS[ATNO][  0].a[ 50] =         0.071183800000;     BAS[ATNO][  0].d[ 50] =         0.000002911659;
  BAS[ATNO][  0].a[ 51] =    455476.770000000019;     BAS[ATNO][  0].d[ 51] =         0.000000018342;
  BAS[ATNO][  0].a[ 52] =     64817.743000000002;     BAS[ATNO][  0].d[ 52] =         0.000000058022;
  BAS[ATNO][  0].a[ 53] =     19256.987000000001;     BAS[ATNO][  0].d[ 53] =         0.000000125372;
  BAS[ATNO][  0].a[ 54] =      6877.007300000000;     BAS[ATNO][  0].d[ 54] =         0.000000343402;
  BAS[ATNO][  0].a[ 55] =      2643.487700000000;     BAS[ATNO][  0].d[ 55] =         0.000000934726;
  BAS[ATNO][  0].a[ 56] =      1054.237500000000;     BAS[ATNO][  0].d[ 56] =         0.000002616234;
  BAS[ATNO][  0].a[ 57] =       429.371220000000;     BAS[ATNO][  0].d[ 57] =         0.000007244254;
  BAS[ATNO][  0].a[ 58] =       177.188590000000;     BAS[ATNO][  0].d[ 58] =         0.000017923526;
  BAS[ATNO][  0].a[ 59] =        73.763945000000;     BAS[ATNO][  0].d[ 59] =         0.000037695810;
  BAS[ATNO][  0].a[ 60] =        30.897007000000;     BAS[ATNO][  0].d[ 60] =         0.000041902661;
  BAS[ATNO][  0].a[ 61] =        12.999482000000;     BAS[ATNO][  0].d[ 61] =        -0.000045843807;
  BAS[ATNO][  0].a[ 62] =         5.487679300000;     BAS[ATNO][  0].d[ 62] =        -0.000220840373;
  BAS[ATNO][  0].a[ 63] =         2.322571600000;     BAS[ATNO][  0].d[ 63] =        -0.000353792665;
  BAS[ATNO][  0].a[ 64] =         0.984980700000;     BAS[ATNO][  0].d[ 64] =         0.001006543558;
  BAS[ATNO][  0].a[ 65] =         0.418397300000;     BAS[ATNO][  0].d[ 65] =         0.000001416227;
  BAS[ATNO][  0].a[ 66] =         0.177959400000;     BAS[ATNO][  0].d[ 66] =        -0.000628683891;
  BAS[ATNO][  0].a[ 67] =         0.071183800000;     BAS[ATNO][  0].d[ 67] =        -0.000024357163;

  // Basis function   2 L = s
  InitBFNGauss(BAS[ATNO][  1]);
  BAS[ATNO][  1].l  = 0;
  BAS[ATNO][  1].ng = 67;
  BAS[ATNO][  1].a[  0] =    455476.770000000019;     BAS[ATNO][  1].d[  0] =         0.000001305550;
  BAS[ATNO][  1].a[  1] =     64817.743000000002;     BAS[ATNO][  1].d[  1] =         0.000004129059;
  BAS[ATNO][  1].a[  2] =     19256.987000000001;     BAS[ATNO][  1].d[  2] =         0.000008858036;
  BAS[ATNO][  1].a[  3] =      6877.007300000000;     BAS[ATNO][  1].d[  3] =         0.000024338559;
  BAS[ATNO][  1].a[  4] =      2643.487700000000;     BAS[ATNO][  1].d[  4] =         0.000064931069;
  BAS[ATNO][  1].a[  5] =      1054.237500000000;     BAS[ATNO][  1].d[  5] =         0.000179783133;
  BAS[ATNO][  1].a[  6] =       429.371220000000;     BAS[ATNO][  1].d[  6] =         0.000467184333;
  BAS[ATNO][  1].a[  7] =       177.188590000000;     BAS[ATNO][  1].d[  7] =         0.001039300163;
  BAS[ATNO][  1].a[  8] =        73.763945000000;     BAS[ATNO][  1].d[  8] =         0.001626438597;
  BAS[ATNO][  1].a[  9] =        30.897007000000;     BAS[ATNO][  1].d[  9] =         0.001138570683;
  BAS[ATNO][  1].a[ 10] =        12.999482000000;     BAS[ATNO][  1].d[ 10] =         0.000156470696;
  BAS[ATNO][  1].a[ 11] =         5.487679300000;     BAS[ATNO][  1].d[ 11] =         0.000012729014;
  BAS[ATNO][  1].a[ 12] =         2.322571600000;     BAS[ATNO][  1].d[ 12] =        -0.000005651711;
  BAS[ATNO][  1].a[ 13] =         0.984980700000;     BAS[ATNO][  1].d[ 13] =         0.000004092814;
  BAS[ATNO][  1].a[ 14] =         0.418397300000;     BAS[ATNO][  1].d[ 14] =        -0.000002625223;
  BAS[ATNO][  1].a[ 15] =         0.177959400000;     BAS[ATNO][  1].d[ 15] =         0.000001151101;
  BAS[ATNO][  1].a[ 16] =    455476.770000000019;     BAS[ATNO][  1].d[ 16] =        -0.000090870098;
  BAS[ATNO][  1].a[ 17] =     64817.743000000002;     BAS[ATNO][  1].d[ 17] =        -0.000287790058;
  BAS[ATNO][  1].a[ 18] =     19256.987000000001;     BAS[ATNO][  1].d[ 18] =        -0.000619113972;
  BAS[ATNO][  1].a[ 19] =      6877.007300000000;     BAS[ATNO][  1].d[ 19] =        -0.001706715768;
  BAS[ATNO][  1].a[ 20] =      2643.487700000000;     BAS[ATNO][  1].d[ 20] =        -0.004597850245;
  BAS[ATNO][  1].a[ 21] =      1054.237500000000;     BAS[ATNO][  1].d[ 21] =        -0.012962734154;
  BAS[ATNO][  1].a[ 22] =       429.371220000000;     BAS[ATNO][  1].d[ 22] =        -0.035283102826;
  BAS[ATNO][  1].a[ 23] =       177.188590000000;     BAS[ATNO][  1].d[ 23] =        -0.086939204340;
  BAS[ATNO][  1].a[ 24] =        73.763945000000;     BAS[ATNO][  1].d[ 24] =        -0.173477132761;
  BAS[ATNO][  1].a[ 25] =        30.897007000000;     BAS[ATNO][  1].d[ 25] =        -0.184458585055;
  BAS[ATNO][  1].a[ 26] =        12.999482000000;     BAS[ATNO][  1].d[ 26] =         0.135921820800;
  BAS[ATNO][  1].a[ 27] =         5.487679300000;     BAS[ATNO][  1].d[ 27] =         0.630093021590;
  BAS[ATNO][  1].a[ 28] =         2.322571600000;     BAS[ATNO][  1].d[ 28] =         0.379261459505;
  BAS[ATNO][  1].a[ 29] =         0.984980700000;     BAS[ATNO][  1].d[ 29] =         0.004939151701;
  BAS[ATNO][  1].a[ 30] =         0.418397300000;     BAS[ATNO][  1].d[ 30] =         0.011646770728;
  BAS[ATNO][  1].a[ 31] =         0.177959400000;     BAS[ATNO][  1].d[ 31] =        -0.004423794246;
  BAS[ATNO][  1].a[ 32] =         0.071183800000;     BAS[ATNO][  1].d[ 32] =         0.001281960357;
  BAS[ATNO][  1].a[ 33] =    455476.770000000019;     BAS[ATNO][  1].d[ 33] =        -0.000002631845;
  BAS[ATNO][  1].a[ 34] =     64817.743000000002;     BAS[ATNO][  1].d[ 34] =        -0.000008327956;
  BAS[ATNO][  1].a[ 35] =     19256.987000000001;     BAS[ATNO][  1].d[ 35] =        -0.000017981393;
  BAS[ATNO][  1].a[ 36] =      6877.007300000000;     BAS[ATNO][  1].d[ 36] =        -0.000049276772;
  BAS[ATNO][  1].a[ 37] =      2643.487700000000;     BAS[ATNO][  1].d[ 37] =        -0.000134022916;
  BAS[ATNO][  1].a[ 38] =      1054.237500000000;     BAS[ATNO][  1].d[ 38] =        -0.000374732517;
  BAS[ATNO][  1].a[ 39] =       429.371220000000;     BAS[ATNO][  1].d[ 39] =        -0.001035800871;
  BAS[ATNO][  1].a[ 40] =       177.188590000000;     BAS[ATNO][  1].d[ 40] =        -0.002548571113;
  BAS[ATNO][  1].a[ 41] =        73.763945000000;     BAS[ATNO][  1].d[ 41] =        -0.005294120046;
  BAS[ATNO][  1].a[ 42] =        30.897007000000;     BAS[ATNO][  1].d[ 42] =        -0.005749123387;
  BAS[ATNO][  1].a[ 43] =        12.999482000000;     BAS[ATNO][  1].d[ 43] =         0.004438184993;
  BAS[ATNO][  1].a[ 44] =         5.487679300000;     BAS[ATNO][  1].d[ 44] =         0.030049591999;
  BAS[ATNO][  1].a[ 45] =         2.322571600000;     BAS[ATNO][  1].d[ 45] =         0.031817326228;
  BAS[ATNO][  1].a[ 46] =         0.984980700000;     BAS[ATNO][  1].d[ 46] =        -0.031222097702;
  BAS[ATNO][  1].a[ 47] =         0.418397300000;     BAS[ATNO][  1].d[ 47] =        -0.062004890277;
  BAS[ATNO][  1].a[ 48] =         0.177959400000;     BAS[ATNO][  1].d[ 48] =        -0.023299940475;
  BAS[ATNO][  1].a[ 49] =         0.071183800000;     BAS[ATNO][  1].d[ 49] =        -0.000413358100;
  BAS[ATNO][  1].a[ 50] =    455476.770000000019;     BAS[ATNO][  1].d[ 50] =        -0.000002658362;
  BAS[ATNO][  1].a[ 51] =     64817.743000000002;     BAS[ATNO][  1].d[ 51] =        -0.000008409579;
  BAS[ATNO][  1].a[ 52] =     19256.987000000001;     BAS[ATNO][  1].d[ 52] =        -0.000018170921;
  BAS[ATNO][  1].a[ 53] =      6877.007300000000;     BAS[ATNO][  1].d[ 53] =        -0.000049771473;
  BAS[ATNO][  1].a[ 54] =      2643.487700000000;     BAS[ATNO][  1].d[ 54] =        -0.000135475989;
  BAS[ATNO][  1].a[ 55] =      1054.237500000000;     BAS[ATNO][  1].d[ 55] =        -0.000379187937;
  BAS[ATNO][  1].a[ 56] =       429.371220000000;     BAS[ATNO][  1].d[ 56] =        -0.001049957018;
  BAS[ATNO][  1].a[ 57] =       177.188590000000;     BAS[ATNO][  1].d[ 57] =        -0.002597773599;
  BAS[ATNO][  1].a[ 58] =        73.763945000000;     BAS[ATNO][  1].d[ 58] =        -0.005463499759;
  BAS[ATNO][  1].a[ 59] =        30.897007000000;     BAS[ATNO][  1].d[ 59] =        -0.006073226195;
  BAS[ATNO][  1].a[ 60] =        12.999482000000;     BAS[ATNO][  1].d[ 60] =         0.006644442207;
  BAS[ATNO][  1].a[ 61] =         5.487679300000;     BAS[ATNO][  1].d[ 61] =         0.032007836615;
  BAS[ATNO][  1].a[ 62] =         2.322571600000;     BAS[ATNO][  1].d[ 62] =         0.051277480005;
  BAS[ATNO][  1].a[ 63] =         0.984980700000;     BAS[ATNO][  1].d[ 63] =        -0.145884927242;
  BAS[ATNO][  1].a[ 64] =         0.418397300000;     BAS[ATNO][  1].d[ 64] =        -0.000205263040;
  BAS[ATNO][  1].a[ 65] =         0.177959400000;     BAS[ATNO][  1].d[ 65] =         0.091119259579;
  BAS[ATNO][  1].a[ 66] =         0.071183800000;     BAS[ATNO][  1].d[ 66] =         0.003530242563;

  // Basis function   3 L = s
  InitBFNGauss(BAS[ATNO][  2]);
  BAS[ATNO][  2].l  = 0;
  BAS[ATNO][  2].ng = 65;
  BAS[ATNO][  2].a[  0] =    455476.770000000019;     BAS[ATNO][  2].d[  0] =        -0.000000110825;
  BAS[ATNO][  2].a[  1] =     64817.743000000002;     BAS[ATNO][  2].d[  1] =        -0.000000350504;
  BAS[ATNO][  2].a[  2] =     19256.987000000001;     BAS[ATNO][  2].d[  2] =        -0.000000751934;
  BAS[ATNO][  2].a[  3] =      6877.007300000000;     BAS[ATNO][  2].d[  3] =        -0.000002066032;
  BAS[ATNO][  2].a[  4] =      2643.487700000000;     BAS[ATNO][  2].d[  4] =        -0.000005511818;
  BAS[ATNO][  2].a[  5] =      1054.237500000000;     BAS[ATNO][  2].d[  5] =        -0.000015261289;
  BAS[ATNO][  2].a[  6] =       429.371220000000;     BAS[ATNO][  2].d[  6] =        -0.000039657977;
  BAS[ATNO][  2].a[  7] =       177.188590000000;     BAS[ATNO][  2].d[  7] =        -0.000088223296;
  BAS[ATNO][  2].a[  8] =        73.763945000000;     BAS[ATNO][  2].d[  8] =        -0.000138063842;
  BAS[ATNO][  2].a[  9] =        30.897007000000;     BAS[ATNO][  2].d[  9] =        -0.000096650093;
  BAS[ATNO][  2].a[ 10] =        12.999482000000;     BAS[ATNO][  2].d[ 10] =        -0.000013282361;
  BAS[ATNO][  2].a[ 11] =         5.487679300000;     BAS[ATNO][  2].d[ 11] =        -0.000001080531;
  BAS[ATNO][  2].a[ 12] =         2.322571600000;     BAS[ATNO][  2].d[ 12] =         0.000000479758;
  BAS[ATNO][  2].a[ 13] =         0.984980700000;     BAS[ATNO][  2].d[ 13] =        -0.000000347428;
  BAS[ATNO][  2].a[ 14] =    455476.770000000019;     BAS[ATNO][  2].d[ 14] =        -0.000010807287;
  BAS[ATNO][  2].a[ 15] =     64817.743000000002;     BAS[ATNO][  2].d[ 15] =        -0.000034227207;
  BAS[ATNO][  2].a[ 16] =     19256.987000000001;     BAS[ATNO][  2].d[ 16] =        -0.000073631946;
  BAS[ATNO][  2].a[ 17] =      6877.007300000000;     BAS[ATNO][  2].d[ 17] =        -0.000202981696;
  BAS[ATNO][  2].a[ 18] =      2643.487700000000;     BAS[ATNO][  2].d[ 18] =        -0.000546827690;
  BAS[ATNO][  2].a[ 19] =      1054.237500000000;     BAS[ATNO][  2].d[ 19] =        -0.001541673085;
  BAS[ATNO][  2].a[ 20] =       429.371220000000;     BAS[ATNO][  2].d[ 20] =        -0.004196260552;
  BAS[ATNO][  2].a[ 21] =       177.188590000000;     BAS[ATNO][  2].d[ 21] =        -0.010339780926;
  BAS[ATNO][  2].a[ 22] =        73.763945000000;     BAS[ATNO][  2].d[ 22] =        -0.020631837639;
  BAS[ATNO][  2].a[ 23] =        30.897007000000;     BAS[ATNO][  2].d[ 23] =        -0.021937874563;
  BAS[ATNO][  2].a[ 24] =        12.999482000000;     BAS[ATNO][  2].d[ 24] =         0.016165340606;
  BAS[ATNO][  2].a[ 25] =         5.487679300000;     BAS[ATNO][  2].d[ 25] =         0.074937697621;
  BAS[ATNO][  2].a[ 26] =         2.322571600000;     BAS[ATNO][  2].d[ 26] =         0.045106007522;
  BAS[ATNO][  2].a[ 27] =         0.984980700000;     BAS[ATNO][  2].d[ 27] =         0.000587419070;
  BAS[ATNO][  2].a[ 28] =         0.418397300000;     BAS[ATNO][  2].d[ 28] =         0.001385164020;
  BAS[ATNO][  2].a[ 29] =         0.177959400000;     BAS[ATNO][  2].d[ 29] =        -0.000526127007;
  BAS[ATNO][  2].a[ 30] =         0.071183800000;     BAS[ATNO][  2].d[ 30] =         0.000152465040;
  BAS[ATNO][  2].a[ 31] =    455476.770000000019;     BAS[ATNO][  2].d[ 31] =         0.000024673481;
  BAS[ATNO][  2].a[ 32] =     64817.743000000002;     BAS[ATNO][  2].d[ 32] =         0.000078074370;
  BAS[ATNO][  2].a[ 33] =     19256.987000000001;     BAS[ATNO][  2].d[ 33] =         0.000168575094;
  BAS[ATNO][  2].a[ 34] =      6877.007300000000;     BAS[ATNO][  2].d[ 34] =         0.000461968473;
  BAS[ATNO][  2].a[ 35] =      2643.487700000000;     BAS[ATNO][  2].d[ 35] =         0.001256461392;
  BAS[ATNO][  2].a[ 36] =      1054.237500000000;     BAS[ATNO][  2].d[ 36] =         0.003513107700;
  BAS[ATNO][  2].a[ 37] =       429.371220000000;     BAS[ATNO][  2].d[ 37] =         0.009710606501;
  BAS[ATNO][  2].a[ 38] =       177.188590000000;     BAS[ATNO][  2].d[ 38] =         0.023892788573;
  BAS[ATNO][  2].a[ 39] =        73.763945000000;     BAS[ATNO][  2].d[ 39] =         0.049632239130;
  BAS[ATNO][  2].a[ 40] =        30.897007000000;     BAS[ATNO][  2].d[ 40] =         0.053897883735;
  BAS[ATNO][  2].a[ 41] =        12.999482000000;     BAS[ATNO][  2].d[ 41] =        -0.041607870045;
  BAS[ATNO][  2].a[ 42] =         5.487679300000;     BAS[ATNO][  2].d[ 42] =        -0.281714151335;
  BAS[ATNO][  2].a[ 43] =         2.322571600000;     BAS[ATNO][  2].d[ 43] =        -0.298286614225;
  BAS[ATNO][  2].a[ 44] =         0.984980700000;     BAS[ATNO][  2].d[ 44] =         0.292706362111;
  BAS[ATNO][  2].a[ 45] =         0.418397300000;     BAS[ATNO][  2].d[ 45] =         0.581294249975;
  BAS[ATNO][  2].a[ 46] =         0.177959400000;     BAS[ATNO][  2].d[ 46] =         0.218436342074;
  BAS[ATNO][  2].a[ 47] =         0.071183800000;     BAS[ATNO][  2].d[ 47] =         0.003875221546;
  BAS[ATNO][  2].a[ 48] =    455476.770000000019;     BAS[ATNO][  2].d[ 48] =         0.000017329785;
  BAS[ATNO][  2].a[ 49] =     64817.743000000002;     BAS[ATNO][  2].d[ 49] =         0.000054821816;
  BAS[ATNO][  2].a[ 50] =     19256.987000000001;     BAS[ATNO][  2].d[ 50] =         0.000118455731;
  BAS[ATNO][  2].a[ 51] =      6877.007300000000;     BAS[ATNO][  2].d[ 51] =         0.000324458856;
  BAS[ATNO][  2].a[ 52] =      2643.487700000000;     BAS[ATNO][  2].d[ 52] =         0.000883164224;
  BAS[ATNO][  2].a[ 53] =      1054.237500000000;     BAS[ATNO][  2].d[ 53] =         0.002471915673;
  BAS[ATNO][  2].a[ 54] =       429.371220000000;     BAS[ATNO][  2].d[ 54] =         0.006844640754;
  BAS[ATNO][  2].a[ 55] =       177.188590000000;     BAS[ATNO][  2].d[ 55] =         0.016934814221;
  BAS[ATNO][  2].a[ 56] =        73.763945000000;     BAS[ATNO][  2].d[ 56] =         0.035616403775;
  BAS[ATNO][  2].a[ 57] =        30.897007000000;     BAS[ATNO][  2].d[ 57] =         0.039591193538;
  BAS[ATNO][  2].a[ 58] =        12.999482000000;     BAS[ATNO][  2].d[ 58] =        -0.043314934919;
  BAS[ATNO][  2].a[ 59] =         5.487679300000;     BAS[ATNO][  2].d[ 59] =        -0.208658201351;
  BAS[ATNO][  2].a[ 60] =         2.322571600000;     BAS[ATNO][  2].d[ 60] =        -0.334276473481;
  BAS[ATNO][  2].a[ 61] =         0.984980700000;     BAS[ATNO][  2].d[ 61] =         0.951019804562;
  BAS[ATNO][  2].a[ 62] =         0.418397300000;     BAS[ATNO][  2].d[ 62] =         0.001338104077;
  BAS[ATNO][  2].a[ 63] =         0.177959400000;     BAS[ATNO][  2].d[ 63] =        -0.594003932244;
  BAS[ATNO][  2].a[ 64] =         0.071183800000;     BAS[ATNO][  2].d[ 64] =        -0.023013553600;

  // Basis function   4 L = s
  InitBFNGauss(BAS[ATNO][  3]);
  BAS[ATNO][  3].l  = 0;
  BAS[ATNO][  3].ng = 63;
  BAS[ATNO][  3].a[  0] =    455476.770000000019;     BAS[ATNO][  3].d[  0] =        -0.000000016230;
  BAS[ATNO][  3].a[  1] =     64817.743000000002;     BAS[ATNO][  3].d[  1] =        -0.000000051330;
  BAS[ATNO][  3].a[  2] =     19256.987000000001;     BAS[ATNO][  3].d[  2] =        -0.000000110118;
  BAS[ATNO][  3].a[  3] =      6877.007300000000;     BAS[ATNO][  3].d[  3] =        -0.000000302562;
  BAS[ATNO][  3].a[  4] =      2643.487700000000;     BAS[ATNO][  3].d[  4] =        -0.000000807183;
  BAS[ATNO][  3].a[  5] =      1054.237500000000;     BAS[ATNO][  3].d[  5] =        -0.000002234954;
  BAS[ATNO][  3].a[  6] =       429.371220000000;     BAS[ATNO][  3].d[  6] =        -0.000005807751;
  BAS[ATNO][  3].a[  7] =       177.188590000000;     BAS[ATNO][  3].d[  7] =        -0.000012919946;
  BAS[ATNO][  3].a[  8] =        73.763945000000;     BAS[ATNO][  3].d[  8] =        -0.000020218893;
  BAS[ATNO][  3].a[  9] =        30.897007000000;     BAS[ATNO][  3].d[  9] =        -0.000014154016;
  BAS[ATNO][  3].a[ 10] =        12.999482000000;     BAS[ATNO][  3].d[ 10] =        -0.000001945148;
  BAS[ATNO][  3].a[ 11] =         5.487679300000;     BAS[ATNO][  3].d[ 11] =        -0.000000158239;
  BAS[ATNO][  3].a[ 12] =    455476.770000000019;     BAS[ATNO][  3].d[ 12] =        -0.000001853074;
  BAS[ATNO][  3].a[ 13] =     64817.743000000002;     BAS[ATNO][  3].d[ 13] =        -0.000005868776;
  BAS[ATNO][  3].a[ 14] =     19256.987000000001;     BAS[ATNO][  3].d[ 14] =        -0.000012625319;
  BAS[ATNO][  3].a[ 15] =      6877.007300000000;     BAS[ATNO][  3].d[ 15] =        -0.000034804305;
  BAS[ATNO][  3].a[ 16] =      2643.487700000000;     BAS[ATNO][  3].d[ 16] =        -0.000093761940;
  BAS[ATNO][  3].a[ 17] =      1054.237500000000;     BAS[ATNO][  3].d[ 17] =        -0.000264343343;
  BAS[ATNO][  3].a[ 18] =       429.371220000000;     BAS[ATNO][  3].d[ 18] =        -0.000719512816;
  BAS[ATNO][  3].a[ 19] =       177.188590000000;     BAS[ATNO][  3].d[ 19] =        -0.001772913001;
  BAS[ATNO][  3].a[ 20] =        73.763945000000;     BAS[ATNO][  3].d[ 20] =        -0.003537642958;
  BAS[ATNO][  3].a[ 21] =        30.897007000000;     BAS[ATNO][  3].d[ 21] =        -0.003761582891;
  BAS[ATNO][  3].a[ 22] =        12.999482000000;     BAS[ATNO][  3].d[ 22] =         0.002771793980;
  BAS[ATNO][  3].a[ 23] =         5.487679300000;     BAS[ATNO][  3].d[ 23] =         0.012849210184;
  BAS[ATNO][  3].a[ 24] =         2.322571600000;     BAS[ATNO][  3].d[ 24] =         0.007734112331;
  BAS[ATNO][  3].a[ 25] =         0.984980700000;     BAS[ATNO][  3].d[ 25] =         0.000100721951;
  BAS[ATNO][  3].a[ 26] =         0.418397300000;     BAS[ATNO][  3].d[ 26] =         0.000237507479;
  BAS[ATNO][  3].a[ 27] =         0.177959400000;     BAS[ATNO][  3].d[ 27] =        -0.000090212493;
  BAS[ATNO][  3].a[ 28] =         0.071183800000;     BAS[ATNO][  3].d[ 28] =         0.000026142454;
  BAS[ATNO][  3].a[ 29] =    455476.770000000019;     BAS[ATNO][  3].d[ 29] =        -0.000014835110;
  BAS[ATNO][  3].a[ 30] =     64817.743000000002;     BAS[ATNO][  3].d[ 30] =        -0.000046942782;
  BAS[ATNO][  3].a[ 31] =     19256.987000000001;     BAS[ATNO][  3].d[ 31] =        -0.000101356999;
  BAS[ATNO][  3].a[ 32] =      6877.007300000000;     BAS[ATNO][  3].d[ 32] =        -0.000277761896;
  BAS[ATNO][  3].a[ 33] =      2643.487700000000;     BAS[ATNO][  3].d[ 33] =        -0.000755456528;
  BAS[ATNO][  3].a[ 34] =      1054.237500000000;     BAS[ATNO][  3].d[ 34] =        -0.002112281493;
  BAS[ATNO][  3].a[ 35] =       429.371220000000;     BAS[ATNO][  3].d[ 35] =        -0.005838572612;
  BAS[ATNO][  3].a[ 36] =       177.188590000000;     BAS[ATNO][  3].d[ 36] =        -0.014365712478;
  BAS[ATNO][  3].a[ 37] =        73.763945000000;     BAS[ATNO][  3].d[ 37] =        -0.029841743872;
  BAS[ATNO][  3].a[ 38] =        30.897007000000;     BAS[ATNO][  3].d[ 38] =        -0.032406493639;
  BAS[ATNO][  3].a[ 39] =        12.999482000000;     BAS[ATNO][  3].d[ 39] =         0.025017033740;
  BAS[ATNO][  3].a[ 40] =         5.487679300000;     BAS[ATNO][  3].d[ 40] =         0.169382677399;
  BAS[ATNO][  3].a[ 41] =         2.322571600000;     BAS[ATNO][  3].d[ 41] =         0.179346990949;
  BAS[ATNO][  3].a[ 42] =         0.984980700000;     BAS[ATNO][  3].d[ 42] =        -0.175991823879;
  BAS[ATNO][  3].a[ 43] =         0.418397300000;     BAS[ATNO][  3].d[ 43] =        -0.349507385237;
  BAS[ATNO][  3].a[ 44] =         0.177959400000;     BAS[ATNO][  3].d[ 44] =        -0.131336435484;
  BAS[ATNO][  3].a[ 45] =         0.071183800000;     BAS[ATNO][  3].d[ 45] =        -0.002330005070;
  BAS[ATNO][  3].a[ 46] =    455476.770000000019;     BAS[ATNO][  3].d[ 46] =         0.000029294213;
  BAS[ATNO][  3].a[ 47] =     64817.743000000002;     BAS[ATNO][  3].d[ 47] =         0.000092670622;
  BAS[ATNO][  3].a[ 48] =     19256.987000000001;     BAS[ATNO][  3].d[ 48] =         0.000200237188;
  BAS[ATNO][  3].a[ 49] =      6877.007300000000;     BAS[ATNO][  3].d[ 49] =         0.000548464210;
  BAS[ATNO][  3].a[ 50] =      2643.487700000000;     BAS[ATNO][  3].d[ 50] =         0.001492897975;
  BAS[ATNO][  3].a[ 51] =      1054.237500000000;     BAS[ATNO][  3].d[ 51] =         0.004178518335;
  BAS[ATNO][  3].a[ 52] =       429.371220000000;     BAS[ATNO][  3].d[ 52] =         0.011570158802;
  BAS[ATNO][  3].a[ 53] =       177.188590000000;     BAS[ATNO][  3].d[ 53] =         0.028626555701;
  BAS[ATNO][  3].a[ 54] =        73.763945000000;     BAS[ATNO][  3].d[ 54] =         0.060205854830;
  BAS[ATNO][  3].a[ 55] =        30.897007000000;     BAS[ATNO][  3].d[ 55] =         0.066924826712;
  BAS[ATNO][  3].a[ 56] =        12.999482000000;     BAS[ATNO][  3].d[ 56] =        -0.073219427211;
  BAS[ATNO][  3].a[ 57] =         5.487679300000;     BAS[ATNO][  3].d[ 57] =        -0.352715155050;
  BAS[ATNO][  3].a[ 58] =         2.322571600000;     BAS[ATNO][  3].d[ 58] =        -0.565059879795;
  BAS[ATNO][  3].a[ 59] =         0.984980700000;     BAS[ATNO][  3].d[ 59] =         1.607600830688;
  BAS[ATNO][  3].a[ 60] =         0.418397300000;     BAS[ATNO][  3].d[ 60] =         0.002261926845;
  BAS[ATNO][  3].a[ 61] =         0.177959400000;     BAS[ATNO][  3].d[ 61] =        -1.004102343955;
  BAS[ATNO][  3].a[ 62] =         0.071183800000;     BAS[ATNO][  3].d[ 62] =        -0.038902037273;

  // Basis function   5 L = p
  InitBFNGauss(BAS[ATNO][  4]);
  BAS[ATNO][  4].l  = 1;
  BAS[ATNO][  4].ng = 36;
  BAS[ATNO][  4].a[  0] =      1462.496200000000;     BAS[ATNO][  4].d[  0] =         0.000953780877;
  BAS[ATNO][  4].a[  1] =       354.067310000000;     BAS[ATNO][  4].d[  1] =         0.006154816552;
  BAS[ATNO][  4].a[  2] =       126.697790000000;     BAS[ATNO][  4].d[  2] =         0.025542890319;
  BAS[ATNO][  4].a[  3] =        49.989095000000;     BAS[ATNO][  4].d[  3] =         0.092206123411;
  BAS[ATNO][  4].a[  4] =        20.509295000000;     BAS[ATNO][  4].d[  4] =         0.241884627670;
  BAS[ATNO][  4].a[  5] =         8.580464100000;     BAS[ATNO][  4].d[  5] =         0.412818981541;
  BAS[ATNO][  4].a[  6] =         3.630104900000;     BAS[ATNO][  4].d[  6] =         0.341251292325;
  BAS[ATNO][  4].a[  7] =         1.546528000000;     BAS[ATNO][  4].d[  7] =         0.072310580978;
  BAS[ATNO][  4].a[  8] =         0.661936900000;     BAS[ATNO][  4].d[  8] =         0.003484589083;
  BAS[ATNO][  4].a[  9] =         0.284242800000;     BAS[ATNO][  4].d[  9] =         0.000287932166;
  BAS[ATNO][  4].a[ 10] =         0.122346300000;     BAS[ATNO][  4].d[ 10] =         0.000472075867;
  BAS[ATNO][  4].a[ 11] =         0.048938500000;     BAS[ATNO][  4].d[ 11] =        -0.000084748348;
  BAS[ATNO][  4].a[ 12] =      1462.496200000000;     BAS[ATNO][  4].d[ 12] =         0.000026232107;
  BAS[ATNO][  4].a[ 13] =       354.067310000000;     BAS[ATNO][  4].d[ 13] =         0.000169975718;
  BAS[ATNO][  4].a[ 14] =       126.697790000000;     BAS[ATNO][  4].d[ 14] =         0.000711359128;
  BAS[ATNO][  4].a[ 15] =        49.989095000000;     BAS[ATNO][  4].d[ 15] =         0.002623054638;
  BAS[ATNO][  4].a[ 16] =        20.509295000000;     BAS[ATNO][  4].d[ 16] =         0.007108353808;
  BAS[ATNO][  4].a[ 17] =         8.580464100000;     BAS[ATNO][  4].d[ 17] =         0.012747932319;
  BAS[ATNO][  4].a[ 18] =         3.630104900000;     BAS[ATNO][  4].d[ 18] =         0.010537419017;
  BAS[ATNO][  4].a[ 19] =         1.546528000000;     BAS[ATNO][  4].d[ 19] =        -0.015473095354;
  BAS[ATNO][  4].a[ 20] =         0.661936900000;     BAS[ATNO][  4].d[ 20] =        -0.042710757828;
  BAS[ATNO][  4].a[ 21] =         0.284242800000;     BAS[ATNO][  4].d[ 21] =        -0.039178959875;
  BAS[ATNO][  4].a[ 22] =         0.122346300000;     BAS[ATNO][  4].d[ 22] =        -0.014014268690;
  BAS[ATNO][  4].a[ 23] =         0.048938500000;     BAS[ATNO][  4].d[ 23] =        -0.000646242362;
  BAS[ATNO][  4].a[ 24] =      1462.496200000000;     BAS[ATNO][  4].d[ 24] =         0.000029090062;
  BAS[ATNO][  4].a[ 25] =       354.067310000000;     BAS[ATNO][  4].d[ 25] =         0.000176940976;
  BAS[ATNO][  4].a[ 26] =       126.697790000000;     BAS[ATNO][  4].d[ 26] =         0.000805347053;
  BAS[ATNO][  4].a[ 27] =        49.989095000000;     BAS[ATNO][  4].d[ 27] =         0.002740443504;
  BAS[ATNO][  4].a[ 28] =        20.509295000000;     BAS[ATNO][  4].d[ 28] =         0.008317044018;
  BAS[ATNO][  4].a[ 29] =         8.580464100000;     BAS[ATNO][  4].d[ 29] =         0.012436277525;
  BAS[ATNO][  4].a[ 30] =         3.630104900000;     BAS[ATNO][  4].d[ 30] =         0.015175894223;
  BAS[ATNO][  4].a[ 31] =         1.546528000000;     BAS[ATNO][  4].d[ 31] =        -0.038922690758;
  BAS[ATNO][  4].a[ 32] =         0.661936900000;     BAS[ATNO][  4].d[ 32] =        -0.063609399959;
  BAS[ATNO][  4].a[ 33] =         0.284242800000;     BAS[ATNO][  4].d[ 33] =         0.044132433746;
  BAS[ATNO][  4].a[ 34] =         0.122346300000;     BAS[ATNO][  4].d[ 34] =         0.052281893672;
  BAS[ATNO][  4].a[ 35] =         0.048938500000;     BAS[ATNO][  4].d[ 35] =         0.005381142711;

  // Basis function   6 L = p
  InitBFNGauss(BAS[ATNO][  5]);
  BAS[ATNO][  5].l  = 1;
  BAS[ATNO][  5].ng = 36;
  BAS[ATNO][  5].a[  0] =      1462.496200000000;     BAS[ATNO][  5].d[  0] =         0.000122464725;
  BAS[ATNO][  5].a[  1] =       354.067310000000;     BAS[ATNO][  5].d[  1] =         0.000790273674;
  BAS[ATNO][  5].a[  2] =       126.697790000000;     BAS[ATNO][  5].d[  2] =         0.003279687315;
  BAS[ATNO][  5].a[  3] =        49.989095000000;     BAS[ATNO][  5].d[  3] =         0.011839194765;
  BAS[ATNO][  5].a[  4] =        20.509295000000;     BAS[ATNO][  5].d[  4] =         0.031057798677;
  BAS[ATNO][  5].a[  5] =         8.580464100000;     BAS[ATNO][  5].d[  5] =         0.053005637201;
  BAS[ATNO][  5].a[  6] =         3.630104900000;     BAS[ATNO][  5].d[  6] =         0.043816401387;
  BAS[ATNO][  5].a[  7] =         1.546528000000;     BAS[ATNO][  5].d[  7] =         0.009284622540;
  BAS[ATNO][  5].a[  8] =         0.661936900000;     BAS[ATNO][  5].d[  8] =         0.000447418537;
  BAS[ATNO][  5].a[  9] =         0.284242800000;     BAS[ATNO][  5].d[  9] =         0.000036970267;
  BAS[ATNO][  5].a[ 10] =         0.122346300000;     BAS[ATNO][  5].d[ 10] =         0.000060614175;
  BAS[ATNO][  5].a[ 11] =         0.048938500000;     BAS[ATNO][  5].d[ 11] =        -0.000010881622;
  BAS[ATNO][  5].a[ 12] =      1462.496200000000;     BAS[ATNO][  5].d[ 12] =        -0.000227535314;
  BAS[ATNO][  5].a[ 13] =       354.067310000000;     BAS[ATNO][  5].d[ 13] =        -0.001474356518;
  BAS[ATNO][  5].a[ 14] =       126.697790000000;     BAS[ATNO][  5].d[ 14] =        -0.006170275272;
  BAS[ATNO][  5].a[ 15] =        49.989095000000;     BAS[ATNO][  5].d[ 15] =        -0.022752177521;
  BAS[ATNO][  5].a[ 16] =        20.509295000000;     BAS[ATNO][  5].d[ 16] =        -0.061657323256;
  BAS[ATNO][  5].a[ 17] =         8.580464100000;     BAS[ATNO][  5].d[ 17] =        -0.110574600688;
  BAS[ATNO][  5].a[ 18] =         3.630104900000;     BAS[ATNO][  5].d[ 18] =        -0.091400775503;
  BAS[ATNO][  5].a[ 19] =         1.546528000000;     BAS[ATNO][  5].d[ 19] =         0.134212458716;
  BAS[ATNO][  5].a[ 20] =         0.661936900000;     BAS[ATNO][  5].d[ 20] =         0.370469882765;
  BAS[ATNO][  5].a[ 21] =         0.284242800000;     BAS[ATNO][  5].d[ 21] =         0.339835334468;
  BAS[ATNO][  5].a[ 22] =         0.122346300000;     BAS[ATNO][  5].d[ 22] =         0.121558706581;
  BAS[ATNO][  5].a[ 23] =         0.048938500000;     BAS[ATNO][  5].d[ 23] =         0.005605457366;
  BAS[ATNO][  5].a[ 24] =      1462.496200000000;     BAS[ATNO][  5].d[ 24] =        -0.000184345160;
  BAS[ATNO][  5].a[ 25] =       354.067310000000;     BAS[ATNO][  5].d[ 25] =        -0.001121283698;
  BAS[ATNO][  5].a[ 26] =       126.697790000000;     BAS[ATNO][  5].d[ 26] =        -0.005103524014;
  BAS[ATNO][  5].a[ 27] =        49.989095000000;     BAS[ATNO][  5].d[ 27] =        -0.017366325713;
  BAS[ATNO][  5].a[ 28] =        20.509295000000;     BAS[ATNO][  5].d[ 28] =        -0.052705518350;
  BAS[ATNO][  5].a[ 29] =         8.580464100000;     BAS[ATNO][  5].d[ 29] =        -0.078809304349;
  BAS[ATNO][  5].a[ 30] =         3.630104900000;     BAS[ATNO][  5].d[ 30] =        -0.096170390548;
  BAS[ATNO][  5].a[ 31] =         1.546528000000;     BAS[ATNO][  5].d[ 31] =         0.246655011979;
  BAS[ATNO][  5].a[ 32] =         0.661936900000;     BAS[ATNO][  5].d[ 32] =         0.403095906359;
  BAS[ATNO][  5].a[ 33] =         0.284242800000;     BAS[ATNO][  5].d[ 33] =        -0.279669410372;
  BAS[ATNO][  5].a[ 34] =         0.122346300000;     BAS[ATNO][  5].d[ 34] =        -0.331312940059;
  BAS[ATNO][  5].a[ 35] =         0.048938500000;     BAS[ATNO][  5].d[ 35] =        -0.034100566894;

  // Basis function   7 L = p
  InitBFNGauss(BAS[ATNO][  6]);
  BAS[ATNO][  6].l  = 1;
  BAS[ATNO][  6].ng = 35;
  BAS[ATNO][  6].a[  0] =      1462.496200000000;     BAS[ATNO][  6].d[  0] =         0.000018558770;
  BAS[ATNO][  6].a[  1] =       354.067310000000;     BAS[ATNO][  6].d[  1] =         0.000119761078;
  BAS[ATNO][  6].a[  2] =       126.697790000000;     BAS[ATNO][  6].d[  2] =         0.000497016287;
  BAS[ATNO][  6].a[  3] =        49.989095000000;     BAS[ATNO][  6].d[  3] =         0.001794156594;
  BAS[ATNO][  6].a[  4] =        20.509295000000;     BAS[ATNO][  6].d[  4] =         0.004706616911;
  BAS[ATNO][  6].a[  5] =         8.580464100000;     BAS[ATNO][  6].d[  5] =         0.008032675820;
  BAS[ATNO][  6].a[  6] =         3.630104900000;     BAS[ATNO][  6].d[  6] =         0.006640104082;
  BAS[ATNO][  6].a[  7] =         1.546528000000;     BAS[ATNO][  6].d[  7] =         0.001407027005;
  BAS[ATNO][  6].a[  8] =         0.661936900000;     BAS[ATNO][  6].d[  8] =         0.000067803506;
  BAS[ATNO][  6].a[  9] =         0.284242800000;     BAS[ATNO][  6].d[  9] =         0.000005602615;
  BAS[ATNO][  6].a[ 10] =         0.122346300000;     BAS[ATNO][  6].d[ 10] =         0.000009185703;
  BAS[ATNO][  6].a[ 11] =      1462.496200000000;     BAS[ATNO][  6].d[ 11] =         0.000153316479;
  BAS[ATNO][  6].a[ 12] =       354.067310000000;     BAS[ATNO][  6].d[ 12] =         0.000993442056;
  BAS[ATNO][  6].a[ 13] =       126.697790000000;     BAS[ATNO][  6].d[ 13] =         0.004157617834;
  BAS[ATNO][  6].a[ 14] =        49.989095000000;     BAS[ATNO][  6].d[ 14] =         0.015330735642;
  BAS[ATNO][  6].a[ 15] =        20.509295000000;     BAS[ATNO][  6].d[ 15] =         0.041545567337;
  BAS[ATNO][  6].a[ 16] =         8.580464100000;     BAS[ATNO][  6].d[ 16] =         0.074506713495;
  BAS[ATNO][  6].a[ 17] =         3.630104900000;     BAS[ATNO][  6].d[ 17] =         0.061587121738;
  BAS[ATNO][  6].a[ 18] =         1.546528000000;     BAS[ATNO][  6].d[ 18] =        -0.090434233059;
  BAS[ATNO][  6].a[ 19] =         0.661936900000;     BAS[ATNO][  6].d[ 19] =        -0.249627791934;
  BAS[ATNO][  6].a[ 20] =         0.284242800000;     BAS[ATNO][  6].d[ 20] =        -0.228985804544;
  BAS[ATNO][  6].a[ 21] =         0.122346300000;     BAS[ATNO][  6].d[ 21] =        -0.081907957774;
  BAS[ATNO][  6].a[ 22] =         0.048938500000;     BAS[ATNO][  6].d[ 22] =        -0.003777035625;
  BAS[ATNO][  6].a[ 23] =      1462.496200000000;     BAS[ATNO][  6].d[ 23] =        -0.000278561879;
  BAS[ATNO][  6].a[ 24] =       354.067310000000;     BAS[ATNO][  6].d[ 24] =        -0.001694359068;
  BAS[ATNO][  6].a[ 25] =       126.697790000000;     BAS[ATNO][  6].d[ 25] =        -0.007711877206;
  BAS[ATNO][  6].a[ 26] =        49.989095000000;     BAS[ATNO][  6].d[ 26] =        -0.026242057655;
  BAS[ATNO][  6].a[ 27] =        20.509295000000;     BAS[ATNO][  6].d[ 27] =        -0.079642710503;
  BAS[ATNO][  6].a[ 28] =         8.580464100000;     BAS[ATNO][  6].d[ 28] =        -0.119087845215;
  BAS[ATNO][  6].a[ 29] =         3.630104900000;     BAS[ATNO][  6].d[ 29] =        -0.145321985499;
  BAS[ATNO][  6].a[ 30] =         1.546528000000;     BAS[ATNO][  6].d[ 30] =         0.372717588751;
  BAS[ATNO][  6].a[ 31] =         0.661936900000;     BAS[ATNO][  6].d[ 31] =         0.609113648442;
  BAS[ATNO][  6].a[ 32] =         0.284242800000;     BAS[ATNO][  6].d[ 32] =        -0.422605271405;
  BAS[ATNO][  6].a[ 33] =         0.122346300000;     BAS[ATNO][  6].d[ 33] =        -0.500643222896;
  BAS[ATNO][  6].a[ 34] =         0.048938500000;     BAS[ATNO][  6].d[ 34] =        -0.051528979548;

  // Basis function   8 L = d
  InitBFNGauss(BAS[ATNO][  7]);
  BAS[ATNO][  7].l  = 2;
  BAS[ATNO][  7].ng = 5;
  BAS[ATNO][  7].a[  0] =         4.328841700000;     BAS[ATNO][  7].d[  0] =         0.027886140074;
  BAS[ATNO][  7].a[  1] =         1.774230200000;     BAS[ATNO][  7].d[  1] =         0.193753660516;
  BAS[ATNO][  7].a[  2] =         0.727190600000;     BAS[ATNO][  7].d[  2] =         0.602274991605;
  BAS[ATNO][  7].a[  3] =         0.298048200000;     BAS[ATNO][  7].d[  3] =         0.305103490813;
  BAS[ATNO][  7].a[  4] =         0.119219300000;     BAS[ATNO][  7].d[  4] =         0.028800580077;

-------
TIMINGS
-------

Total SCF time: 0 days 0 hours 0 min 1 sec 

Total time                  ....       1.798 sec
Sum of individual times     ....       1.545 sec  ( 85.9%)

Fock matrix formation       ....       1.167 sec  ( 64.9%)
  XC integration            ....       0.008 sec  (  0.7% of F)
    Basis function eval.    ....       0.003 sec  ( 41.0% of XC)
    Density eval.           ....       0.000 sec  (  4.0% of XC)
    XC-Functional eval.     ....       0.001 sec  (  8.4% of XC)
    XC-Potential eval.      ....       0.000 sec  (  1.4% of XC)
Diagonalization             ....       0.000 sec  (  0.0%)
Density matrix formation    ....       0.000 sec  (  0.0%)
Population analysis         ....       0.000 sec  (  0.0%)
Initial guess               ....       0.002 sec  (  0.1%)
Orbital Transformation      ....       0.000 sec  (  0.0%)
Orbital Orthonormalization  ....       0.000 sec  (  0.0%)
DIIS solution               ....       0.000 sec  (  0.0%)
SOSCF solution              ....       0.000 sec  (  0.0%)
Grid generation             ....       0.375 sec  ( 20.9%)

-------------------------   --------------------
FINAL SINGLE POINT ENERGY      -311.058718405055
-------------------------   --------------------


                            ***************************************
                            *     ORCA property calculations      *
                            ***************************************

                                    ---------------------
                                    Active property flags
                                    ---------------------
   (+) Dipole Moment


------------------------------------------------------------------------------
                       ORCA ELECTRIC PROPERTIES CALCULATION
------------------------------------------------------------------------------

Dipole Moment Calculation                       ... on
Quadrupole Moment Calculation                   ... off
Polarizability Calculation                      ... off
GBWName                                         ... Ar_ano-rcc-dzp_.gbw
Electron density file                           ... Ar_ano-rcc-dzp_.scfp
The origin for moment calculation is the CENTER OF MASS  = ( 0.000000,  0.000000  0.000000)

-------------
DIPOLE MOMENT
-------------
                                X             Y             Z
Electronic contribution:     -0.00000       0.00000       0.00000
Nuclear contribution   :      0.00000       0.00000       0.00000
                        -----------------------------------------
Total Dipole Moment    :     -0.00000       0.00000       0.00000
                        -----------------------------------------
Magnitude (a.u.)       :      0.00000
Magnitude (Debye)      :      0.00000



--------------------
Rotational spectrum 
--------------------
 
Rotational constants in cm-1:     0.000000     0.000000     0.000000 
Rotational constants in MHz :     0.000000     0.000000     0.000000 

 Dipole components along the rotational axes: 
x,y,z [a.u.] :    -0.000000     0.000000     0.000000 
x,y,z [Debye]:    -0.000000     0.000000     0.000000 

 

Timings for individual modules:

Sum of individual times         ...        2.463 sec (=   0.041 min)
GTO integral calculation        ...        0.380 sec (=   0.006 min)  15.4 %
SCF iterations                  ...        2.082 sec (=   0.035 min)  84.6 %
                             ****ORCA TERMINATED NORMALLY****
TOTAL RUN TIME: 0 days 0 hours 0 minutes 2 seconds 816 msec
