
                                 *****************
                                 * O   R   C   A *
                                 *****************

           --- An Ab Initio, DFT and Semiempirical electronic structure package ---

                  #######################################################
                  #                        -***-                        #
                  #          Department of theory and spectroscopy      #
                  #               Directorship: Frank Neese             #
                  #        Max Planck Institute fuer Kohlenforschung    #
                  #                Kaiser Wilhelm Platz 1               #
                  #                 D-45470 Muelheim/Ruhr               #
                  #                      Germany                        #
                  #                                                     #
                  #                  All rights reserved                #
                  #                        -***-                        #
                  #######################################################


                         Program Version 4.2.1 -  RELEASE  -


 With contributions from (in alphabetic order):
   Daniel Aravena         : Magnetic Suceptibility
   Michael Atanasov       : Ab Initio Ligand Field Theory (pilot matlab implementation)
   Alexander A. Auer      : GIAO ZORA, VPT2
   Ute Becker             : Parallelization
   Giovanni Bistoni       : ED, misc. LED, open-shell LED, HFLD
   Martin Brehm           : Molecular dynamics
   Dmytro Bykov           : SCF Hessian
   Vijay G. Chilkuri      : MRCI spin determinant printing, contributions to CSF-ICE
   Dipayan Datta          : RHF DLPNO-CCSD density
   Achintya Kumar Dutta   : EOM-CC, STEOM-CC
   Dmitry Ganyushin       : Spin-Orbit,Spin-Spin,Magnetic field MRCI
   Miquel Garcia          : C-PCM Hessian, Gaussian charge scheme
   Yang Guo               : DLPNO-NEVPT2, CIM, IAO-localization
   Andreas Hansen         : Spin unrestricted coupled pair/coupled cluster methods
   Benjamin Helmich-Paris : CASSCF linear response (MC-RPA)
   Lee Huntington         : MR-EOM, pCC
   Robert Izsak           : Overlap fitted RIJCOSX, COSX-SCS-MP3, EOM
   Christian Kollmar      : KDIIS, OOCD, Brueckner-CCSD(T), CCSD density
   Simone Kossmann        : Meta GGA functionals, TD-DFT gradient, OOMP2, MP2 Hessian
   Martin Krupicka        : AUTO-CI
   Lucas Lang             : DCDCAS
   Dagmar Lenk            : GEPOL surface, SMD
   Dimitrios Liakos       : Extrapolation schemes; Compound Job, initial MDCI parallelization
   Dimitrios Manganas     : Further ROCIS development; embedding schemes
   Dimitrios Pantazis     : SARC Basis sets
   Taras Petrenko         : DFT Hessian,TD-DFT gradient, ASA, ECA, R-Raman, ABS, FL, XAS/XES, NRVS
   Peter Pinski           : DLPNO-MP2, DLPNO-MP2 Gradient
   Christoph Reimann      : Effective Core Potentials
   Marius Retegan         : Local ZFS, SOC
   Christoph Riplinger    : Optimizer, TS searches, QM/MM, DLPNO-CCSD(T), (RO)-DLPNO pert. Triples
   Tobias Risthaus        : Range-separated hybrids, TD-DFT gradient, RPA, STAB
   Michael Roemelt        : Original ROCIS implementation
   Masaaki Saitow         : Open-shell DLPNO-CCSD energy and density
   Barbara Sandhoefer     : DKH picture change effects
   Avijit Sen             : IP-ROCIS
   Kantharuban Sivalingam : CASSCF convergence, NEVPT2, FIC-MRCI
   Bernardo de Souza      : ESD, SOC TD-DFT
   Georgi Stoychev        : AutoAux, RI-MP2 NMR
   Willem Van den Heuvel  : Paramagnetic NMR
   Boris Wezisla          : Elementary symmetry handling
   Frank Wennmohs         : Technical directorship


 We gratefully acknowledge several colleagues who have allowed us to
 interface, adapt or use parts of their codes:
   Stefan Grimme, W. Hujo, H. Kruse,             : VdW corrections, initial TS optimization,
                  C. Bannwarth                     DFT functionals, gCP, sTDA/sTD-DF
   Ed Valeev, F. Pavosevic, A. Kumar             : LibInt (2-el integral package), F12 methods
   Garnet Chan, S. Sharma, J. Yang, R. Olivares  : DMRG
   Ulf Ekstrom                                   : XCFun DFT Library
   Mihaly Kallay                                 : mrcc  (arbitrary order and MRCC methods)
   Andreas Klamt, Michael Diedenhofen            : otool_cosmo (COSMO solvation model)
   Jiri Pittner, Ondrej Demel                    : Mk-CCSD
   Frank Weinhold                                : gennbo (NPA and NBO analysis)
   Christopher J. Cramer and Donald G. Truhlar   : smd solvation model
   Lars Goerigk                                  : TD-DFT with DH, B97 family of functionals
   V. Asgeirsson, H. Jonsson                     : NEB implementation
   FAccTs GmbH                                   : IRC, NEB, NEB-TS, Multilevel, MM, QM/MM, CI optimization
   S Lehtola, MJT Oliveira, MAL Marques          : LibXC Library


 Your calculation uses the libint2 library for the computation of 2-el integrals
 For citations please refer to: http://libint.valeyev.net

 Your ORCA version has been built with support for libXC version: 4.2.3
 For citations please refer to: https://tddft.org/programs/libxc/

 This ORCA versions uses:
   CBLAS   interface :  Fast vector & matrix operations
   LAPACKE interface :  Fast linear algebra routines
   SCALAPACK package :  Parallel linear algebra routines


----- Orbital basis set information -----
Your calculation utilizes the basis: cc-pCVDZ 
             H : cc-pVDZ. Obtained from the ccRepo (grant-hill.group.shef.ac.uk/ccrepo) Feb. 2017
                 T. H. Dunning, Jr., J. Chem. Phys. 90, 1007 (1989)
            He : cc-pVDZ. Obtained from the ccRepo (grant-hill.group.shef.ac.uk/ccrepo) Feb. 2017
                 D. E. Woon, T. H. Dunning, Jr., J. Chem. Phys. 100, 2975 (1994)
  Li-Be, Na-Mg : Obtained from the ccRepo (grant-hill.group.shef.ac.uk/ccrepo) Feb. 2017
                 B. P. Prascher, D. E. Woon, K. A. Peterson, T. H. Dunning, Jr., A. K. Wilson, Theor. Chem. Acc. 128, 69 (2011)
          B-Ne : Obtained from the ccRepo (grant-hill.group.shef.ac.uk/ccrepo) Feb. 2017
                 D. E. Woon, T. H. Dunning, Jr., J. Chem. Phys. 103, 4572 (1995)
                  K. A. Peterson, T. H. Dunning, Jr., J. Chem. Phys. 117, 10548 (2002)
         Al-Ar : Obtained from the EMSL Basis Set Exchange (bse.pnl.gov) Feb. 2017
                 K. A. Peterson, T. H. Dunning, Jr., J. Chem. Phys. 117, 10548 (2002)
            Ca : Obtained from the Peterson Research Group Website (tyr0.chem.wsu.edu/~kipeters) Feb. 2017
                 J. Koput, K. A. Peterson, J. Phys. Chem. 106, 9595 (2002)
         Ga-Kr : Obtained from the Peterson Research Group Website (tyr0.chem.wsu.edu/~kipeters) Feb. 2017
                 N. J. DeYonker, K. A. Peterson, A. K. Wilson, J. Phys. Chem. A 111, 11383 (2007)

================================================================================
                                        WARNINGS
                       Please study these warnings very carefully!
================================================================================


INFO   : the flag for use of LIBINT has been found!

================================================================================
                                       INPUT FILE
================================================================================
NAME = Ar_cc-pcvdz_.inp
|  1> ! LDA cc-pcvdz nori grid5 finalgrid6 verytightscf
|  2> %Pal NProcs 18 End
|  3> 
|  4> *xyz 16 1
|  5> Ar 0.0 0.0 0.0
|  6> **                         ****END OF INPUT****
================================================================================

                       ****************************
                       * Single Point Calculation *
                       ****************************

---------------------------------
CARTESIAN COORDINATES (ANGSTROEM)
---------------------------------
  Ar     0.000000    0.000000    0.000000

----------------------------
CARTESIAN COORDINATES (A.U.)
----------------------------
  NO LB      ZA    FRAG     MASS         X           Y           Z
   0 Ar   18.0000    0    39.948    0.000000    0.000000    0.000000

--------------------------------
INTERNAL COORDINATES (ANGSTROEM)
--------------------------------
 Ar     0   0   0     0.000000000000     0.00000000     0.00000000

---------------------------
INTERNAL COORDINATES (A.U.)
---------------------------
 Ar     0   0   0     0.000000000000     0.00000000     0.00000000

---------------------
BASIS SET INFORMATION
---------------------
There are 1 groups of distinct atoms

 Group   1 Type Ar  : 35s16p2d contracted to 5s4p2d pattern {11111111/7711/11}

Atom   0Ar   basis set group =>   1


           ************************************************************
           *        Program running with 18 parallel MPI-processes    *
           *              working on a common directory               *
           ************************************************************
------------------------------------------------------------------------------
                           ORCA GTO INTEGRAL CALCULATION
------------------------------------------------------------------------------

                         BASIS SET STATISTICS AND STARTUP INFO

 # of primitive gaussian shells          ...   53
 # of primitive gaussian functions       ...   93
 # of contracted shells                  ...   11
 # of contracted basis functions         ...   27
 Highest angular momentum                ...    2
 Maximum contraction depth               ...   11
 Integral package used                   ... LIBINT
 Integral threshhold            Thresh   ...  1.000e-12
 Primitive cut-off              TCut     ...  1.000e-14


------------------------------ INTEGRAL EVALUATION ----------------------------


 * One electron integrals 
 Pre-screening matrix                    ... done
 Shell pair data                         ... done (   0.000 sec)



           ************************************************************
           *        Program running with 18 parallel MPI-processes    *
           *              working on a common directory               *
           ************************************************************
-------------------------------------------------------------------------------
                                 ORCA SCF
-------------------------------------------------------------------------------

------------
SCF SETTINGS
------------
Hamiltonian:
 Density Functional     Method          .... DFT(GTOs)
 Exchange Functional    Exchange        .... Slater
   X-Alpha parameter    XAlpha          ....  0.666667
 Correlation Functional Correlation     .... VWN-5
 Gradients option       PostSCFGGA      .... off
   Density functional embedding theory  .... OFF


General Settings:
 Integral files         IntName         .... Ar_cc-pcvdz_
 Hartree-Fock type      HFTyp           .... RHF
 Total Charge           Charge          ....   16
 Multiplicity           Mult            ....    1
 Number of Electrons    NEL             ....    2
 Basis Dimension        Dim             ....   27
 Nuclear Repulsion      ENuc            ....      0.0000000000 Eh

Convergence Acceleration:
 DIIS                   CNVDIIS         .... on
   Start iteration      DIISMaxIt       ....    12
   Startup error        DIISStart       ....  0.200000
   # of expansion vecs  DIISMaxEq       ....     5
   Bias factor          DIISBfac        ....   1.050
   Max. coefficient     DIISMaxC        ....  10.000
 Newton-Raphson         CNVNR           .... off
 SOSCF                  CNVSOSCF        .... on
   Start iteration      SOSCFMaxIt      ....   150
   Startup grad/error   SOSCFStart      ....  0.003300
 Level Shifting         CNVShift        .... on
   Level shift para.    LevelShift      ....    0.2500
   Turn off err/grad.   ShiftErr        ....    0.0010
 Zerner damping         CNVZerner       .... off
 Static damping         CNVDamp         .... on
   Fraction old density DampFac         ....    0.7000
   Max. Damping (<1)    DampMax         ....    0.9800
   Min. Damping (>=0)   DampMin         ....    0.0000
   Turn off err/grad.   DampErr         ....    0.1000
 Fernandez-Rico         CNVRico         .... off

SCF Procedure:
 Maximum # iterations   MaxIter         ....   125
 SCF integral mode      SCFMode         .... Direct
   Integral package                     .... LIBINT
 Reset frequency        DirectResetFreq ....    20
 Integral Threshold     Thresh          ....  1.000e-12 Eh
 Primitive CutOff       TCut            ....  1.000e-14 Eh

Convergence Tolerance:
 Convergence Check Mode ConvCheckMode   .... Total+1el-Energy
 Convergence forced     ConvForced      .... 0
 Energy Change          TolE            ....  1.000e-09 Eh
 1-El. energy change                    ....  1.000e-06 Eh
 Orbital Gradient       TolG            ....  2.000e-06
 Orbital Rotation angle TolX            ....  2.000e-06
 DIIS Error             TolErr          ....  1.000e-08


Diagonalization of the overlap matrix:
Smallest eigenvalue                        ... 5.526e-02
Time for diagonalization                   ...    0.001 sec
Threshold for overlap eigenvalues          ... 1.000e-08
Number of eigenvalues below threshold      ... 0
Time for construction of square roots      ...    0.001 sec
Total time needed                          ...    0.002 sec

-------------------
DFT GRID GENERATION
-------------------

General Integration Accuracy     IntAcc      ...  5.010
Radial Grid Type                 RadialGrid  ... Gauss-Chebyshev
Angular Grid (max. acc.)         AngularGrid ... Lebedev-434
Angular grid pruning method      GridPruning ... 3 (G Style)
Weight generation scheme         WeightScheme... Becke
Basis function cutoff            BFCut       ...    1.0000e-12
Integration weight cutoff        WCut        ...    1.0000e-14
Grids for H and He will be reduced by one unit

# of grid points (after initial pruning)     ...  11992 (   0.0 sec)
# of grid points (after weights+screening)   ...  11992 (   0.0 sec)
Grid point division into batches done        ...    0.1 sec
Reduced shell lists constructed in    0.1 sec

Total number of grid points                  ...    11992
Total number of batches                      ...      188
Average number of points per batch           ...       63
Average number of grid points per atom       ...    11992
Average number of shells per batch           ...     0.00 ( 0.00%)
Average number of basis functions per batch  ...     0.00 ( 0.00%)
Average number of large shells per batch     ...     0.00 ( -nan%)
Average number of large basis fcns per batch ...     0.00 ( -nan%)
Maximum spatial batch extension              ...  18.71, 18.71, 18.71 au
Average spatial batch extension              ...   0.97,  0.98,  0.97 au

Time for grid setup =    0.157 sec

------------------------------
INITIAL GUESS: MODEL POTENTIAL
------------------------------
Loading Hartree-Fock densities                     ... done
Calculating cut-offs                               ... done
Setting up the integral package                    ... done
Initializing the effective Hamiltonian             ... done
Starting the Coulomb interaction                   ... done (   0.0 sec)
Reading the grid                                   ... done
Mapping shells                                     ... done
Starting the XC term evaluation                    ... done (   0.0 sec)
  promolecular density results
     # of electrons  =     17.999998971
     EX              =    -27.869847309
     EC              =     -1.431662733
     EX+EC           =    -29.301510042
Transforming the Hamiltonian                       ... done (   0.0 sec)
Diagonalizing the Hamiltonian                      ... done (   0.0 sec)
Back transforming the eigenvectors                 ... done (   0.0 sec)
Now organizing SCF variables                       ... done
                      ------------------
                      INITIAL GUESS DONE (   0.3 sec)
                      ------------------
--------------
SCF ITERATIONS
--------------
ITER       Energy         Delta-E        Max-DP      RMS-DP      [F,P]     Damp
               ***  Starting incremental Fock matrix formation  ***
  0   -311.5023949013   0.000000000000 0.01447954  0.00072784  2.1021164 0.7000
  1   -311.5115437085  -0.009148807132 0.01006032  0.00050556  1.4616797 0.7000
  2   -311.5178864170  -0.006342708581 0.00697157  0.00035025  1.0154782 0.7000
                      *** Initiating the SOSCF procedure ***
                      *** Re-Reading the Fockian *** 
                      *** Removing any level shift *** 
ITER      Energy       Delta-E        Grad      Rot      Max-DP    RMS-DP
  3   -311.52229675  -0.0044103285  0.002856  0.002856  0.016104  0.000809
               *** Restarting incremental Fock matrix formation ***
  4   -311.53249485  -0.0101981049  0.006593  0.000049  0.000378  0.000020
  5   -311.53249609  -0.0000012355  0.000127  0.000001  0.000007  0.000000
                 **** Energy Check signals convergence ****
              ***Rediagonalizing the Fockian in SOSCF/NRSCF***

               *****************************************************
               *                     SUCCESS                       *
               *           SCF CONVERGED AFTER   6 CYCLES          *
               *****************************************************

Setting up the final grid:

General Integration Accuracy     IntAcc      ...  5.340
Radial Grid Type                 RadialGrid  ... Gauss-Chebyshev
Angular Grid (max. acc.)         AngularGrid ... Lebedev-590
Angular grid pruning method      GridPruning ... 3 (G Style)
Weight generation scheme         WeightScheme... Becke
Basis function cutoff            BFCut       ...    1.0000e-12
Integration weight cutoff        WCut        ...    1.0000e-14
Grids for H and He will be reduced by one unit

# of grid points (after initial pruning)     ...  18110 (   0.0 sec)
# of grid points (after weights+screening)   ...  18110 (   0.0 sec)
Grid point division into batches done        ...    0.2 sec
Reduced shell lists constructed in    0.2 sec

Total number of grid points                  ...    18110
Total number of batches                      ...      283
Average number of points per batch           ...       63
Average number of grid points per atom       ...    18110
Average number of shells per batch           ...     0.00 ( 0.00%)
Average number of basis functions per batch  ...     0.00 ( 0.00%)
Average number of large shells per batch     ...     0.00 ( -nan%)
Average number of large basis fcns per batch ...     0.00 ( -nan%)
Maximum spatial batch extension              ...  19.03, 19.03, 19.03 au
Average spatial batch extension              ...   0.84,  0.84,  0.80 au

Final grid set up in    0.2 sec
Final integration                            ... done (   0.0 sec)
Change in XC energy                          ...     0.000001198
Integrated number of electrons               ...     1.999999988
Previous integrated no of electrons          ...     2.000000069

----------------
TOTAL SCF ENERGY
----------------

Total Energy       :         -311.53249489 Eh           -8477.23016 eV

Components:
Nuclear Repulsion  :            0.00000000 Eh               0.00000 eV
Electronic Energy  :         -311.53249489 Eh           -8477.23016 eV
One Electron Energy:         -323.84647657 Eh           -8812.31064 eV
Two Electron Energy:           12.31398168 Eh             335.08048 eV

Virial components:
Potential Energy   :         -622.82321117 Eh          -16947.88119 eV
Kinetic Energy     :          311.29071628 Eh            8470.65103 eV
Virial Ratio       :            2.00077670


DFT components:
N(Alpha)           :        0.999999994088 electrons
N(Beta)            :        0.999999994088 electrons
N(Total)           :        1.999999988177 electrons
E(X)               :       -9.432325673134 Eh       
E(C)               :       -0.236890369963 Eh       
E(XC)              :       -9.669216043097 Eh       
DFET-embed. en.    :        0.000000000000 Eh       

---------------
SCF CONVERGENCE
---------------

  Last Energy change         ...   -4.5935e-10  Tolerance :   1.0000e-09
  Last MAX-Density change    ...    0.0000e+00  Tolerance :   1.0000e-08
  Last RMS-Density change    ...    0.0000e+00  Tolerance :   1.0000e-09
  Last Orbital Gradient      ...    7.2825e-10  Tolerance :   2.0000e-06
  Last Orbital Rotation      ...    0.0000e+00  Tolerance :   2.0000e-06

================================================================================
                                        WARNING
Number of found core electrons (2) does not match given number of chemical core electrons (10)
================================================================================
             **** THE GBW FILE WAS UPDATED (Ar_cc-pcvdz_.gbw) ****
             **** DENSITY FILE WAS UPDATED (Ar_cc-pcvdz_.scfp) ****
             **** ENERGY FILE WAS UPDATED (Ar_cc-pcvdz_.en.tmp) ****
             **** THE GBW FILE WAS UPDATED (Ar_cc-pcvdz_.gbw) ****
             **** DENSITY FILE WAS UPDATED (Ar_cc-pcvdz_.scfp) ****
----------------
ORBITAL ENERGIES
----------------

  NO   OCC          E(Eh)            E(eV) 
   0   2.0000    -146.356254     -3982.5561 
   1   0.0000     -34.023285      -925.8207 
   2   0.0000     -33.208039      -903.6367 
   3   0.0000     -33.208039      -903.6367 
   4   0.0000     -33.208039      -903.6367 
   5   0.0000     -13.675409      -372.1268 
   6   0.0000     -13.520542      -367.9127 
   7   0.0000     -13.520542      -367.9127 
   8   0.0000     -13.520542      -367.9127 
   9   0.0000      -9.733613      -264.8651 
  10   0.0000      -9.733613      -264.8651 
  11   0.0000      -9.733613      -264.8651 
  12   0.0000      -9.733613      -264.8651 
  13   0.0000      -9.733613      -264.8651 
  14   0.0000      -7.098264      -193.1536 
  15   0.0000      -7.098264      -193.1536 
  16   0.0000      -7.098264      -193.1536 
  17   0.0000      -6.577416      -178.9806 
  18   0.0000      -5.532685      -150.5520 
  19   0.0000      -5.532685      -150.5520 
  20   0.0000      -5.532685      -150.5520 
  21   0.0000      -5.532685      -150.5520 
  22   0.0000      -5.532685      -150.5520 
  23   0.0000      -4.754487      -129.3762 
  24   0.0000      -4.754487      -129.3762 
  25   0.0000      -4.754487      -129.3762 
  26   0.0000       0.875251        23.8168 

                    ********************************
                    * MULLIKEN POPULATION ANALYSIS *
                    ********************************

-----------------------
MULLIKEN ATOMIC CHARGES
-----------------------
   0 Ar:   16.000000
Sum of atomic charges:   16.0000000

--------------------------------
MULLIKEN REDUCED ORBITAL CHARGES
--------------------------------
  0 Ars       :     2.000000  s :     2.000000
      pz      :     0.000000  p :     0.000000
      px      :     0.000000
      py      :     0.000000
      dz2     :     0.000000  d :     0.000000
      dxz     :     0.000000
      dyz     :     0.000000
      dx2y2   :     0.000000
      dxy     :     0.000000


                     *******************************
                     * LOEWDIN POPULATION ANALYSIS *
                     *******************************

----------------------
LOEWDIN ATOMIC CHARGES
----------------------
   0 Ar:   16.000000

-------------------------------
LOEWDIN REDUCED ORBITAL CHARGES
-------------------------------
  0 Ars       :     2.000000  s :     2.000000
      pz      :     0.000000  p :     0.000000
      px      :     0.000000
      py      :     0.000000
      dz2     :     0.000000  d :     0.000000
      dxz     :     0.000000
      dyz     :     0.000000
      dx2y2   :     0.000000
      dxy     :     0.000000


                      *****************************
                      * MAYER POPULATION ANALYSIS *
                      *****************************

  NA   - Mulliken gross atomic population
  ZA   - Total nuclear charge
  QA   - Mulliken gross atomic charge
  VA   - Mayer's total valence
  BVA  - Mayer's bonded valence
  FA   - Mayer's free valence

  ATOM       NA         ZA         QA         VA         BVA        FA
  0 Ar     2.0000    18.0000    16.0000     0.0000     0.0000     0.0000

  Mayer bond orders larger than 0.100000


--------------------------
ATOM BASIS FOR ELEMENT Ar
--------------------------
 NewGTO Ar
 S 35
    1     145700.000000000000         0.000238280343
    2      21840.000000000000         0.001847483034
    3       4972.000000000000         0.009592218326
    4       1408.000000000000         0.038886204391
    5        459.700000000000         0.124909434973
    6        165.900000000000         0.298450408169
    7         64.690000000000         0.424885964816
    8         26.440000000000         0.243324799420
    9          7.628000000000         0.020184771155
   10          2.996000000000        -0.003634102403
   11          0.650400000000         0.000982120704
   12     145700.000000000000        -0.000000090814
   13      21840.000000000000        -0.000000697710
   14       4972.000000000000        -0.000003697973
   15       1408.000000000000        -0.000014936810
   16        459.700000000000        -0.000051780368
   17        165.900000000000        -0.000134234301
   18         64.690000000000        -0.000273269878
   19         26.440000000000        -0.000182470563
   20          7.628000000000         0.000682468269
   21          2.996000000000         0.000824699449
   22          0.650400000000         0.000059604610
   23     145700.000000000000        -0.000000024580
   24      21840.000000000000        -0.000000189866
   25       4972.000000000000        -0.000000999131
   26       1408.000000000000        -0.000004084818
   27        459.700000000000        -0.000014033520
   28        165.900000000000        -0.000037533909
   29         64.690000000000        -0.000076532767
   30         26.440000000000        -0.000058323505
   31          7.628000000000         0.000268356797
   32          2.996000000000         0.000491710464
   33          0.650400000000        -0.000750205161
   34          0.233700000000        -0.000092648267
   35          9.548000000000        -0.012046953441
 S 35
    1     145700.000000000000         0.000045768611
    2      21840.000000000000         0.000354862388
    3       4972.000000000000         0.001842462114
    4       1408.000000000000         0.007469216810
    5        459.700000000000         0.023992458662
    6        165.900000000000         0.057326006496
    7         64.690000000000         0.081611600830
    8         26.440000000000         0.046737543828
    9          7.628000000000         0.003877067314
   10          2.996000000000        -0.000698034153
   11          0.650400000000         0.000188644600
   12     145700.000000000000         0.000046490967
   13      21840.000000000000         0.000357182280
   14       4972.000000000000         0.001893123535
   15       1408.000000000000         0.007646682954
   16        459.700000000000         0.026508206997
   17        165.900000000000         0.068719299393
   18         64.690000000000         0.139896542350
   19         26.440000000000         0.093413152500
   20          7.628000000000        -0.349379711244
   21          2.996000000000        -0.422192896740
   22          0.650400000000        -0.030513714041
   23     145700.000000000000         0.000003243880
   24      21840.000000000000         0.000025056964
   25       4972.000000000000         0.000131856828
   26       1408.000000000000         0.000539079615
   27        459.700000000000         0.001852025052
   28        165.900000000000         0.004953407128
   29         64.690000000000         0.010100145844
   30         26.440000000000         0.007697041764
   31          7.628000000000        -0.035415455255
   32          2.996000000000        -0.064891778940
   33          0.650400000000         0.099005717871
   34          0.233700000000        -0.025532316213
   35          9.548000000000        -0.348420352081
 S 35
    1     145700.000000000000         0.000103051330
    2      21840.000000000000         0.000798998281
    3       4972.000000000000         0.004148436448
    4       1408.000000000000         0.016817480811
    5        459.700000000000         0.054020752571
    6        165.900000000000         0.129073641698
    7         64.690000000000         0.183754410395
    8         26.440000000000         0.105232953674
    9          7.628000000000         0.008729496923
   10          2.996000000000        -0.001571674284
   11          0.650400000000         0.000424746934
   12     145700.000000000000        -0.000076913374
   13      21840.000000000000        -0.000590912518
   14       4972.000000000000        -0.003131931388
   15       1408.000000000000        -0.012650461479
   16        459.700000000000        -0.043854446893
   17        165.900000000000        -0.113687314501
   18         64.690000000000        -0.231440983075
   19         26.440000000000        -0.154540144336
   20          7.628000000000         0.578004162781
   21          2.996000000000         0.698464289593
   22          0.650400000000         0.050481047325
   23     145700.000000000000         0.000044744438
   24      21840.000000000000         0.000345623079
   25       4972.000000000000         0.001818766378
   26       1408.000000000000         0.007435791458
   27        459.700000000000         0.025545896538
   28        165.900000000000         0.068324791759
   29         64.690000000000         0.139316301620
   30         26.440000000000         0.106169099788
   31          7.628000000000        -0.488502871400
   32          2.996000000000        -0.895084366807
   33          0.650400000000         1.365634780538
   34          0.233700000000        -0.339765599539
   35          9.548000000000        -0.649180943319
 S 35
    1     145700.000000000000        -0.000094589329
    2      21840.000000000000        -0.000733388995
    3       4972.000000000000        -0.003807789966
    4       1408.000000000000        -0.015436523008
    5        459.700000000000        -0.049584869419
    6        165.900000000000        -0.118474833548
    7         64.690000000000        -0.168665522246
    8         26.440000000000        -0.096591809963
    9          7.628000000000        -0.008012679284
   10          2.996000000000         0.001442617150
   11          0.650400000000        -0.000389869083
   12     145700.000000000000         0.000092405114
   13      21840.000000000000         0.000709932950
   14       4972.000000000000         0.003762758822
   15       1408.000000000000         0.015198492444
   16        459.700000000000         0.052687522968
   17        165.900000000000         0.136585988841
   18         64.690000000000         0.278057368760
   19         26.440000000000         0.185667314971
   20          7.628000000000        -0.694424619613
   21          2.996000000000        -0.839147587243
   22          0.650400000000        -0.060648840170
   23     145700.000000000000        -0.000044281653
   24      21840.000000000000        -0.000342048347
   25       4972.000000000000        -0.001799955128
   26       1408.000000000000        -0.007358884091
   27        459.700000000000        -0.025281678849
   28        165.900000000000        -0.067618117848
   29         64.690000000000        -0.137875372301
   30         26.440000000000        -0.105071007412
   31          7.628000000000         0.483450353486
   32          2.996000000000         0.885826632486
   33          0.650400000000        -1.351510208100
   34          0.233700000000         1.805251605962
   35          9.548000000000         0.460949798695
 S 35
    1     145700.000000000000         0.000378062851
    2      21840.000000000000         0.002931272862
    3       4972.000000000000         0.015219305803
    4       1408.000000000000         0.061698036473
    5        459.700000000000         0.198185114634
    6        165.900000000000         0.473530509268
    7         64.690000000000         0.674137015040
    8         26.440000000000         0.386066539141
    9          7.628000000000         0.032025772802
   10          2.996000000000        -0.005765977578
   11          0.650400000000         0.001558262628
   12     145700.000000000000        -0.000101009832
   13      21840.000000000000        -0.000776041548
   14       4972.000000000000        -0.004113145023
   15       1408.000000000000        -0.016613768383
   16        459.700000000000        -0.057593758493
   17        165.900000000000        -0.149304807128
   18         64.690000000000        -0.303949930483
   19         26.440000000000        -0.202956561554
   20          7.628000000000         0.759089089416
   21          2.996000000000         0.917288586687
   22          0.650400000000         0.066296429531
   23     145700.000000000000        -0.000060045415
   24      21840.000000000000        -0.000463813649
   25       4972.000000000000        -0.002440718580
   26       1408.000000000000        -0.009978562719
   27        459.700000000000        -0.034281667558
   28        165.900000000000        -0.091689394951
   29         64.690000000000        -0.186957428974
   30         26.440000000000        -0.142475085126
   31          7.628000000000         0.655553153662
   32          2.996000000000         1.201170788969
   33          0.650400000000        -1.832632394904
   34          0.233700000000         0.875755291729
   35          9.548000000000        -3.063176835302
 P 16
    1        453.700000000000         0.007721493814
    2        106.800000000000         0.058255457007
    3         33.730000000000         0.238985954752
    4         12.130000000000         0.550620034478
    5          4.594000000000         0.612448283532
    6          1.678000000000         0.166190316775
    7          0.590900000000        -0.006035799099
    8        453.700000000000         0.000239869533
    9        106.800000000000         0.001817278042
   10         33.730000000000         0.007775756400
   11         12.130000000000         0.018474828954
   12          4.594000000000         0.022637813194
   13          1.678000000000        -0.021265082504
   14          0.590900000000        -0.087270226356
   15          0.185200000000         0.033476197209
   16          4.361000000000        -0.429455023718
 P 16
    1        453.700000000000         0.004348668881
    2        106.800000000000         0.032808896718
    3         33.730000000000         0.134594524004
    4         12.130000000000         0.310103752853
    5          4.594000000000         0.344924810685
    6          1.678000000000         0.093596741296
    7          0.590900000000        -0.003399302305
    8        453.700000000000         0.001971304122
    9        106.800000000000         0.014934817461
   10         33.730000000000         0.063902991035
   11         12.130000000000         0.151830480323
   12          4.594000000000         0.186042861844
   13          1.678000000000        -0.174761438858
   14          0.590900000000        -0.717207202203
   15          0.185200000000         0.224817122596
   16          4.361000000000        -1.151225154242
 P 16
    1        453.700000000000         0.008425603518
    2        106.800000000000         0.063567671659
    3         33.730000000000         0.260778671791
    4         12.130000000000         0.600830125777
    5          4.594000000000         0.668296386229
    6          1.678000000000         0.181344925136
    7          0.590900000000        -0.006586193209
    8        453.700000000000        -0.001241075095
    9        106.800000000000        -0.009402521812
   10         33.730000000000        -0.040231443646
   11         12.130000000000        -0.095588004787
   12          4.594000000000        -0.117127113941
   13          1.678000000000         0.110024661837
   14          0.590900000000         0.451532560073
   15          0.185200000000         0.405410571275
   16          4.361000000000        -1.724713734058
 P 16
    1        453.700000000000         0.007194983969
    2        106.800000000000         0.054283159365
    3         33.730000000000         0.222690084918
    4         12.130000000000         0.513074596213
    5          4.594000000000         0.570686927643
    6          1.678000000000         0.154858204087
    7          0.590900000000        -0.005624232668
    8        453.700000000000        -0.002287042308
    9        106.800000000000        -0.017326884781
   10         33.730000000000        -0.074138151716
   11         12.130000000000        -0.176148737375
   12          4.594000000000        -0.215840818931
   13          1.678000000000         0.202752482448
   14          0.590900000000         0.832080243942
   15          0.185200000000        -1.224064621529
   16          4.361000000000        -1.258142606346
 D 2
    1          0.738000000000         0.894984225824
    2         11.459000000000         0.384092548931
 D 2
    1          0.738000000000        -0.452372406505
    2         11.459000000000         0.926342524392
 end
  // -----------------------------------------------
  // The basis set
  // -----------------------------------------------
  BAS[ATNO] = new BFNGauss[NSH];
  // Basis function   1 L = s
  InitBFNGauss(BAS[ATNO][  0]);
  BAS[ATNO][  0].l  = 0;
  BAS[ATNO][  0].ng = 35;
  BAS[ATNO][  0].a[  0] =    145700.000000000000;     BAS[ATNO][  0].d[  0] =         0.000238280343;
  BAS[ATNO][  0].a[  1] =     21840.000000000000;     BAS[ATNO][  0].d[  1] =         0.001847483034;
  BAS[ATNO][  0].a[  2] =      4972.000000000000;     BAS[ATNO][  0].d[  2] =         0.009592218326;
  BAS[ATNO][  0].a[  3] =      1408.000000000000;     BAS[ATNO][  0].d[  3] =         0.038886204391;
  BAS[ATNO][  0].a[  4] =       459.700000000000;     BAS[ATNO][  0].d[  4] =         0.124909434973;
  BAS[ATNO][  0].a[  5] =       165.900000000000;     BAS[ATNO][  0].d[  5] =         0.298450408169;
  BAS[ATNO][  0].a[  6] =        64.690000000000;     BAS[ATNO][  0].d[  6] =         0.424885964816;
  BAS[ATNO][  0].a[  7] =        26.440000000000;     BAS[ATNO][  0].d[  7] =         0.243324799420;
  BAS[ATNO][  0].a[  8] =         7.628000000000;     BAS[ATNO][  0].d[  8] =         0.020184771155;
  BAS[ATNO][  0].a[  9] =         2.996000000000;     BAS[ATNO][  0].d[  9] =        -0.003634102403;
  BAS[ATNO][  0].a[ 10] =         0.650400000000;     BAS[ATNO][  0].d[ 10] =         0.000982120704;
  BAS[ATNO][  0].a[ 11] =    145700.000000000000;     BAS[ATNO][  0].d[ 11] =        -0.000000090814;
  BAS[ATNO][  0].a[ 12] =     21840.000000000000;     BAS[ATNO][  0].d[ 12] =        -0.000000697710;
  BAS[ATNO][  0].a[ 13] =      4972.000000000000;     BAS[ATNO][  0].d[ 13] =        -0.000003697973;
  BAS[ATNO][  0].a[ 14] =      1408.000000000000;     BAS[ATNO][  0].d[ 14] =        -0.000014936810;
  BAS[ATNO][  0].a[ 15] =       459.700000000000;     BAS[ATNO][  0].d[ 15] =        -0.000051780368;
  BAS[ATNO][  0].a[ 16] =       165.900000000000;     BAS[ATNO][  0].d[ 16] =        -0.000134234301;
  BAS[ATNO][  0].a[ 17] =        64.690000000000;     BAS[ATNO][  0].d[ 17] =        -0.000273269878;
  BAS[ATNO][  0].a[ 18] =        26.440000000000;     BAS[ATNO][  0].d[ 18] =        -0.000182470563;
  BAS[ATNO][  0].a[ 19] =         7.628000000000;     BAS[ATNO][  0].d[ 19] =         0.000682468269;
  BAS[ATNO][  0].a[ 20] =         2.996000000000;     BAS[ATNO][  0].d[ 20] =         0.000824699449;
  BAS[ATNO][  0].a[ 21] =         0.650400000000;     BAS[ATNO][  0].d[ 21] =         0.000059604610;
  BAS[ATNO][  0].a[ 22] =    145700.000000000000;     BAS[ATNO][  0].d[ 22] =        -0.000000024580;
  BAS[ATNO][  0].a[ 23] =     21840.000000000000;     BAS[ATNO][  0].d[ 23] =        -0.000000189866;
  BAS[ATNO][  0].a[ 24] =      4972.000000000000;     BAS[ATNO][  0].d[ 24] =        -0.000000999131;
  BAS[ATNO][  0].a[ 25] =      1408.000000000000;     BAS[ATNO][  0].d[ 25] =        -0.000004084818;
  BAS[ATNO][  0].a[ 26] =       459.700000000000;     BAS[ATNO][  0].d[ 26] =        -0.000014033520;
  BAS[ATNO][  0].a[ 27] =       165.900000000000;     BAS[ATNO][  0].d[ 27] =        -0.000037533909;
  BAS[ATNO][  0].a[ 28] =        64.690000000000;     BAS[ATNO][  0].d[ 28] =        -0.000076532767;
  BAS[ATNO][  0].a[ 29] =        26.440000000000;     BAS[ATNO][  0].d[ 29] =        -0.000058323505;
  BAS[ATNO][  0].a[ 30] =         7.628000000000;     BAS[ATNO][  0].d[ 30] =         0.000268356797;
  BAS[ATNO][  0].a[ 31] =         2.996000000000;     BAS[ATNO][  0].d[ 31] =         0.000491710464;
  BAS[ATNO][  0].a[ 32] =         0.650400000000;     BAS[ATNO][  0].d[ 32] =        -0.000750205161;
  BAS[ATNO][  0].a[ 33] =         0.233700000000;     BAS[ATNO][  0].d[ 33] =        -0.000092648267;
  BAS[ATNO][  0].a[ 34] =         9.548000000000;     BAS[ATNO][  0].d[ 34] =        -0.012046953441;

  // Basis function   2 L = s
  InitBFNGauss(BAS[ATNO][  1]);
  BAS[ATNO][  1].l  = 0;
  BAS[ATNO][  1].ng = 35;
  BAS[ATNO][  1].a[  0] =    145700.000000000000;     BAS[ATNO][  1].d[  0] =        -0.000045768611;
  BAS[ATNO][  1].a[  1] =     21840.000000000000;     BAS[ATNO][  1].d[  1] =        -0.000354862388;
  BAS[ATNO][  1].a[  2] =      4972.000000000000;     BAS[ATNO][  1].d[  2] =        -0.001842462114;
  BAS[ATNO][  1].a[  3] =      1408.000000000000;     BAS[ATNO][  1].d[  3] =        -0.007469216810;
  BAS[ATNO][  1].a[  4] =       459.700000000000;     BAS[ATNO][  1].d[  4] =        -0.023992458662;
  BAS[ATNO][  1].a[  5] =       165.900000000000;     BAS[ATNO][  1].d[  5] =        -0.057326006496;
  BAS[ATNO][  1].a[  6] =        64.690000000000;     BAS[ATNO][  1].d[  6] =        -0.081611600830;
  BAS[ATNO][  1].a[  7] =        26.440000000000;     BAS[ATNO][  1].d[  7] =        -0.046737543828;
  BAS[ATNO][  1].a[  8] =         7.628000000000;     BAS[ATNO][  1].d[  8] =        -0.003877067314;
  BAS[ATNO][  1].a[  9] =         2.996000000000;     BAS[ATNO][  1].d[  9] =         0.000698034153;
  BAS[ATNO][  1].a[ 10] =         0.650400000000;     BAS[ATNO][  1].d[ 10] =        -0.000188644600;
  BAS[ATNO][  1].a[ 11] =    145700.000000000000;     BAS[ATNO][  1].d[ 11] =        -0.000046490967;
  BAS[ATNO][  1].a[ 12] =     21840.000000000000;     BAS[ATNO][  1].d[ 12] =        -0.000357182280;
  BAS[ATNO][  1].a[ 13] =      4972.000000000000;     BAS[ATNO][  1].d[ 13] =        -0.001893123535;
  BAS[ATNO][  1].a[ 14] =      1408.000000000000;     BAS[ATNO][  1].d[ 14] =        -0.007646682954;
  BAS[ATNO][  1].a[ 15] =       459.700000000000;     BAS[ATNO][  1].d[ 15] =        -0.026508206997;
  BAS[ATNO][  1].a[ 16] =       165.900000000000;     BAS[ATNO][  1].d[ 16] =        -0.068719299393;
  BAS[ATNO][  1].a[ 17] =        64.690000000000;     BAS[ATNO][  1].d[ 17] =        -0.139896542350;
  BAS[ATNO][  1].a[ 18] =        26.440000000000;     BAS[ATNO][  1].d[ 18] =        -0.093413152500;
  BAS[ATNO][  1].a[ 19] =         7.628000000000;     BAS[ATNO][  1].d[ 19] =         0.349379711244;
  BAS[ATNO][  1].a[ 20] =         2.996000000000;     BAS[ATNO][  1].d[ 20] =         0.422192896740;
  BAS[ATNO][  1].a[ 21] =         0.650400000000;     BAS[ATNO][  1].d[ 21] =         0.030513714041;
  BAS[ATNO][  1].a[ 22] =    145700.000000000000;     BAS[ATNO][  1].d[ 22] =        -0.000003243880;
  BAS[ATNO][  1].a[ 23] =     21840.000000000000;     BAS[ATNO][  1].d[ 23] =        -0.000025056964;
  BAS[ATNO][  1].a[ 24] =      4972.000000000000;     BAS[ATNO][  1].d[ 24] =        -0.000131856828;
  BAS[ATNO][  1].a[ 25] =      1408.000000000000;     BAS[ATNO][  1].d[ 25] =        -0.000539079615;
  BAS[ATNO][  1].a[ 26] =       459.700000000000;     BAS[ATNO][  1].d[ 26] =        -0.001852025052;
  BAS[ATNO][  1].a[ 27] =       165.900000000000;     BAS[ATNO][  1].d[ 27] =        -0.004953407128;
  BAS[ATNO][  1].a[ 28] =        64.690000000000;     BAS[ATNO][  1].d[ 28] =        -0.010100145844;
  BAS[ATNO][  1].a[ 29] =        26.440000000000;     BAS[ATNO][  1].d[ 29] =        -0.007697041764;
  BAS[ATNO][  1].a[ 30] =         7.628000000000;     BAS[ATNO][  1].d[ 30] =         0.035415455255;
  BAS[ATNO][  1].a[ 31] =         2.996000000000;     BAS[ATNO][  1].d[ 31] =         0.064891778940;
  BAS[ATNO][  1].a[ 32] =         0.650400000000;     BAS[ATNO][  1].d[ 32] =        -0.099005717871;
  BAS[ATNO][  1].a[ 33] =         0.233700000000;     BAS[ATNO][  1].d[ 33] =         0.025532316213;
  BAS[ATNO][  1].a[ 34] =         9.548000000000;     BAS[ATNO][  1].d[ 34] =         0.348420352081;

  // Basis function   3 L = s
  InitBFNGauss(BAS[ATNO][  2]);
  BAS[ATNO][  2].l  = 0;
  BAS[ATNO][  2].ng = 35;
  BAS[ATNO][  2].a[  0] =    145700.000000000000;     BAS[ATNO][  2].d[  0] =         0.000103051330;
  BAS[ATNO][  2].a[  1] =     21840.000000000000;     BAS[ATNO][  2].d[  1] =         0.000798998281;
  BAS[ATNO][  2].a[  2] =      4972.000000000000;     BAS[ATNO][  2].d[  2] =         0.004148436448;
  BAS[ATNO][  2].a[  3] =      1408.000000000000;     BAS[ATNO][  2].d[  3] =         0.016817480811;
  BAS[ATNO][  2].a[  4] =       459.700000000000;     BAS[ATNO][  2].d[  4] =         0.054020752571;
  BAS[ATNO][  2].a[  5] =       165.900000000000;     BAS[ATNO][  2].d[  5] =         0.129073641698;
  BAS[ATNO][  2].a[  6] =        64.690000000000;     BAS[ATNO][  2].d[  6] =         0.183754410395;
  BAS[ATNO][  2].a[  7] =        26.440000000000;     BAS[ATNO][  2].d[  7] =         0.105232953674;
  BAS[ATNO][  2].a[  8] =         7.628000000000;     BAS[ATNO][  2].d[  8] =         0.008729496923;
  BAS[ATNO][  2].a[  9] =         2.996000000000;     BAS[ATNO][  2].d[  9] =        -0.001571674284;
  BAS[ATNO][  2].a[ 10] =         0.650400000000;     BAS[ATNO][  2].d[ 10] =         0.000424746934;
  BAS[ATNO][  2].a[ 11] =    145700.000000000000;     BAS[ATNO][  2].d[ 11] =        -0.000076913374;
  BAS[ATNO][  2].a[ 12] =     21840.000000000000;     BAS[ATNO][  2].d[ 12] =        -0.000590912518;
  BAS[ATNO][  2].a[ 13] =      4972.000000000000;     BAS[ATNO][  2].d[ 13] =        -0.003131931388;
  BAS[ATNO][  2].a[ 14] =      1408.000000000000;     BAS[ATNO][  2].d[ 14] =        -0.012650461479;
  BAS[ATNO][  2].a[ 15] =       459.700000000000;     BAS[ATNO][  2].d[ 15] =        -0.043854446893;
  BAS[ATNO][  2].a[ 16] =       165.900000000000;     BAS[ATNO][  2].d[ 16] =        -0.113687314501;
  BAS[ATNO][  2].a[ 17] =        64.690000000000;     BAS[ATNO][  2].d[ 17] =        -0.231440983075;
  BAS[ATNO][  2].a[ 18] =        26.440000000000;     BAS[ATNO][  2].d[ 18] =        -0.154540144336;
  BAS[ATNO][  2].a[ 19] =         7.628000000000;     BAS[ATNO][  2].d[ 19] =         0.578004162781;
  BAS[ATNO][  2].a[ 20] =         2.996000000000;     BAS[ATNO][  2].d[ 20] =         0.698464289593;
  BAS[ATNO][  2].a[ 21] =         0.650400000000;     BAS[ATNO][  2].d[ 21] =         0.050481047325;
  BAS[ATNO][  2].a[ 22] =    145700.000000000000;     BAS[ATNO][  2].d[ 22] =         0.000044744438;
  BAS[ATNO][  2].a[ 23] =     21840.000000000000;     BAS[ATNO][  2].d[ 23] =         0.000345623079;
  BAS[ATNO][  2].a[ 24] =      4972.000000000000;     BAS[ATNO][  2].d[ 24] =         0.001818766378;
  BAS[ATNO][  2].a[ 25] =      1408.000000000000;     BAS[ATNO][  2].d[ 25] =         0.007435791458;
  BAS[ATNO][  2].a[ 26] =       459.700000000000;     BAS[ATNO][  2].d[ 26] =         0.025545896538;
  BAS[ATNO][  2].a[ 27] =       165.900000000000;     BAS[ATNO][  2].d[ 27] =         0.068324791759;
  BAS[ATNO][  2].a[ 28] =        64.690000000000;     BAS[ATNO][  2].d[ 28] =         0.139316301620;
  BAS[ATNO][  2].a[ 29] =        26.440000000000;     BAS[ATNO][  2].d[ 29] =         0.106169099788;
  BAS[ATNO][  2].a[ 30] =         7.628000000000;     BAS[ATNO][  2].d[ 30] =        -0.488502871400;
  BAS[ATNO][  2].a[ 31] =         2.996000000000;     BAS[ATNO][  2].d[ 31] =        -0.895084366807;
  BAS[ATNO][  2].a[ 32] =         0.650400000000;     BAS[ATNO][  2].d[ 32] =         1.365634780538;
  BAS[ATNO][  2].a[ 33] =         0.233700000000;     BAS[ATNO][  2].d[ 33] =        -0.339765599539;
  BAS[ATNO][  2].a[ 34] =         9.548000000000;     BAS[ATNO][  2].d[ 34] =        -0.649180943319;

  // Basis function   4 L = s
  InitBFNGauss(BAS[ATNO][  3]);
  BAS[ATNO][  3].l  = 0;
  BAS[ATNO][  3].ng = 35;
  BAS[ATNO][  3].a[  0] =    145700.000000000000;     BAS[ATNO][  3].d[  0] =        -0.000094589329;
  BAS[ATNO][  3].a[  1] =     21840.000000000000;     BAS[ATNO][  3].d[  1] =        -0.000733388995;
  BAS[ATNO][  3].a[  2] =      4972.000000000000;     BAS[ATNO][  3].d[  2] =        -0.003807789966;
  BAS[ATNO][  3].a[  3] =      1408.000000000000;     BAS[ATNO][  3].d[  3] =        -0.015436523008;
  BAS[ATNO][  3].a[  4] =       459.700000000000;     BAS[ATNO][  3].d[  4] =        -0.049584869419;
  BAS[ATNO][  3].a[  5] =       165.900000000000;     BAS[ATNO][  3].d[  5] =        -0.118474833548;
  BAS[ATNO][  3].a[  6] =        64.690000000000;     BAS[ATNO][  3].d[  6] =        -0.168665522246;
  BAS[ATNO][  3].a[  7] =        26.440000000000;     BAS[ATNO][  3].d[  7] =        -0.096591809963;
  BAS[ATNO][  3].a[  8] =         7.628000000000;     BAS[ATNO][  3].d[  8] =        -0.008012679284;
  BAS[ATNO][  3].a[  9] =         2.996000000000;     BAS[ATNO][  3].d[  9] =         0.001442617150;
  BAS[ATNO][  3].a[ 10] =         0.650400000000;     BAS[ATNO][  3].d[ 10] =        -0.000389869083;
  BAS[ATNO][  3].a[ 11] =    145700.000000000000;     BAS[ATNO][  3].d[ 11] =         0.000092405114;
  BAS[ATNO][  3].a[ 12] =     21840.000000000000;     BAS[ATNO][  3].d[ 12] =         0.000709932950;
  BAS[ATNO][  3].a[ 13] =      4972.000000000000;     BAS[ATNO][  3].d[ 13] =         0.003762758822;
  BAS[ATNO][  3].a[ 14] =      1408.000000000000;     BAS[ATNO][  3].d[ 14] =         0.015198492444;
  BAS[ATNO][  3].a[ 15] =       459.700000000000;     BAS[ATNO][  3].d[ 15] =         0.052687522968;
  BAS[ATNO][  3].a[ 16] =       165.900000000000;     BAS[ATNO][  3].d[ 16] =         0.136585988841;
  BAS[ATNO][  3].a[ 17] =        64.690000000000;     BAS[ATNO][  3].d[ 17] =         0.278057368760;
  BAS[ATNO][  3].a[ 18] =        26.440000000000;     BAS[ATNO][  3].d[ 18] =         0.185667314971;
  BAS[ATNO][  3].a[ 19] =         7.628000000000;     BAS[ATNO][  3].d[ 19] =        -0.694424619613;
  BAS[ATNO][  3].a[ 20] =         2.996000000000;     BAS[ATNO][  3].d[ 20] =        -0.839147587243;
  BAS[ATNO][  3].a[ 21] =         0.650400000000;     BAS[ATNO][  3].d[ 21] =        -0.060648840170;
  BAS[ATNO][  3].a[ 22] =    145700.000000000000;     BAS[ATNO][  3].d[ 22] =        -0.000044281653;
  BAS[ATNO][  3].a[ 23] =     21840.000000000000;     BAS[ATNO][  3].d[ 23] =        -0.000342048347;
  BAS[ATNO][  3].a[ 24] =      4972.000000000000;     BAS[ATNO][  3].d[ 24] =        -0.001799955128;
  BAS[ATNO][  3].a[ 25] =      1408.000000000000;     BAS[ATNO][  3].d[ 25] =        -0.007358884091;
  BAS[ATNO][  3].a[ 26] =       459.700000000000;     BAS[ATNO][  3].d[ 26] =        -0.025281678849;
  BAS[ATNO][  3].a[ 27] =       165.900000000000;     BAS[ATNO][  3].d[ 27] =        -0.067618117848;
  BAS[ATNO][  3].a[ 28] =        64.690000000000;     BAS[ATNO][  3].d[ 28] =        -0.137875372301;
  BAS[ATNO][  3].a[ 29] =        26.440000000000;     BAS[ATNO][  3].d[ 29] =        -0.105071007412;
  BAS[ATNO][  3].a[ 30] =         7.628000000000;     BAS[ATNO][  3].d[ 30] =         0.483450353486;
  BAS[ATNO][  3].a[ 31] =         2.996000000000;     BAS[ATNO][  3].d[ 31] =         0.885826632486;
  BAS[ATNO][  3].a[ 32] =         0.650400000000;     BAS[ATNO][  3].d[ 32] =        -1.351510208100;
  BAS[ATNO][  3].a[ 33] =         0.233700000000;     BAS[ATNO][  3].d[ 33] =         1.805251605962;
  BAS[ATNO][  3].a[ 34] =         9.548000000000;     BAS[ATNO][  3].d[ 34] =         0.460949798695;

  // Basis function   5 L = s
  InitBFNGauss(BAS[ATNO][  4]);
  BAS[ATNO][  4].l  = 0;
  BAS[ATNO][  4].ng = 35;
  BAS[ATNO][  4].a[  0] =    145700.000000000000;     BAS[ATNO][  4].d[  0] =        -0.000378062851;
  BAS[ATNO][  4].a[  1] =     21840.000000000000;     BAS[ATNO][  4].d[  1] =        -0.002931272862;
  BAS[ATNO][  4].a[  2] =      4972.000000000000;     BAS[ATNO][  4].d[  2] =        -0.015219305803;
  BAS[ATNO][  4].a[  3] =      1408.000000000000;     BAS[ATNO][  4].d[  3] =        -0.061698036473;
  BAS[ATNO][  4].a[  4] =       459.700000000000;     BAS[ATNO][  4].d[  4] =        -0.198185114634;
  BAS[ATNO][  4].a[  5] =       165.900000000000;     BAS[ATNO][  4].d[  5] =        -0.473530509268;
  BAS[ATNO][  4].a[  6] =        64.690000000000;     BAS[ATNO][  4].d[  6] =        -0.674137015040;
  BAS[ATNO][  4].a[  7] =        26.440000000000;     BAS[ATNO][  4].d[  7] =        -0.386066539141;
  BAS[ATNO][  4].a[  8] =         7.628000000000;     BAS[ATNO][  4].d[  8] =        -0.032025772802;
  BAS[ATNO][  4].a[  9] =         2.996000000000;     BAS[ATNO][  4].d[  9] =         0.005765977578;
  BAS[ATNO][  4].a[ 10] =         0.650400000000;     BAS[ATNO][  4].d[ 10] =        -0.001558262628;
  BAS[ATNO][  4].a[ 11] =    145700.000000000000;     BAS[ATNO][  4].d[ 11] =         0.000101009832;
  BAS[ATNO][  4].a[ 12] =     21840.000000000000;     BAS[ATNO][  4].d[ 12] =         0.000776041548;
  BAS[ATNO][  4].a[ 13] =      4972.000000000000;     BAS[ATNO][  4].d[ 13] =         0.004113145023;
  BAS[ATNO][  4].a[ 14] =      1408.000000000000;     BAS[ATNO][  4].d[ 14] =         0.016613768383;
  BAS[ATNO][  4].a[ 15] =       459.700000000000;     BAS[ATNO][  4].d[ 15] =         0.057593758493;
  BAS[ATNO][  4].a[ 16] =       165.900000000000;     BAS[ATNO][  4].d[ 16] =         0.149304807128;
  BAS[ATNO][  4].a[ 17] =        64.690000000000;     BAS[ATNO][  4].d[ 17] =         0.303949930483;
  BAS[ATNO][  4].a[ 18] =        26.440000000000;     BAS[ATNO][  4].d[ 18] =         0.202956561554;
  BAS[ATNO][  4].a[ 19] =         7.628000000000;     BAS[ATNO][  4].d[ 19] =        -0.759089089416;
  BAS[ATNO][  4].a[ 20] =         2.996000000000;     BAS[ATNO][  4].d[ 20] =        -0.917288586687;
  BAS[ATNO][  4].a[ 21] =         0.650400000000;     BAS[ATNO][  4].d[ 21] =        -0.066296429531;
  BAS[ATNO][  4].a[ 22] =    145700.000000000000;     BAS[ATNO][  4].d[ 22] =         0.000060045415;
  BAS[ATNO][  4].a[ 23] =     21840.000000000000;     BAS[ATNO][  4].d[ 23] =         0.000463813649;
  BAS[ATNO][  4].a[ 24] =      4972.000000000000;     BAS[ATNO][  4].d[ 24] =         0.002440718580;
  BAS[ATNO][  4].a[ 25] =      1408.000000000000;     BAS[ATNO][  4].d[ 25] =         0.009978562719;
  BAS[ATNO][  4].a[ 26] =       459.700000000000;     BAS[ATNO][  4].d[ 26] =         0.034281667558;
  BAS[ATNO][  4].a[ 27] =       165.900000000000;     BAS[ATNO][  4].d[ 27] =         0.091689394951;
  BAS[ATNO][  4].a[ 28] =        64.690000000000;     BAS[ATNO][  4].d[ 28] =         0.186957428974;
  BAS[ATNO][  4].a[ 29] =        26.440000000000;     BAS[ATNO][  4].d[ 29] =         0.142475085126;
  BAS[ATNO][  4].a[ 30] =         7.628000000000;     BAS[ATNO][  4].d[ 30] =        -0.655553153662;
  BAS[ATNO][  4].a[ 31] =         2.996000000000;     BAS[ATNO][  4].d[ 31] =        -1.201170788969;
  BAS[ATNO][  4].a[ 32] =         0.650400000000;     BAS[ATNO][  4].d[ 32] =         1.832632394904;
  BAS[ATNO][  4].a[ 33] =         0.233700000000;     BAS[ATNO][  4].d[ 33] =        -0.875755291729;
  BAS[ATNO][  4].a[ 34] =         9.548000000000;     BAS[ATNO][  4].d[ 34] =         3.063176835302;

  // Basis function   6 L = p
  InitBFNGauss(BAS[ATNO][  5]);
  BAS[ATNO][  5].l  = 1;
  BAS[ATNO][  5].ng = 16;
  BAS[ATNO][  5].a[  0] =       453.700000000000;     BAS[ATNO][  5].d[  0] =         0.007721493814;
  BAS[ATNO][  5].a[  1] =       106.800000000000;     BAS[ATNO][  5].d[  1] =         0.058255457007;
  BAS[ATNO][  5].a[  2] =        33.730000000000;     BAS[ATNO][  5].d[  2] =         0.238985954752;
  BAS[ATNO][  5].a[  3] =        12.130000000000;     BAS[ATNO][  5].d[  3] =         0.550620034478;
  BAS[ATNO][  5].a[  4] =         4.594000000000;     BAS[ATNO][  5].d[  4] =         0.612448283532;
  BAS[ATNO][  5].a[  5] =         1.678000000000;     BAS[ATNO][  5].d[  5] =         0.166190316775;
  BAS[ATNO][  5].a[  6] =         0.590900000000;     BAS[ATNO][  5].d[  6] =        -0.006035799099;
  BAS[ATNO][  5].a[  7] =       453.700000000000;     BAS[ATNO][  5].d[  7] =         0.000239869533;
  BAS[ATNO][  5].a[  8] =       106.800000000000;     BAS[ATNO][  5].d[  8] =         0.001817278042;
  BAS[ATNO][  5].a[  9] =        33.730000000000;     BAS[ATNO][  5].d[  9] =         0.007775756400;
  BAS[ATNO][  5].a[ 10] =        12.130000000000;     BAS[ATNO][  5].d[ 10] =         0.018474828954;
  BAS[ATNO][  5].a[ 11] =         4.594000000000;     BAS[ATNO][  5].d[ 11] =         0.022637813194;
  BAS[ATNO][  5].a[ 12] =         1.678000000000;     BAS[ATNO][  5].d[ 12] =        -0.021265082504;
  BAS[ATNO][  5].a[ 13] =         0.590900000000;     BAS[ATNO][  5].d[ 13] =        -0.087270226356;
  BAS[ATNO][  5].a[ 14] =         0.185200000000;     BAS[ATNO][  5].d[ 14] =         0.033476197209;
  BAS[ATNO][  5].a[ 15] =         4.361000000000;     BAS[ATNO][  5].d[ 15] =        -0.429455023718;

  // Basis function   7 L = p
  InitBFNGauss(BAS[ATNO][  6]);
  BAS[ATNO][  6].l  = 1;
  BAS[ATNO][  6].ng = 16;
  BAS[ATNO][  6].a[  0] =       453.700000000000;     BAS[ATNO][  6].d[  0] =        -0.004348668881;
  BAS[ATNO][  6].a[  1] =       106.800000000000;     BAS[ATNO][  6].d[  1] =        -0.032808896718;
  BAS[ATNO][  6].a[  2] =        33.730000000000;     BAS[ATNO][  6].d[  2] =        -0.134594524004;
  BAS[ATNO][  6].a[  3] =        12.130000000000;     BAS[ATNO][  6].d[  3] =        -0.310103752853;
  BAS[ATNO][  6].a[  4] =         4.594000000000;     BAS[ATNO][  6].d[  4] =        -0.344924810685;
  BAS[ATNO][  6].a[  5] =         1.678000000000;     BAS[ATNO][  6].d[  5] =        -0.093596741296;
  BAS[ATNO][  6].a[  6] =         0.590900000000;     BAS[ATNO][  6].d[  6] =         0.003399302305;
  BAS[ATNO][  6].a[  7] =       453.700000000000;     BAS[ATNO][  6].d[  7] =        -0.001971304122;
  BAS[ATNO][  6].a[  8] =       106.800000000000;     BAS[ATNO][  6].d[  8] =        -0.014934817461;
  BAS[ATNO][  6].a[  9] =        33.730000000000;     BAS[ATNO][  6].d[  9] =        -0.063902991035;
  BAS[ATNO][  6].a[ 10] =        12.130000000000;     BAS[ATNO][  6].d[ 10] =        -0.151830480323;
  BAS[ATNO][  6].a[ 11] =         4.594000000000;     BAS[ATNO][  6].d[ 11] =        -0.186042861844;
  BAS[ATNO][  6].a[ 12] =         1.678000000000;     BAS[ATNO][  6].d[ 12] =         0.174761438858;
  BAS[ATNO][  6].a[ 13] =         0.590900000000;     BAS[ATNO][  6].d[ 13] =         0.717207202203;
  BAS[ATNO][  6].a[ 14] =         0.185200000000;     BAS[ATNO][  6].d[ 14] =        -0.224817122596;
  BAS[ATNO][  6].a[ 15] =         4.361000000000;     BAS[ATNO][  6].d[ 15] =         1.151225154242;

  // Basis function   8 L = p
  InitBFNGauss(BAS[ATNO][  7]);
  BAS[ATNO][  7].l  = 1;
  BAS[ATNO][  7].ng = 16;
  BAS[ATNO][  7].a[  0] =       453.700000000000;     BAS[ATNO][  7].d[  0] =        -0.008425603518;
  BAS[ATNO][  7].a[  1] =       106.800000000000;     BAS[ATNO][  7].d[  1] =        -0.063567671659;
  BAS[ATNO][  7].a[  2] =        33.730000000000;     BAS[ATNO][  7].d[  2] =        -0.260778671791;
  BAS[ATNO][  7].a[  3] =        12.130000000000;     BAS[ATNO][  7].d[  3] =        -0.600830125777;
  BAS[ATNO][  7].a[  4] =         4.594000000000;     BAS[ATNO][  7].d[  4] =        -0.668296386229;
  BAS[ATNO][  7].a[  5] =         1.678000000000;     BAS[ATNO][  7].d[  5] =        -0.181344925136;
  BAS[ATNO][  7].a[  6] =         0.590900000000;     BAS[ATNO][  7].d[  6] =         0.006586193209;
  BAS[ATNO][  7].a[  7] =       453.700000000000;     BAS[ATNO][  7].d[  7] =         0.001241075095;
  BAS[ATNO][  7].a[  8] =       106.800000000000;     BAS[ATNO][  7].d[  8] =         0.009402521812;
  BAS[ATNO][  7].a[  9] =        33.730000000000;     BAS[ATNO][  7].d[  9] =         0.040231443646;
  BAS[ATNO][  7].a[ 10] =        12.130000000000;     BAS[ATNO][  7].d[ 10] =         0.095588004787;
  BAS[ATNO][  7].a[ 11] =         4.594000000000;     BAS[ATNO][  7].d[ 11] =         0.117127113941;
  BAS[ATNO][  7].a[ 12] =         1.678000000000;     BAS[ATNO][  7].d[ 12] =        -0.110024661837;
  BAS[ATNO][  7].a[ 13] =         0.590900000000;     BAS[ATNO][  7].d[ 13] =        -0.451532560073;
  BAS[ATNO][  7].a[ 14] =         0.185200000000;     BAS[ATNO][  7].d[ 14] =        -0.405410571275;
  BAS[ATNO][  7].a[ 15] =         4.361000000000;     BAS[ATNO][  7].d[ 15] =         1.724713734058;

  // Basis function   9 L = p
  InitBFNGauss(BAS[ATNO][  8]);
  BAS[ATNO][  8].l  = 1;
  BAS[ATNO][  8].ng = 16;
  BAS[ATNO][  8].a[  0] =       453.700000000000;     BAS[ATNO][  8].d[  0] =        -0.007194983969;
  BAS[ATNO][  8].a[  1] =       106.800000000000;     BAS[ATNO][  8].d[  1] =        -0.054283159365;
  BAS[ATNO][  8].a[  2] =        33.730000000000;     BAS[ATNO][  8].d[  2] =        -0.222690084918;
  BAS[ATNO][  8].a[  3] =        12.130000000000;     BAS[ATNO][  8].d[  3] =        -0.513074596213;
  BAS[ATNO][  8].a[  4] =         4.594000000000;     BAS[ATNO][  8].d[  4] =        -0.570686927643;
  BAS[ATNO][  8].a[  5] =         1.678000000000;     BAS[ATNO][  8].d[  5] =        -0.154858204087;
  BAS[ATNO][  8].a[  6] =         0.590900000000;     BAS[ATNO][  8].d[  6] =         0.005624232668;
  BAS[ATNO][  8].a[  7] =       453.700000000000;     BAS[ATNO][  8].d[  7] =         0.002287042308;
  BAS[ATNO][  8].a[  8] =       106.800000000000;     BAS[ATNO][  8].d[  8] =         0.017326884781;
  BAS[ATNO][  8].a[  9] =        33.730000000000;     BAS[ATNO][  8].d[  9] =         0.074138151716;
  BAS[ATNO][  8].a[ 10] =        12.130000000000;     BAS[ATNO][  8].d[ 10] =         0.176148737375;
  BAS[ATNO][  8].a[ 11] =         4.594000000000;     BAS[ATNO][  8].d[ 11] =         0.215840818931;
  BAS[ATNO][  8].a[ 12] =         1.678000000000;     BAS[ATNO][  8].d[ 12] =        -0.202752482448;
  BAS[ATNO][  8].a[ 13] =         0.590900000000;     BAS[ATNO][  8].d[ 13] =        -0.832080243942;
  BAS[ATNO][  8].a[ 14] =         0.185200000000;     BAS[ATNO][  8].d[ 14] =         1.224064621529;
  BAS[ATNO][  8].a[ 15] =         4.361000000000;     BAS[ATNO][  8].d[ 15] =         1.258142606346;

  // Basis function  10 L = d
  InitBFNGauss(BAS[ATNO][  9]);
  BAS[ATNO][  9].l  = 2;
  BAS[ATNO][  9].ng = 2;
  BAS[ATNO][  9].a[  0] =         0.738000000000;     BAS[ATNO][  9].d[  0] =         0.894984225824;
  BAS[ATNO][  9].a[  1] =        11.459000000000;     BAS[ATNO][  9].d[  1] =         0.384092548931;

  // Basis function  11 L = d
  InitBFNGauss(BAS[ATNO][ 10]);
  BAS[ATNO][ 10].l  = 2;
  BAS[ATNO][ 10].ng = 2;
  BAS[ATNO][ 10].a[  0] =         0.738000000000;     BAS[ATNO][ 10].d[  0] =        -0.452372406505;
  BAS[ATNO][ 10].a[  1] =        11.459000000000;     BAS[ATNO][ 10].d[  1] =         0.926342524392;

-------
TIMINGS
-------

Total SCF time: 0 days 0 hours 0 min 1 sec 

Total time                  ....       1.632 sec
Sum of individual times     ....       1.453 sec  ( 89.0%)

Fock matrix formation       ....       0.976 sec  ( 59.8%)
  XC integration            ....       0.017 sec  (  1.8% of F)
    Basis function eval.    ....       0.004 sec  ( 23.6% of XC)
    Density eval.           ....       0.001 sec  (  5.2% of XC)
    XC-Functional eval.     ....       0.002 sec  (  8.7% of XC)
    XC-Potential eval.      ....       0.001 sec  (  3.2% of XC)
Diagonalization             ....       0.001 sec  (  0.0%)
Density matrix formation    ....       0.000 sec  (  0.0%)
Population analysis         ....       0.001 sec  (  0.0%)
Initial guess               ....       0.094 sec  (  5.8%)
Orbital Transformation      ....       0.000 sec  (  0.0%)
Orbital Orthonormalization  ....       0.000 sec  (  0.0%)
DIIS solution               ....       0.000 sec  (  0.0%)
SOSCF solution              ....       0.000 sec  (  0.0%)
Grid generation             ....       0.381 sec  ( 23.3%)

-------------------------   --------------------
FINAL SINGLE POINT ENERGY      -311.532494888560
-------------------------   --------------------


                            ***************************************
                            *     ORCA property calculations      *
                            ***************************************

                                    ---------------------
                                    Active property flags
                                    ---------------------
   (+) Dipole Moment


------------------------------------------------------------------------------
                       ORCA ELECTRIC PROPERTIES CALCULATION
------------------------------------------------------------------------------

Dipole Moment Calculation                       ... on
Quadrupole Moment Calculation                   ... off
Polarizability Calculation                      ... off
GBWName                                         ... Ar_cc-pcvdz_.gbw
Electron density file                           ... Ar_cc-pcvdz_.scfp
The origin for moment calculation is the CENTER OF MASS  = ( 0.000000,  0.000000  0.000000)

-------------
DIPOLE MOMENT
-------------
                                X             Y             Z
Electronic contribution:      0.00000      -0.00000       0.00000
Nuclear contribution   :      0.00000       0.00000       0.00000
                        -----------------------------------------
Total Dipole Moment    :      0.00000      -0.00000       0.00000
                        -----------------------------------------
Magnitude (a.u.)       :      0.00000
Magnitude (Debye)      :      0.00000



--------------------
Rotational spectrum 
--------------------
 
Rotational constants in cm-1:     0.000000     0.000000     0.000000 
Rotational constants in MHz :     0.000000     0.000000     0.000000 

 Dipole components along the rotational axes: 
x,y,z [a.u.] :     0.000000    -0.000000     0.000000 
x,y,z [Debye]:     0.000000    -0.000000     0.000000 

 

Timings for individual modules:

Sum of individual times         ...        2.377 sec (=   0.040 min)
GTO integral calculation        ...        0.511 sec (=   0.009 min)  21.5 %
SCF iterations                  ...        1.866 sec (=   0.031 min)  78.5 %
                             ****ORCA TERMINATED NORMALLY****
TOTAL RUN TIME: 0 days 0 hours 0 minutes 2 seconds 708 msec
