
                                 *****************
                                 * O   R   C   A *
                                 *****************

           --- An Ab Initio, DFT and Semiempirical electronic structure package ---

                  #######################################################
                  #                        -***-                        #
                  #          Department of theory and spectroscopy      #
                  #               Directorship: Frank Neese             #
                  #        Max Planck Institute fuer Kohlenforschung    #
                  #                Kaiser Wilhelm Platz 1               #
                  #                 D-45470 Muelheim/Ruhr               #
                  #                      Germany                        #
                  #                                                     #
                  #                  All rights reserved                #
                  #                        -***-                        #
                  #######################################################


                         Program Version 4.2.1 -  RELEASE  -


 With contributions from (in alphabetic order):
   Daniel Aravena         : Magnetic Suceptibility
   Michael Atanasov       : Ab Initio Ligand Field Theory (pilot matlab implementation)
   Alexander A. Auer      : GIAO ZORA, VPT2
   Ute Becker             : Parallelization
   Giovanni Bistoni       : ED, misc. LED, open-shell LED, HFLD
   Martin Brehm           : Molecular dynamics
   Dmytro Bykov           : SCF Hessian
   Vijay G. Chilkuri      : MRCI spin determinant printing, contributions to CSF-ICE
   Dipayan Datta          : RHF DLPNO-CCSD density
   Achintya Kumar Dutta   : EOM-CC, STEOM-CC
   Dmitry Ganyushin       : Spin-Orbit,Spin-Spin,Magnetic field MRCI
   Miquel Garcia          : C-PCM Hessian, Gaussian charge scheme
   Yang Guo               : DLPNO-NEVPT2, CIM, IAO-localization
   Andreas Hansen         : Spin unrestricted coupled pair/coupled cluster methods
   Benjamin Helmich-Paris : CASSCF linear response (MC-RPA)
   Lee Huntington         : MR-EOM, pCC
   Robert Izsak           : Overlap fitted RIJCOSX, COSX-SCS-MP3, EOM
   Christian Kollmar      : KDIIS, OOCD, Brueckner-CCSD(T), CCSD density
   Simone Kossmann        : Meta GGA functionals, TD-DFT gradient, OOMP2, MP2 Hessian
   Martin Krupicka        : AUTO-CI
   Lucas Lang             : DCDCAS
   Dagmar Lenk            : GEPOL surface, SMD
   Dimitrios Liakos       : Extrapolation schemes; Compound Job, initial MDCI parallelization
   Dimitrios Manganas     : Further ROCIS development; embedding schemes
   Dimitrios Pantazis     : SARC Basis sets
   Taras Petrenko         : DFT Hessian,TD-DFT gradient, ASA, ECA, R-Raman, ABS, FL, XAS/XES, NRVS
   Peter Pinski           : DLPNO-MP2, DLPNO-MP2 Gradient
   Christoph Reimann      : Effective Core Potentials
   Marius Retegan         : Local ZFS, SOC
   Christoph Riplinger    : Optimizer, TS searches, QM/MM, DLPNO-CCSD(T), (RO)-DLPNO pert. Triples
   Tobias Risthaus        : Range-separated hybrids, TD-DFT gradient, RPA, STAB
   Michael Roemelt        : Original ROCIS implementation
   Masaaki Saitow         : Open-shell DLPNO-CCSD energy and density
   Barbara Sandhoefer     : DKH picture change effects
   Avijit Sen             : IP-ROCIS
   Kantharuban Sivalingam : CASSCF convergence, NEVPT2, FIC-MRCI
   Bernardo de Souza      : ESD, SOC TD-DFT
   Georgi Stoychev        : AutoAux, RI-MP2 NMR
   Willem Van den Heuvel  : Paramagnetic NMR
   Boris Wezisla          : Elementary symmetry handling
   Frank Wennmohs         : Technical directorship


 We gratefully acknowledge several colleagues who have allowed us to
 interface, adapt or use parts of their codes:
   Stefan Grimme, W. Hujo, H. Kruse,             : VdW corrections, initial TS optimization,
                  C. Bannwarth                     DFT functionals, gCP, sTDA/sTD-DF
   Ed Valeev, F. Pavosevic, A. Kumar             : LibInt (2-el integral package), F12 methods
   Garnet Chan, S. Sharma, J. Yang, R. Olivares  : DMRG
   Ulf Ekstrom                                   : XCFun DFT Library
   Mihaly Kallay                                 : mrcc  (arbitrary order and MRCC methods)
   Andreas Klamt, Michael Diedenhofen            : otool_cosmo (COSMO solvation model)
   Jiri Pittner, Ondrej Demel                    : Mk-CCSD
   Frank Weinhold                                : gennbo (NPA and NBO analysis)
   Christopher J. Cramer and Donald G. Truhlar   : smd solvation model
   Lars Goerigk                                  : TD-DFT with DH, B97 family of functionals
   V. Asgeirsson, H. Jonsson                     : NEB implementation
   FAccTs GmbH                                   : IRC, NEB, NEB-TS, Multilevel, MM, QM/MM, CI optimization
   S Lehtola, MJT Oliveira, MAL Marques          : LibXC Library


 Your calculation uses the libint2 library for the computation of 2-el integrals
 For citations please refer to: http://libint.valeyev.net

 Your ORCA version has been built with support for libXC version: 4.2.3
 For citations please refer to: https://tddft.org/programs/libxc/

 This ORCA versions uses:
   CBLAS   interface :  Fast vector & matrix operations
   LAPACKE interface :  Fast linear algebra routines
   SCALAPACK package :  Parallel linear algebra routines


----- Orbital basis set information -----
Your calculation utilizes the basis: def2-SVP
   F. Weigend and R. Ahlrichs, Phys. Chem. Chem. Phys. 7, 3297 (2005).

================================================================================
                                        WARNINGS
                       Please study these warnings very carefully!
================================================================================


INFO   : the flag for use of LIBINT has been found!

================================================================================
                                       INPUT FILE
================================================================================
NAME = Ar_def2-svp_.inp
|  1> ! LDA def2-svp nori grid5 finalgrid6 verytightscf
|  2> %Pal NProcs 18 End
|  3> 
|  4> *xyz 16 1
|  5> Ar 0.0 0.0 0.0
|  6> **                         ****END OF INPUT****
================================================================================

                       ****************************
                       * Single Point Calculation *
                       ****************************

---------------------------------
CARTESIAN COORDINATES (ANGSTROEM)
---------------------------------
  Ar     0.000000    0.000000    0.000000

----------------------------
CARTESIAN COORDINATES (A.U.)
----------------------------
  NO LB      ZA    FRAG     MASS         X           Y           Z
   0 Ar   18.0000    0    39.948    0.000000    0.000000    0.000000

--------------------------------
INTERNAL COORDINATES (ANGSTROEM)
--------------------------------
 Ar     0   0   0     0.000000000000     0.00000000     0.00000000

---------------------------
INTERNAL COORDINATES (A.U.)
---------------------------
 Ar     0   0   0     0.000000000000     0.00000000     0.00000000

---------------------
BASIS SET INFORMATION
---------------------
There are 1 groups of distinct atoms

 Group   1 Type Ar  : 10s7p1d contracted to 4s3p1d pattern {5311/511/1}

Atom   0Ar   basis set group =>   1


           ************************************************************
           *        Program running with 18 parallel MPI-processes    *
           *              working on a common directory               *
           ************************************************************
------------------------------------------------------------------------------
                           ORCA GTO INTEGRAL CALCULATION
------------------------------------------------------------------------------

                         BASIS SET STATISTICS AND STARTUP INFO

 # of primitive gaussian shells          ...   18
 # of primitive gaussian functions       ...   36
 # of contracted shells                  ...    8
 # of contracted basis functions         ...   18
 Highest angular momentum                ...    2
 Maximum contraction depth               ...    5
 Integral package used                   ... LIBINT
 Integral threshhold            Thresh   ...  1.000e-12
 Primitive cut-off              TCut     ...  1.000e-14


------------------------------ INTEGRAL EVALUATION ----------------------------


 * One electron integrals 
 Pre-screening matrix                    ... done
 Shell pair data                         ... done (   0.000 sec)



           ************************************************************
           *        Program running with 18 parallel MPI-processes    *
           *              working on a common directory               *
           ************************************************************
-------------------------------------------------------------------------------
                                 ORCA SCF
-------------------------------------------------------------------------------

------------
SCF SETTINGS
------------
Hamiltonian:
 Density Functional     Method          .... DFT(GTOs)
 Exchange Functional    Exchange        .... Slater
   X-Alpha parameter    XAlpha          ....  0.666667
 Correlation Functional Correlation     .... VWN-5
 Gradients option       PostSCFGGA      .... off
   Density functional embedding theory  .... OFF


General Settings:
 Integral files         IntName         .... Ar_def2-svp_
 Hartree-Fock type      HFTyp           .... RHF
 Total Charge           Charge          ....   16
 Multiplicity           Mult            ....    1
 Number of Electrons    NEL             ....    2
 Basis Dimension        Dim             ....   18
 Nuclear Repulsion      ENuc            ....      0.0000000000 Eh

Convergence Acceleration:
 DIIS                   CNVDIIS         .... on
   Start iteration      DIISMaxIt       ....    12
   Startup error        DIISStart       ....  0.200000
   # of expansion vecs  DIISMaxEq       ....     5
   Bias factor          DIISBfac        ....   1.050
   Max. coefficient     DIISMaxC        ....  10.000
 Newton-Raphson         CNVNR           .... off
 SOSCF                  CNVSOSCF        .... on
   Start iteration      SOSCFMaxIt      ....   150
   Startup grad/error   SOSCFStart      ....  0.003300
 Level Shifting         CNVShift        .... on
   Level shift para.    LevelShift      ....    0.2500
   Turn off err/grad.   ShiftErr        ....    0.0010
 Zerner damping         CNVZerner       .... off
 Static damping         CNVDamp         .... on
   Fraction old density DampFac         ....    0.7000
   Max. Damping (<1)    DampMax         ....    0.9800
   Min. Damping (>=0)   DampMin         ....    0.0000
   Turn off err/grad.   DampErr         ....    0.1000
 Fernandez-Rico         CNVRico         .... off

SCF Procedure:
 Maximum # iterations   MaxIter         ....   125
 SCF integral mode      SCFMode         .... Direct
   Integral package                     .... LIBINT
 Reset frequency        DirectResetFreq ....    20
 Integral Threshold     Thresh          ....  1.000e-12 Eh
 Primitive CutOff       TCut            ....  1.000e-14 Eh

Convergence Tolerance:
 Convergence Check Mode ConvCheckMode   .... Total+1el-Energy
 Convergence forced     ConvForced      .... 0
 Energy Change          TolE            ....  1.000e-09 Eh
 1-El. energy change                    ....  1.000e-06 Eh
 Orbital Gradient       TolG            ....  2.000e-06
 Orbital Rotation angle TolX            ....  2.000e-06
 DIIS Error             TolErr          ....  1.000e-08


Diagonalization of the overlap matrix:
Smallest eigenvalue                        ... 1.138e-01
Time for diagonalization                   ...    0.001 sec
Threshold for overlap eigenvalues          ... 1.000e-08
Number of eigenvalues below threshold      ... 0
Time for construction of square roots      ...    0.001 sec
Total time needed                          ...    0.002 sec

-------------------
DFT GRID GENERATION
-------------------

General Integration Accuracy     IntAcc      ...  5.010
Radial Grid Type                 RadialGrid  ... Gauss-Chebyshev
Angular Grid (max. acc.)         AngularGrid ... Lebedev-434
Angular grid pruning method      GridPruning ... 3 (G Style)
Weight generation scheme         WeightScheme... Becke
Basis function cutoff            BFCut       ...    1.0000e-12
Integration weight cutoff        WCut        ...    1.0000e-14
Grids for H and He will be reduced by one unit

# of grid points (after initial pruning)     ...  11992 (   0.0 sec)
# of grid points (after weights+screening)   ...  11992 (   0.0 sec)
Grid point division into batches done        ...    0.1 sec
Reduced shell lists constructed in    0.1 sec

Total number of grid points                  ...    11992
Total number of batches                      ...      188
Average number of points per batch           ...       63
Average number of grid points per atom       ...    11992
Average number of shells per batch           ...     0.00 ( 0.00%)
Average number of basis functions per batch  ...     0.00 ( 0.00%)
Average number of large shells per batch     ...     0.00 ( -nan%)
Average number of large basis fcns per batch ...     0.00 ( -nan%)
Maximum spatial batch extension              ...  18.71, 18.71, 18.71 au
Average spatial batch extension              ...   0.97,  0.98,  0.97 au

Time for grid setup =    0.153 sec

------------------------------
INITIAL GUESS: MODEL POTENTIAL
------------------------------
Loading Hartree-Fock densities                     ... done
Calculating cut-offs                               ... done
Setting up the integral package                    ... done
Initializing the effective Hamiltonian             ... done
Starting the Coulomb interaction                   ... done (   0.0 sec)
Reading the grid                                   ... done
Mapping shells                                     ... done
Starting the XC term evaluation                    ... done (   0.0 sec)
  promolecular density results
     # of electrons  =     17.999998971
     EX              =    -27.869847309
     EC              =     -1.431662733
     EX+EC           =    -29.301510042
Transforming the Hamiltonian                       ... done (   0.0 sec)
Diagonalizing the Hamiltonian                      ... done (   0.0 sec)
Back transforming the eigenvectors                 ... done (   0.0 sec)
Now organizing SCF variables                       ... done
                      ------------------
                      INITIAL GUESS DONE (   0.2 sec)
                      ------------------
--------------
SCF ITERATIONS
--------------
ITER       Energy         Delta-E        Max-DP      RMS-DP      [F,P]     Damp
               ***  Starting incremental Fock matrix formation  ***
  0   -311.4045920006   0.000000000000 0.00653726  0.00045018  1.8072523 0.7000
                      *** Initiating the SOSCF procedure ***
                      *** Re-Reading the Fockian *** 
                      *** Removing any level shift *** 
ITER      Energy       Delta-E        Grad      Rot      Max-DP    RMS-DP
  1   -311.40994794  -0.0053559441  0.000324  0.000324  0.015260  0.001051
               *** Restarting incremental Fock matrix formation ***
  2   -311.42236612  -0.0124181779  0.004195  0.000037  0.000095  0.000007
  3   -311.42236646  -0.0000003339  0.000025  0.000000  0.000001  0.000000
                 **** Energy Check signals convergence ****
              ***Rediagonalizing the Fockian in SOSCF/NRSCF***

               *****************************************************
               *                     SUCCESS                       *
               *           SCF CONVERGED AFTER   4 CYCLES          *
               *****************************************************

Setting up the final grid:

General Integration Accuracy     IntAcc      ...  5.340
Radial Grid Type                 RadialGrid  ... Gauss-Chebyshev
Angular Grid (max. acc.)         AngularGrid ... Lebedev-590
Angular grid pruning method      GridPruning ... 3 (G Style)
Weight generation scheme         WeightScheme... Becke
Basis function cutoff            BFCut       ...    1.0000e-12
Integration weight cutoff        WCut        ...    1.0000e-14
Grids for H and He will be reduced by one unit

# of grid points (after initial pruning)     ...  18110 (   0.0 sec)
# of grid points (after weights+screening)   ...  18110 (   0.0 sec)
Grid point division into batches done        ...    0.2 sec
Reduced shell lists constructed in    0.2 sec

Total number of grid points                  ...    18110
Total number of batches                      ...      283
Average number of points per batch           ...       63
Average number of grid points per atom       ...    18110
Average number of shells per batch           ...     0.00 ( 0.00%)
Average number of basis functions per batch  ...     0.00 ( 0.00%)
Average number of large shells per batch     ...     0.00 ( -nan%)
Average number of large basis fcns per batch ...     0.00 ( -nan%)
Maximum spatial batch extension              ...  19.03, 19.03, 19.03 au
Average spatial batch extension              ...   0.84,  0.84,  0.80 au

Final grid set up in    0.2 sec
Final integration                            ... done (   0.0 sec)
Change in XC energy                          ...    -0.000005127
Integrated number of electrons               ...     1.999999723
Previous integrated no of electrons          ...     1.999999855

----------------
TOTAL SCF ENERGY
----------------

Total Energy       :         -311.42237158 Eh           -8474.23355 eV

Components:
Nuclear Repulsion  :            0.00000000 Eh               0.00000 eV
Electronic Energy  :         -311.42237158 Eh           -8474.23355 eV
One Electron Energy:         -323.70543999 Eh           -8808.47284 eV
Two Electron Energy:           12.28306840 Eh             334.23928 eV

Virial components:
Potential Energy   :         -620.93058221 Eh          -16896.38014 eV
Kinetic Energy     :          309.50821063 Eh            8422.14658 eV
Virial Ratio       :            2.00618452


DFT components:
N(Alpha)           :        0.999999861329 electrons
N(Beta)            :        0.999999861329 electrons
N(Total)           :        1.999999722658 electrons
E(X)               :       -9.408217747492 Eh       
E(C)               :       -0.236757664721 Eh       
E(XC)              :       -9.644975412213 Eh       
DFET-embed. en.    :        0.000000000000 Eh       

---------------
SCF CONVERGENCE
---------------

  Last Energy change         ...   -1.1880e-11  Tolerance :   1.0000e-09
  Last MAX-Density change    ...    0.0000e+00  Tolerance :   1.0000e-08
  Last RMS-Density change    ...    0.0000e+00  Tolerance :   1.0000e-09
  Last Orbital Gradient      ...    3.3960e-11  Tolerance :   2.0000e-06
  Last Orbital Rotation      ...    0.0000e+00  Tolerance :   2.0000e-06

================================================================================
                                        WARNING
Number of found core electrons (2) does not match given number of chemical core electrons (10)
================================================================================
             **** THE GBW FILE WAS UPDATED (Ar_def2-svp_.gbw) ****
             **** DENSITY FILE WAS UPDATED (Ar_def2-svp_.scfp) ****
             **** ENERGY FILE WAS UPDATED (Ar_def2-svp_.en.tmp) ****
             **** THE GBW FILE WAS UPDATED (Ar_def2-svp_.gbw) ****
             **** DENSITY FILE WAS UPDATED (Ar_def2-svp_.scfp) ****
----------------
ORBITAL ENERGIES
----------------

  NO   OCC          E(Eh)            E(eV) 
   0   2.0000    -146.324746     -3981.6988 
   1   0.0000     -33.591287      -914.0654 
   2   0.0000     -32.543397      -885.5509 
   3   0.0000     -32.543397      -885.5509 
   4   0.0000     -32.543397      -885.5509 
   5   0.0000     -12.977214      -353.1279 
   6   0.0000     -12.553890      -341.6087 
   7   0.0000     -12.553890      -341.6087 
   8   0.0000     -12.553890      -341.6087 
   9   0.0000      -8.932790      -243.0736 
  10   0.0000      -8.932790      -243.0736 
  11   0.0000      -8.932790      -243.0736 
  12   0.0000      -8.932790      -243.0736 
  13   0.0000      -8.932790      -243.0736 
  14   0.0000      -6.236413      -169.7014 
  15   0.0000      -6.182890      -168.2450 
  16   0.0000      -6.182890      -168.2450 
  17   0.0000      -6.182890      -168.2450 

                    ********************************
                    * MULLIKEN POPULATION ANALYSIS *
                    ********************************

-----------------------
MULLIKEN ATOMIC CHARGES
-----------------------
   0 Ar:   16.000000
Sum of atomic charges:   16.0000000

--------------------------------
MULLIKEN REDUCED ORBITAL CHARGES
--------------------------------
  0 Ars       :     2.000000  s :     2.000000
      pz      :     0.000000  p :     0.000000
      px      :     0.000000
      py      :     0.000000
      dz2     :     0.000000  d :     0.000000
      dxz     :     0.000000
      dyz     :     0.000000
      dx2y2   :     0.000000
      dxy     :     0.000000


                     *******************************
                     * LOEWDIN POPULATION ANALYSIS *
                     *******************************

----------------------
LOEWDIN ATOMIC CHARGES
----------------------
   0 Ar:   16.000000

-------------------------------
LOEWDIN REDUCED ORBITAL CHARGES
-------------------------------
  0 Ars       :     2.000000  s :     2.000000
      pz      :     0.000000  p :     0.000000
      px      :     0.000000
      py      :     0.000000
      dz2     :     0.000000  d :     0.000000
      dxz     :     0.000000
      dyz     :     0.000000
      dx2y2   :     0.000000
      dxy     :     0.000000


                      *****************************
                      * MAYER POPULATION ANALYSIS *
                      *****************************

  NA   - Mulliken gross atomic population
  ZA   - Total nuclear charge
  QA   - Mulliken gross atomic charge
  VA   - Mayer's total valence
  BVA  - Mayer's bonded valence
  FA   - Mayer's free valence

  ATOM       NA         ZA         QA         VA         BVA        FA
  0 Ar     2.0000    18.0000    16.0000    -0.0000     0.0000    -0.0000

  Mayer bond orders larger than 0.100000


--------------------------
ATOM BASIS FOR ELEMENT Ar
--------------------------
 NewGTO Ar
 S 10
    1      11797.119764999999         0.005365916340
    2       1774.352275300000         0.040188608849
    3        403.188757330000         0.181900087641
    4        113.249339990000         0.471515428968
    5         34.835298193000         0.437898041727
    6         58.614775042000        -0.001252697588
    7          6.492204507800         0.007646137737
    8          2.711701440300         0.006647482387
    9          0.544129745400        -0.004715286605
   10          0.205174111400         0.002251223446
 S 10
    1      11797.119764999999         0.001730501592
    2       1774.352275300000         0.012960778214
    3        403.188757330000         0.058662560377
    4        113.249339990000         0.152063161042
    5         34.835298193000         0.141221593925
    6         58.614775042000         0.104054725645
    7          6.492204507800        -0.635122771865
    8          2.711701440300        -0.552169943154
    9          0.544129745400         0.174425165675
   10          0.205174111400        -0.080189938930
 S 10
    1      11797.119764999999        -0.000423978262
    2       1774.352275300000        -0.003175430897
    3        403.188757330000        -0.014372509401
    4        113.249339990000        -0.037255946511
    5         34.835298193000        -0.034599728912
    6         58.614775042000        -0.061656525732
    7          6.492204507800         0.376335272461
    8          2.711701440300         0.327182452286
    9          0.544129745400        -1.621508664978
   10          0.205174111400         0.493979794808
 S 10
    1      11797.119764999999         0.000125879887
    2       1774.352275300000         0.000942790981
    3        403.188757330000         0.004267223150
    4        113.249339990000         0.011061355605
    5         34.835298193000         0.010272719960
    6         58.614775042000         0.023689874275
    7          6.492204507800        -0.144596783291
    8          2.711701440300        -0.125711124127
    9          0.544129745400         1.544063819400
   10          0.205174111400        -1.914783417130
 P 7
    1        356.287072560000         0.009009071690
    2         83.593132866000         0.065699591213
    3         26.186704029000         0.250828263659
    4          9.225727592500         0.505084442839
    5          3.392275495400         0.404731297590
    6          0.947405340100        -0.133590131981
    7          0.256591350600         0.044497643393
 P 7
    1        356.287072560000         0.002940277341
    2         83.593132866000         0.021442277962
    3         26.186704029000         0.081862447707
    4          9.225727592500         0.164843659108
    5          3.392275495400         0.132091552208
    6          0.947405340100        -1.183731406579
    7          0.256591350600         0.172180403591
 P 7
    1        356.287072560000         0.000974036371
    2         83.593132866000         0.007103261426
    3         26.186704029000         0.027118870863
    4          9.225727592500         0.054608358645
    5          3.392275495400         0.043758449042
    6          0.947405340100        -0.693566523077
    7          0.256591350600         1.265874048230
 D 1
    1          0.696000000000         1.000000000000
 end
  // -----------------------------------------------
  // The basis set
  // -----------------------------------------------
  BAS[ATNO] = new BFNGauss[NSH];
  // Basis function   1 L = s
  InitBFNGauss(BAS[ATNO][  0]);
  BAS[ATNO][  0].l  = 0;
  BAS[ATNO][  0].ng = 10;
  BAS[ATNO][  0].a[  0] =     11797.119764999999;     BAS[ATNO][  0].d[  0] =         0.005365916340;
  BAS[ATNO][  0].a[  1] =      1774.352275300000;     BAS[ATNO][  0].d[  1] =         0.040188608849;
  BAS[ATNO][  0].a[  2] =       403.188757330000;     BAS[ATNO][  0].d[  2] =         0.181900087641;
  BAS[ATNO][  0].a[  3] =       113.249339990000;     BAS[ATNO][  0].d[  3] =         0.471515428968;
  BAS[ATNO][  0].a[  4] =        34.835298193000;     BAS[ATNO][  0].d[  4] =         0.437898041727;
  BAS[ATNO][  0].a[  5] =        58.614775042000;     BAS[ATNO][  0].d[  5] =        -0.001252697588;
  BAS[ATNO][  0].a[  6] =         6.492204507800;     BAS[ATNO][  0].d[  6] =         0.007646137737;
  BAS[ATNO][  0].a[  7] =         2.711701440300;     BAS[ATNO][  0].d[  7] =         0.006647482387;
  BAS[ATNO][  0].a[  8] =         0.544129745400;     BAS[ATNO][  0].d[  8] =        -0.004715286605;
  BAS[ATNO][  0].a[  9] =         0.205174111400;     BAS[ATNO][  0].d[  9] =         0.002251223446;

  // Basis function   2 L = s
  InitBFNGauss(BAS[ATNO][  1]);
  BAS[ATNO][  1].l  = 0;
  BAS[ATNO][  1].ng = 10;
  BAS[ATNO][  1].a[  0] =     11797.119764999999;     BAS[ATNO][  1].d[  0] =        -0.001730501592;
  BAS[ATNO][  1].a[  1] =      1774.352275300000;     BAS[ATNO][  1].d[  1] =        -0.012960778214;
  BAS[ATNO][  1].a[  2] =       403.188757330000;     BAS[ATNO][  1].d[  2] =        -0.058662560377;
  BAS[ATNO][  1].a[  3] =       113.249339990000;     BAS[ATNO][  1].d[  3] =        -0.152063161042;
  BAS[ATNO][  1].a[  4] =        34.835298193000;     BAS[ATNO][  1].d[  4] =        -0.141221593925;
  BAS[ATNO][  1].a[  5] =        58.614775042000;     BAS[ATNO][  1].d[  5] =        -0.104054725645;
  BAS[ATNO][  1].a[  6] =         6.492204507800;     BAS[ATNO][  1].d[  6] =         0.635122771865;
  BAS[ATNO][  1].a[  7] =         2.711701440300;     BAS[ATNO][  1].d[  7] =         0.552169943154;
  BAS[ATNO][  1].a[  8] =         0.544129745400;     BAS[ATNO][  1].d[  8] =        -0.174425165675;
  BAS[ATNO][  1].a[  9] =         0.205174111400;     BAS[ATNO][  1].d[  9] =         0.080189938930;

  // Basis function   3 L = s
  InitBFNGauss(BAS[ATNO][  2]);
  BAS[ATNO][  2].l  = 0;
  BAS[ATNO][  2].ng = 10;
  BAS[ATNO][  2].a[  0] =     11797.119764999999;     BAS[ATNO][  2].d[  0] =         0.000423978262;
  BAS[ATNO][  2].a[  1] =      1774.352275300000;     BAS[ATNO][  2].d[  1] =         0.003175430897;
  BAS[ATNO][  2].a[  2] =       403.188757330000;     BAS[ATNO][  2].d[  2] =         0.014372509401;
  BAS[ATNO][  2].a[  3] =       113.249339990000;     BAS[ATNO][  2].d[  3] =         0.037255946511;
  BAS[ATNO][  2].a[  4] =        34.835298193000;     BAS[ATNO][  2].d[  4] =         0.034599728912;
  BAS[ATNO][  2].a[  5] =        58.614775042000;     BAS[ATNO][  2].d[  5] =         0.061656525732;
  BAS[ATNO][  2].a[  6] =         6.492204507800;     BAS[ATNO][  2].d[  6] =        -0.376335272461;
  BAS[ATNO][  2].a[  7] =         2.711701440300;     BAS[ATNO][  2].d[  7] =        -0.327182452286;
  BAS[ATNO][  2].a[  8] =         0.544129745400;     BAS[ATNO][  2].d[  8] =         1.621508664978;
  BAS[ATNO][  2].a[  9] =         0.205174111400;     BAS[ATNO][  2].d[  9] =        -0.493979794808;

  // Basis function   4 L = s
  InitBFNGauss(BAS[ATNO][  3]);
  BAS[ATNO][  3].l  = 0;
  BAS[ATNO][  3].ng = 10;
  BAS[ATNO][  3].a[  0] =     11797.119764999999;     BAS[ATNO][  3].d[  0] =        -0.000125879887;
  BAS[ATNO][  3].a[  1] =      1774.352275300000;     BAS[ATNO][  3].d[  1] =        -0.000942790981;
  BAS[ATNO][  3].a[  2] =       403.188757330000;     BAS[ATNO][  3].d[  2] =        -0.004267223150;
  BAS[ATNO][  3].a[  3] =       113.249339990000;     BAS[ATNO][  3].d[  3] =        -0.011061355605;
  BAS[ATNO][  3].a[  4] =        34.835298193000;     BAS[ATNO][  3].d[  4] =        -0.010272719960;
  BAS[ATNO][  3].a[  5] =        58.614775042000;     BAS[ATNO][  3].d[  5] =        -0.023689874275;
  BAS[ATNO][  3].a[  6] =         6.492204507800;     BAS[ATNO][  3].d[  6] =         0.144596783291;
  BAS[ATNO][  3].a[  7] =         2.711701440300;     BAS[ATNO][  3].d[  7] =         0.125711124127;
  BAS[ATNO][  3].a[  8] =         0.544129745400;     BAS[ATNO][  3].d[  8] =        -1.544063819400;
  BAS[ATNO][  3].a[  9] =         0.205174111400;     BAS[ATNO][  3].d[  9] =         1.914783417130;

  // Basis function   5 L = p
  InitBFNGauss(BAS[ATNO][  4]);
  BAS[ATNO][  4].l  = 1;
  BAS[ATNO][  4].ng = 7;
  BAS[ATNO][  4].a[  0] =       356.287072560000;     BAS[ATNO][  4].d[  0] =         0.009009071690;
  BAS[ATNO][  4].a[  1] =        83.593132866000;     BAS[ATNO][  4].d[  1] =         0.065699591213;
  BAS[ATNO][  4].a[  2] =        26.186704029000;     BAS[ATNO][  4].d[  2] =         0.250828263659;
  BAS[ATNO][  4].a[  3] =         9.225727592500;     BAS[ATNO][  4].d[  3] =         0.505084442839;
  BAS[ATNO][  4].a[  4] =         3.392275495400;     BAS[ATNO][  4].d[  4] =         0.404731297590;
  BAS[ATNO][  4].a[  5] =         0.947405340100;     BAS[ATNO][  4].d[  5] =        -0.133590131981;
  BAS[ATNO][  4].a[  6] =         0.256591350600;     BAS[ATNO][  4].d[  6] =         0.044497643393;

  // Basis function   6 L = p
  InitBFNGauss(BAS[ATNO][  5]);
  BAS[ATNO][  5].l  = 1;
  BAS[ATNO][  5].ng = 7;
  BAS[ATNO][  5].a[  0] =       356.287072560000;     BAS[ATNO][  5].d[  0] =        -0.002940277341;
  BAS[ATNO][  5].a[  1] =        83.593132866000;     BAS[ATNO][  5].d[  1] =        -0.021442277962;
  BAS[ATNO][  5].a[  2] =        26.186704029000;     BAS[ATNO][  5].d[  2] =        -0.081862447707;
  BAS[ATNO][  5].a[  3] =         9.225727592500;     BAS[ATNO][  5].d[  3] =        -0.164843659108;
  BAS[ATNO][  5].a[  4] =         3.392275495400;     BAS[ATNO][  5].d[  4] =        -0.132091552208;
  BAS[ATNO][  5].a[  5] =         0.947405340100;     BAS[ATNO][  5].d[  5] =         1.183731406579;
  BAS[ATNO][  5].a[  6] =         0.256591350600;     BAS[ATNO][  5].d[  6] =        -0.172180403591;

  // Basis function   7 L = p
  InitBFNGauss(BAS[ATNO][  6]);
  BAS[ATNO][  6].l  = 1;
  BAS[ATNO][  6].ng = 7;
  BAS[ATNO][  6].a[  0] =       356.287072560000;     BAS[ATNO][  6].d[  0] =         0.000974036371;
  BAS[ATNO][  6].a[  1] =        83.593132866000;     BAS[ATNO][  6].d[  1] =         0.007103261426;
  BAS[ATNO][  6].a[  2] =        26.186704029000;     BAS[ATNO][  6].d[  2] =         0.027118870863;
  BAS[ATNO][  6].a[  3] =         9.225727592500;     BAS[ATNO][  6].d[  3] =         0.054608358645;
  BAS[ATNO][  6].a[  4] =         3.392275495400;     BAS[ATNO][  6].d[  4] =         0.043758449042;
  BAS[ATNO][  6].a[  5] =         0.947405340100;     BAS[ATNO][  6].d[  5] =        -0.693566523077;
  BAS[ATNO][  6].a[  6] =         0.256591350600;     BAS[ATNO][  6].d[  6] =         1.265874048230;

  // Basis function   8 L = d
  InitBFNGauss(BAS[ATNO][  7]);
  BAS[ATNO][  7].l  = 2;
  BAS[ATNO][  7].ng = 1;
  BAS[ATNO][  7].a[  0] =         0.696000000000;     BAS[ATNO][  7].d[  0] =         1.000000000000;

-------
TIMINGS
-------

Total SCF time: 0 days 0 hours 0 min 1 sec 

Total time                  ....       1.167 sec
Sum of individual times     ....       1.005 sec  ( 86.1%)

Fock matrix formation       ....       0.559 sec  ( 47.9%)
  XC integration            ....       0.010 sec  (  1.8% of F)
    Basis function eval.    ....       0.001 sec  ( 11.2% of XC)
    Density eval.           ....       0.001 sec  (  5.1% of XC)
    XC-Functional eval.     ....       0.001 sec  ( 12.5% of XC)
    XC-Potential eval.      ....       0.000 sec  (  2.1% of XC)
Diagonalization             ....       0.000 sec  (  0.0%)
Density matrix formation    ....       0.000 sec  (  0.0%)
Population analysis         ....       0.000 sec  (  0.0%)
Initial guess               ....       0.069 sec  (  5.9%)
Orbital Transformation      ....       0.000 sec  (  0.0%)
Orbital Orthonormalization  ....       0.000 sec  (  0.0%)
DIIS solution               ....       0.000 sec  (  0.0%)
SOSCF solution              ....       0.000 sec  (  0.0%)
Grid generation             ....       0.375 sec  ( 32.1%)

-------------------------   --------------------
FINAL SINGLE POINT ENERGY      -311.422371583816
-------------------------   --------------------


                            ***************************************
                            *     ORCA property calculations      *
                            ***************************************

                                    ---------------------
                                    Active property flags
                                    ---------------------
   (+) Dipole Moment


------------------------------------------------------------------------------
                       ORCA ELECTRIC PROPERTIES CALCULATION
------------------------------------------------------------------------------

Dipole Moment Calculation                       ... on
Quadrupole Moment Calculation                   ... off
Polarizability Calculation                      ... off
GBWName                                         ... Ar_def2-svp_.gbw
Electron density file                           ... Ar_def2-svp_.scfp
The origin for moment calculation is the CENTER OF MASS  = ( 0.000000,  0.000000  0.000000)

-------------
DIPOLE MOMENT
-------------
                                X             Y             Z
Electronic contribution:      0.00000       0.00000       0.00000
Nuclear contribution   :      0.00000       0.00000       0.00000
                        -----------------------------------------
Total Dipole Moment    :      0.00000       0.00000       0.00000
                        -----------------------------------------
Magnitude (a.u.)       :      0.00000
Magnitude (Debye)      :      0.00000



--------------------
Rotational spectrum 
--------------------
 
Rotational constants in cm-1:     0.000000     0.000000     0.000000 
Rotational constants in MHz :     0.000000     0.000000     0.000000 

 Dipole components along the rotational axes: 
x,y,z [a.u.] :     0.000000     0.000000     0.000000 
x,y,z [Debye]:     0.000000     0.000000     0.000000 

 

Timings for individual modules:

Sum of individual times         ...        1.878 sec (=   0.031 min)
GTO integral calculation        ...        0.472 sec (=   0.008 min)  25.1 %
SCF iterations                  ...        1.406 sec (=   0.023 min)  74.9 %
                             ****ORCA TERMINATED NORMALLY****
TOTAL RUN TIME: 0 days 0 hours 0 minutes 2 seconds 188 msec
