
                                 *****************
                                 * O   R   C   A *
                                 *****************

           --- An Ab Initio, DFT and Semiempirical electronic structure package ---

                  #######################################################
                  #                        -***-                        #
                  #          Department of theory and spectroscopy      #
                  #               Directorship: Frank Neese             #
                  #        Max Planck Institute fuer Kohlenforschung    #
                  #                Kaiser Wilhelm Platz 1               #
                  #                 D-45470 Muelheim/Ruhr               #
                  #                      Germany                        #
                  #                                                     #
                  #                  All rights reserved                #
                  #                        -***-                        #
                  #######################################################


                         Program Version 4.2.1 -  RELEASE  -


 With contributions from (in alphabetic order):
   Daniel Aravena         : Magnetic Suceptibility
   Michael Atanasov       : Ab Initio Ligand Field Theory (pilot matlab implementation)
   Alexander A. Auer      : GIAO ZORA, VPT2
   Ute Becker             : Parallelization
   Giovanni Bistoni       : ED, misc. LED, open-shell LED, HFLD
   Martin Brehm           : Molecular dynamics
   Dmytro Bykov           : SCF Hessian
   Vijay G. Chilkuri      : MRCI spin determinant printing, contributions to CSF-ICE
   Dipayan Datta          : RHF DLPNO-CCSD density
   Achintya Kumar Dutta   : EOM-CC, STEOM-CC
   Dmitry Ganyushin       : Spin-Orbit,Spin-Spin,Magnetic field MRCI
   Miquel Garcia          : C-PCM Hessian, Gaussian charge scheme
   Yang Guo               : DLPNO-NEVPT2, CIM, IAO-localization
   Andreas Hansen         : Spin unrestricted coupled pair/coupled cluster methods
   Benjamin Helmich-Paris : CASSCF linear response (MC-RPA)
   Lee Huntington         : MR-EOM, pCC
   Robert Izsak           : Overlap fitted RIJCOSX, COSX-SCS-MP3, EOM
   Christian Kollmar      : KDIIS, OOCD, Brueckner-CCSD(T), CCSD density
   Simone Kossmann        : Meta GGA functionals, TD-DFT gradient, OOMP2, MP2 Hessian
   Martin Krupicka        : AUTO-CI
   Lucas Lang             : DCDCAS
   Dagmar Lenk            : GEPOL surface, SMD
   Dimitrios Liakos       : Extrapolation schemes; Compound Job, initial MDCI parallelization
   Dimitrios Manganas     : Further ROCIS development; embedding schemes
   Dimitrios Pantazis     : SARC Basis sets
   Taras Petrenko         : DFT Hessian,TD-DFT gradient, ASA, ECA, R-Raman, ABS, FL, XAS/XES, NRVS
   Peter Pinski           : DLPNO-MP2, DLPNO-MP2 Gradient
   Christoph Reimann      : Effective Core Potentials
   Marius Retegan         : Local ZFS, SOC
   Christoph Riplinger    : Optimizer, TS searches, QM/MM, DLPNO-CCSD(T), (RO)-DLPNO pert. Triples
   Tobias Risthaus        : Range-separated hybrids, TD-DFT gradient, RPA, STAB
   Michael Roemelt        : Original ROCIS implementation
   Masaaki Saitow         : Open-shell DLPNO-CCSD energy and density
   Barbara Sandhoefer     : DKH picture change effects
   Avijit Sen             : IP-ROCIS
   Kantharuban Sivalingam : CASSCF convergence, NEVPT2, FIC-MRCI
   Bernardo de Souza      : ESD, SOC TD-DFT
   Georgi Stoychev        : AutoAux, RI-MP2 NMR
   Willem Van den Heuvel  : Paramagnetic NMR
   Boris Wezisla          : Elementary symmetry handling
   Frank Wennmohs         : Technical directorship


 We gratefully acknowledge several colleagues who have allowed us to
 interface, adapt or use parts of their codes:
   Stefan Grimme, W. Hujo, H. Kruse,             : VdW corrections, initial TS optimization,
                  C. Bannwarth                     DFT functionals, gCP, sTDA/sTD-DF
   Ed Valeev, F. Pavosevic, A. Kumar             : LibInt (2-el integral package), F12 methods
   Garnet Chan, S. Sharma, J. Yang, R. Olivares  : DMRG
   Ulf Ekstrom                                   : XCFun DFT Library
   Mihaly Kallay                                 : mrcc  (arbitrary order and MRCC methods)
   Andreas Klamt, Michael Diedenhofen            : otool_cosmo (COSMO solvation model)
   Jiri Pittner, Ondrej Demel                    : Mk-CCSD
   Frank Weinhold                                : gennbo (NPA and NBO analysis)
   Christopher J. Cramer and Donald G. Truhlar   : smd solvation model
   Lars Goerigk                                  : TD-DFT with DH, B97 family of functionals
   V. Asgeirsson, H. Jonsson                     : NEB implementation
   FAccTs GmbH                                   : IRC, NEB, NEB-TS, Multilevel, MM, QM/MM, CI optimization
   S Lehtola, MJT Oliveira, MAL Marques          : LibXC Library


 Your calculation uses the libint2 library for the computation of 2-el integrals
 For citations please refer to: http://libint.valeyev.net

 Your ORCA version has been built with support for libXC version: 4.2.3
 For citations please refer to: https://tddft.org/programs/libxc/

 This ORCA versions uses:
   CBLAS   interface :  Fast vector & matrix operations
   LAPACKE interface :  Fast linear algebra routines
   SCALAPACK package :  Parallel linear algebra routines


----- Orbital basis set information -----
Your calculation utilizes the basis: def2-QZVPP
   F. Weigend and R. Ahlrichs, Phys. Chem. Chem. Phys. 7, 3297 (2005).

================================================================================
                                        WARNINGS
                       Please study these warnings very carefully!
================================================================================


INFO   : the flag for use of LIBINT has been found!

================================================================================
                                       INPUT FILE
================================================================================
NAME = Ar_def2-qzvpp_.inp
|  1> ! LDA def2-qzvpp nori grid5 finalgrid6 verytightscf
|  2> %Pal NProcs 18 End
|  3> 
|  4> *xyz 16 1
|  5> Ar 0.0 0.0 0.0
|  6> **                         ****END OF INPUT****
================================================================================

                       ****************************
                       * Single Point Calculation *
                       ****************************

---------------------------------
CARTESIAN COORDINATES (ANGSTROEM)
---------------------------------
  Ar     0.000000    0.000000    0.000000

----------------------------
CARTESIAN COORDINATES (A.U.)
----------------------------
  NO LB      ZA    FRAG     MASS         X           Y           Z
   0 Ar   18.0000    0    39.948    0.000000    0.000000    0.000000

--------------------------------
INTERNAL COORDINATES (ANGSTROEM)
--------------------------------
 Ar     0   0   0     0.000000000000     0.00000000     0.00000000

---------------------------
INTERNAL COORDINATES (A.U.)
---------------------------
 Ar     0   0   0     0.000000000000     0.00000000     0.00000000

---------------------
BASIS SET INFORMATION
---------------------
There are 1 groups of distinct atoms

 Group   1 Type Ar  : 20s14p4d2f1g contracted to 9s6p4d2f1g pattern {1031111111/821111/1111/11/1}

Atom   0Ar   basis set group =>   1


           ************************************************************
           *        Program running with 18 parallel MPI-processes    *
           *              working on a common directory               *
           ************************************************************
------------------------------------------------------------------------------
                           ORCA GTO INTEGRAL CALCULATION
------------------------------------------------------------------------------

                         BASIS SET STATISTICS AND STARTUP INFO

 # of primitive gaussian shells          ...   41
 # of primitive gaussian functions       ...  105
 # of contracted shells                  ...   22
 # of contracted basis functions         ...   70
 Highest angular momentum                ...    4
 Maximum contraction depth               ...   10
 Integral package used                   ... LIBINT
 Integral threshhold            Thresh   ...  1.000e-12
 Primitive cut-off              TCut     ...  1.000e-14


------------------------------ INTEGRAL EVALUATION ----------------------------


 * One electron integrals 
 Pre-screening matrix                    ... done
 Shell pair data                         ... done (   0.000 sec)



           ************************************************************
           *        Program running with 18 parallel MPI-processes    *
           *              working on a common directory               *
           ************************************************************
-------------------------------------------------------------------------------
                                 ORCA SCF
-------------------------------------------------------------------------------

------------
SCF SETTINGS
------------
Hamiltonian:
 Density Functional     Method          .... DFT(GTOs)
 Exchange Functional    Exchange        .... Slater
   X-Alpha parameter    XAlpha          ....  0.666667
 Correlation Functional Correlation     .... VWN-5
 Gradients option       PostSCFGGA      .... off
   Density functional embedding theory  .... OFF


General Settings:
 Integral files         IntName         .... Ar_def2-qzvpp_
 Hartree-Fock type      HFTyp           .... RHF
 Total Charge           Charge          ....   16
 Multiplicity           Mult            ....    1
 Number of Electrons    NEL             ....    2
 Basis Dimension        Dim             ....   70
 Nuclear Repulsion      ENuc            ....      0.0000000000 Eh

Convergence Acceleration:
 DIIS                   CNVDIIS         .... on
   Start iteration      DIISMaxIt       ....    12
   Startup error        DIISStart       ....  0.200000
   # of expansion vecs  DIISMaxEq       ....     5
   Bias factor          DIISBfac        ....   1.050
   Max. coefficient     DIISMaxC        ....  10.000
 Newton-Raphson         CNVNR           .... off
 SOSCF                  CNVSOSCF        .... on
   Start iteration      SOSCFMaxIt      ....   150
   Startup grad/error   SOSCFStart      ....  0.003300
 Level Shifting         CNVShift        .... on
   Level shift para.    LevelShift      ....    0.2500
   Turn off err/grad.   ShiftErr        ....    0.0010
 Zerner damping         CNVZerner       .... off
 Static damping         CNVDamp         .... on
   Fraction old density DampFac         ....    0.7000
   Max. Damping (<1)    DampMax         ....    0.9800
   Min. Damping (>=0)   DampMin         ....    0.0000
   Turn off err/grad.   DampErr         ....    0.1000
 Fernandez-Rico         CNVRico         .... off

SCF Procedure:
 Maximum # iterations   MaxIter         ....   125
 SCF integral mode      SCFMode         .... Direct
   Integral package                     .... LIBINT
 Reset frequency        DirectResetFreq ....    20
 Integral Threshold     Thresh          ....  1.000e-12 Eh
 Primitive CutOff       TCut            ....  1.000e-14 Eh

Convergence Tolerance:
 Convergence Check Mode ConvCheckMode   .... Total+1el-Energy
 Convergence forced     ConvForced      .... 0
 Energy Change          TolE            ....  1.000e-09 Eh
 1-El. energy change                    ....  1.000e-06 Eh
 Orbital Gradient       TolG            ....  2.000e-06
 Orbital Rotation angle TolX            ....  2.000e-06
 DIIS Error             TolErr          ....  1.000e-08


Diagonalization of the overlap matrix:
Smallest eigenvalue                        ... 1.706e-03
Time for diagonalization                   ...    0.001 sec
Threshold for overlap eigenvalues          ... 1.000e-08
Number of eigenvalues below threshold      ... 0
Time for construction of square roots      ...    0.001 sec
Total time needed                          ...    0.002 sec

-------------------
DFT GRID GENERATION
-------------------

General Integration Accuracy     IntAcc      ...  5.010
Radial Grid Type                 RadialGrid  ... Gauss-Chebyshev
Angular Grid (max. acc.)         AngularGrid ... Lebedev-434
Angular grid pruning method      GridPruning ... 3 (G Style)
Weight generation scheme         WeightScheme... Becke
Basis function cutoff            BFCut       ...    1.0000e-12
Integration weight cutoff        WCut        ...    1.0000e-14
Grids for H and He will be reduced by one unit

# of grid points (after initial pruning)     ...  11992 (   0.0 sec)
# of grid points (after weights+screening)   ...  11992 (   0.0 sec)
Grid point division into batches done        ...    0.1 sec
Reduced shell lists constructed in    0.1 sec

Total number of grid points                  ...    11992
Total number of batches                      ...      188
Average number of points per batch           ...       63
Average number of grid points per atom       ...    11992
Average number of shells per batch           ...     0.42 ( 1.89%)
Average number of basis functions per batch  ...     1.25 ( 1.79%)
Average number of large shells per batch     ...     0.42 (100.00%)
Average number of large basis fcns per batch ...     1.25 (100.00%)
Maximum spatial batch extension              ...  18.71, 18.71, 18.71 au
Average spatial batch extension              ...   0.97,  0.98,  0.97 au

Time for grid setup =    0.142 sec

------------------------------
INITIAL GUESS: MODEL POTENTIAL
------------------------------
Loading Hartree-Fock densities                     ... done
Calculating cut-offs                               ... done
Setting up the integral package                    ... done
Initializing the effective Hamiltonian             ... done
Starting the Coulomb interaction                   ... done (   0.0 sec)
Reading the grid                                   ... done
Mapping shells                                     ... done
Starting the XC term evaluation                    ... done (   0.0 sec)
  promolecular density results
     # of electrons  =     17.999998971
     EX              =    -27.869847309
     EC              =     -1.431662733
     EX+EC           =    -29.301510042
Transforming the Hamiltonian                       ... done (   0.0 sec)
Diagonalizing the Hamiltonian                      ... done (   0.0 sec)
Back transforming the eigenvectors                 ... done (   0.0 sec)
Now organizing SCF variables                       ... done
                      ------------------
                      INITIAL GUESS DONE (   0.2 sec)
                      ------------------
--------------
SCF ITERATIONS
--------------
ITER       Energy         Delta-E        Max-DP      RMS-DP      [F,P]     Damp
               ***  Starting incremental Fock matrix formation  ***
  0   -311.5030528813   0.000000000000 0.00652219  0.00012960  2.4029891 0.7000
  1   -311.5128798956  -0.009827014283 0.00446067  0.00008974  1.6677111 0.7000
  2   -311.5196783501  -0.006798454453 0.00304271  0.00006199  1.1564764 0.7000
  3   -311.5243988683  -0.004720518212 0.00207474  0.00004283  0.8020159 0.7000
  4   -311.5276849063  -0.003286037999 0.00141418  0.00002960  0.5562314 0.7000
                      *** Initiating the SOSCF procedure ***
                      *** Re-Reading the Fockian *** 
                      *** Removing any level shift *** 
ITER      Energy       Delta-E        Grad      Rot      Max-DP    RMS-DP
  5   -311.52997639  -0.0022914795  0.002330  0.002330  0.003212  0.000068
               *** Restarting incremental Fock matrix formation ***
  6   -311.53529598  -0.0053195980  0.005369  0.000026  0.000202  0.000003
  7   -311.53529653  -0.0000005427  0.000158  0.000001  0.000006  0.000000
                 **** Energy Check signals convergence ****
              ***Rediagonalizing the Fockian in SOSCF/NRSCF***

               *****************************************************
               *                     SUCCESS                       *
               *           SCF CONVERGED AFTER   8 CYCLES          *
               *****************************************************

Setting up the final grid:

General Integration Accuracy     IntAcc      ...  5.340
Radial Grid Type                 RadialGrid  ... Gauss-Chebyshev
Angular Grid (max. acc.)         AngularGrid ... Lebedev-590
Angular grid pruning method      GridPruning ... 3 (G Style)
Weight generation scheme         WeightScheme... Becke
Basis function cutoff            BFCut       ...    1.0000e-12
Integration weight cutoff        WCut        ...    1.0000e-14
Grids for H and He will be reduced by one unit

# of grid points (after initial pruning)     ...  18110 (   0.0 sec)
# of grid points (after weights+screening)   ...  18110 (   0.0 sec)
Grid point division into batches done        ...    0.2 sec
Reduced shell lists constructed in    0.2 sec

Total number of grid points                  ...    18110
Total number of batches                      ...      283
Average number of points per batch           ...       63
Average number of grid points per atom       ...    18110
Average number of shells per batch           ...     0.00 ( 0.00%)
Average number of basis functions per batch  ...     0.00 ( 0.00%)
Average number of large shells per batch     ...     0.00 ( -nan%)
Average number of large basis fcns per batch ...     0.00 ( -nan%)
Maximum spatial batch extension              ...  19.03, 19.03, 19.03 au
Average spatial batch extension              ...   0.84,  0.84,  0.80 au

Final grid set up in    0.2 sec
Final integration                            ... done (   0.0 sec)
Change in XC energy                          ...    -0.000001378
Integrated number of electrons               ...     2.000000009
Previous integrated no of electrons          ...     1.999999875

----------------
TOTAL SCF ENERGY
----------------

Total Energy       :         -311.53529791 Eh           -8477.30643 eV

Components:
Nuclear Repulsion  :            0.00000000 Eh               0.00000 eV
Electronic Energy  :         -311.53529791 Eh           -8477.30643 eV
One Electron Energy:         -323.85228318 Eh           -8812.46864 eV
Two Electron Energy:           12.31698527 Eh             335.16221 eV

Virial components:
Potential Energy   :         -622.88718352 Eh          -16949.62197 eV
Kinetic Energy     :          311.35188561 Eh            8472.31553 eV
Virial Ratio       :            2.00058908


DFT components:
N(Alpha)           :        1.000000004633 electrons
N(Beta)            :        1.000000004633 electrons
N(Total)           :        2.000000009266 electrons
E(X)               :       -9.434327839937 Eh       
E(C)               :       -0.236903926363 Eh       
E(XC)              :       -9.671231766300 Eh       
DFET-embed. en.    :        0.000000000000 Eh       

---------------
SCF CONVERGENCE
---------------

  Last Energy change         ...   -4.6396e-10  Tolerance :   1.0000e-09
  Last MAX-Density change    ...    2.9244e-10  Tolerance :   1.0000e-08
  Last RMS-Density change    ...    7.2053e-12  Tolerance :   1.0000e-09
  Last Orbital Gradient      ...    4.2432e-09  Tolerance :   2.0000e-06
  Last Orbital Rotation      ...    1.8255e-11  Tolerance :   2.0000e-06

================================================================================
                                        WARNING
Number of found core electrons (2) does not match given number of chemical core electrons (10)
================================================================================
             **** THE GBW FILE WAS UPDATED (Ar_def2-qzvpp_.gbw) ****
             **** DENSITY FILE WAS UPDATED (Ar_def2-qzvpp_.scfp) ****
             **** ENERGY FILE WAS UPDATED (Ar_def2-qzvpp_.en.tmp) ****
             **** THE GBW FILE WAS UPDATED (Ar_def2-qzvpp_.gbw) ****
             **** DENSITY FILE WAS UPDATED (Ar_def2-qzvpp_.scfp) ****
----------------
ORBITAL ENERGIES
----------------

  NO   OCC          E(Eh)            E(eV) 
   0   2.0000    -146.355478     -3982.5350 
   1   0.0000     -34.112925      -928.2599 
   2   0.0000     -33.006653      -898.1567 
   3   0.0000     -33.006653      -898.1567 
   4   0.0000     -33.006653      -898.1567 
   5   0.0000     -14.790428      -402.4680 
   6   0.0000     -13.990531      -380.7017 
   7   0.0000     -13.990531      -380.7017 
   8   0.0000     -13.990531      -380.7017 
   9   0.0000     -13.990531      -380.7017 
  10   0.0000     -13.990531      -380.7017 
  11   0.0000     -13.927333      -378.9820 
  12   0.0000     -13.927333      -378.9820 
  13   0.0000     -13.927333      -378.9820 
  14   0.0000      -8.206263      -223.3038 
  15   0.0000      -7.849070      -213.5840 
  16   0.0000      -7.849070      -213.5840 
  17   0.0000      -7.849070      -213.5840 
  18   0.0000      -7.849070      -213.5840 
  19   0.0000      -7.849070      -213.5840 
  20   0.0000      -7.656577      -208.3461 
  21   0.0000      -7.656577      -208.3461 
  22   0.0000      -7.656577      -208.3461 
  23   0.0000      -7.504243      -204.2008 
  24   0.0000      -7.504243      -204.2008 
  25   0.0000      -7.504243      -204.2008 
  26   0.0000      -7.504243      -204.2008 
  27   0.0000      -7.504243      -204.2008 
  28   0.0000      -7.504243      -204.2008 
  29   0.0000      -7.504243      -204.2008 
  30   0.0000      -5.124617      -139.4479 
  31   0.0000      -4.986001      -135.6760 
  32   0.0000      -4.986001      -135.6760 
  33   0.0000      -4.986001      -135.6760 
  34   0.0000      -4.986001      -135.6760 
  35   0.0000      -4.986001      -135.6760 
  36   0.0000      -4.873236      -132.6075 
  37   0.0000      -4.873236      -132.6075 
  38   0.0000      -4.873236      -132.6075 
  39   0.0000      -4.873236      -132.6075 
  40   0.0000      -4.873236      -132.6075 
  41   0.0000      -4.873236      -132.6075 
  42   0.0000      -4.873236      -132.6075 
  43   0.0000      -4.873236      -132.6075 
  44   0.0000      -4.873236      -132.6075 
  45   0.0000      -4.847736      -131.9136 
  46   0.0000      -4.847736      -131.9136 
  47   0.0000      -4.847736      -131.9136 
  48   0.0000      -4.680462      -127.3618 
  49   0.0000      -4.680462      -127.3618 
  50   0.0000      -4.680462      -127.3618 
  51   0.0000      -4.680462      -127.3618 
  52   0.0000      -4.680462      -127.3618 
  53   0.0000      -4.680462      -127.3618 
  54   0.0000      -4.680462      -127.3618 
  55   0.0000      -3.270802       -89.0030 
  56   0.0000      -3.270802       -89.0030 
  57   0.0000      -3.270802       -89.0030 
  58   0.0000      -3.266323       -88.8812 
  59   0.0000      -2.640849       -71.8611 
  60   0.0000      -2.640849       -71.8611 
  61   0.0000      -2.640849       -71.8611 
  62   0.0000      -2.640849       -71.8611 
  63   0.0000      -2.640849       -71.8611 
  64   0.0000      12.724798       346.2594 
  65   0.0000      26.853399       730.7181 
  66   0.0000      26.853399       730.7181 
  67   0.0000      26.853399       730.7181 
  68   0.0000      85.779275      2334.1727 
  69   0.0000     570.534924     15525.0445 

                    ********************************
                    * MULLIKEN POPULATION ANALYSIS *
                    ********************************

-----------------------
MULLIKEN ATOMIC CHARGES
-----------------------
   0 Ar:   16.000000
Sum of atomic charges:   16.0000000

--------------------------------
MULLIKEN REDUCED ORBITAL CHARGES
--------------------------------
  0 Ars       :     2.000000  s :     2.000000
      pz      :     0.000000  p :     0.000000
      px      :     0.000000
      py      :     0.000000
      dz2     :     0.000000  d :     0.000000
      dxz     :     0.000000
      dyz     :     0.000000
      dx2y2   :     0.000000
      dxy     :     0.000000
      f0      :     0.000000  f :     0.000000
      f+1     :     0.000000
      f-1     :     0.000000
      f+2     :     0.000000
      f-2     :     0.000000
      f+3     :     0.000000
      f-3     :     0.000000
      g0      :     0.000000  g :     0.000000
      g+1     :     0.000000
      g-1     :     0.000000
      g+2     :     0.000000
      g-2     :     0.000000
      g+3     :     0.000000
      g-3     :     0.000000
      g+4     :     0.000000
      g-4     :     0.000000


                     *******************************
                     * LOEWDIN POPULATION ANALYSIS *
                     *******************************

----------------------
LOEWDIN ATOMIC CHARGES
----------------------
   0 Ar:   16.000000

-------------------------------
LOEWDIN REDUCED ORBITAL CHARGES
-------------------------------
  0 Ars       :     2.000000  s :     2.000000
      pz      :     0.000000  p :     0.000000
      px      :     0.000000
      py      :     0.000000
      dz2     :     0.000000  d :     0.000000
      dxz     :     0.000000
      dyz     :     0.000000
      dx2y2   :     0.000000
      dxy     :     0.000000
      f0      :     0.000000  f :     0.000000
      f+1     :     0.000000
      f-1     :     0.000000
      f+2     :     0.000000
      f-2     :     0.000000
      f+3     :     0.000000
      f-3     :     0.000000
      g0      :     0.000000  g :     0.000000
      g+1     :     0.000000
      g-1     :     0.000000
      g+2     :     0.000000
      g-2     :     0.000000
      g+3     :     0.000000
      g-3     :     0.000000
      g+4     :     0.000000
      g-4     :     0.000000


                      *****************************
                      * MAYER POPULATION ANALYSIS *
                      *****************************

  NA   - Mulliken gross atomic population
  ZA   - Total nuclear charge
  QA   - Mulliken gross atomic charge
  VA   - Mayer's total valence
  BVA  - Mayer's bonded valence
  FA   - Mayer's free valence

  ATOM       NA         ZA         QA         VA         BVA        FA
  0 Ar     2.0000    18.0000    16.0000     0.0000     0.0000     0.0000

  Mayer bond orders larger than 0.100000


--------------------------
ATOM BASIS FOR ELEMENT Ar
--------------------------
 NewGTO Ar
 S 20
    1    1673421.949400000041         0.000011281910
    2     250601.753729999997         0.000087707272
    3      57030.912120000001         0.000461084027
    4      16153.303915000000         0.001942572293
    5       5269.410928800000         0.007021754793
    6       1902.031554100000         0.022383314121
    7        741.576771590000         0.063008633709
    8        307.209019060000         0.151493613035
    9        133.527862030000         0.288053483880
   10         60.253381291000         0.365016746668
   11        522.024262060000         0.000060324463
   12        161.512904690000         0.000549096687
   13         62.126369433000         0.002132977438
   14         27.590930012000         0.224882598010
   15         11.175528881000         0.022478468862
   16          5.295906513700        -0.001374825719
   17          2.478279889500        -0.000029414154
   18          0.912620950600         0.000152684190
   19          0.404260675500        -0.000098112483
   20          0.165628863100         0.000028442898
 S 20
    1    1673421.949400000041         0.000003869322
    2     250601.753729999997         0.000030080694
    3      57030.912120000001         0.000158136575
    4      16153.303915000000         0.000666238063
    5       5269.410928800000         0.002408229711
    6       1902.031554100000         0.007676736613
    7        741.576771590000         0.021609877907
    8        307.209019060000         0.051957299955
    9        133.527862030000         0.098792820141
   10         60.253381291000         0.125188674396
   11        522.024262060000         0.002869002678
   12        161.512904690000         0.026114776222
   13         62.126369433000         0.101443388456
   14         27.590930012000         0.174022382317
   15         11.175528881000        -0.402562520809
   16          5.295906513700        -0.675735275460
   17          2.478279889500        -0.125568392379
   18          0.912620950600         0.003261613734
   19          0.404260675500        -0.001112842345
   20          0.165628863100         0.000231162656
 S 20
    1    1673421.949400000041        -0.000002041080
    2     250601.753729999997        -0.000015867664
    3      57030.912120000001        -0.000083417556
    4      16153.303915000000        -0.000351442740
    5       5269.410928800000        -0.001270348985
    6       1902.031554100000        -0.004049503467
    7        741.576771590000        -0.011399280700
    8        307.209019060000        -0.027407644280
    9        133.527862030000        -0.052113533116
   10         60.253381291000        -0.066037431866
   11        522.024262060000        -0.001988322636
   12        161.512904690000        -0.018098484573
   13         62.126369433000        -0.070303937718
   14         27.590930012000        -0.100365440459
   15         11.175528881000         0.317417214815
   16          5.295906513700         1.137087070357
   17          2.478279889500        -0.938606052599
   18          0.912620950600        -0.877061192242
   19          0.404260675500         0.179724310823
   20          0.165628863100        -0.041815329046
 S 20
    1    1673421.949400000041        -0.000001298941
    2     250601.753729999997        -0.000010098166
    3      57030.912120000001        -0.000053086855
    4      16153.303915000000        -0.000223657830
    5       5269.410928800000        -0.000808448902
    6       1902.031554100000        -0.002577100205
    7        741.576771590000        -0.007254491537
    8        307.209019060000        -0.017442199092
    9        133.527862030000        -0.033165003557
   10         60.253381291000        -0.042026159651
   11        522.024262060000        -0.001520058665
   12        161.512904690000        -0.013836164106
   13         62.126369433000        -0.053746865692
   14         27.590930012000        -0.046996916740
   15         11.175528881000         0.151121316462
   16          5.295906513700         1.354513558415
   17          2.478279889500        -2.047386929001
   18          0.912620950600        -0.290060160562
   19          0.404260675500         1.674469337683
   20          0.165628863100        -0.192430484989
 S 20
    1    1673421.949400000041         0.000000953586
    2     250601.753729999997         0.000007413324
    3      57030.912120000001         0.000038972430
    4      16153.303915000000         0.000164192985
    5       5269.410928800000         0.000593503203
    6       1902.031554100000         0.001891915770
    7        741.576771590000         0.005325709461
    8        307.209019060000         0.012804768500
    9        133.527862030000         0.024347285030
   10         60.253381291000         0.030852488406
   11        522.024262060000         0.001332838028
   12        161.512904690000         0.012132009183
   13         62.126369433000         0.047127040639
   14         27.590930012000         0.011134083213
   15         11.175528881000        -0.014725273936
   16          5.295906513700        -1.545416306411
   17          2.478279889500         2.953684860239
   18          0.912620950600        -2.049825817295
   19          0.404260675500        -0.615842850674
   20          0.165628863100         1.608236843018
 S 20
    1    1673421.949400000041         0.000001195587
    2     250601.753729999997         0.000009294673
    3      57030.912120000001         0.000048862828
    4      16153.303915000000         0.000205861774
    5       5269.410928800000         0.000744122062
    6       1902.031554100000         0.002372044930
    7        741.576771590000         0.006677264560
    8        307.209019060000         0.016054354361
    9        133.527862030000         0.030526123264
   10         60.253381291000         0.038682212942
   11        522.024262060000         0.001882318171
   12        161.512904690000         0.017133590781
   13         62.126369433000         0.066555787821
   14         27.590930012000        -0.010482317627
   15         11.175528881000         0.088993339415
   16          5.295906513700        -2.534620545451
   17          2.478279889500         5.481836752304
   18          0.912620950600        -7.361676051026
   19          0.404260675500         6.584350774803
   20          0.165628863100        -2.653858407406
 S 20
    1    1673421.949400000041        -0.000004706595
    2     250601.753729999997        -0.000036589779
    3      57030.912120000001        -0.000192355349
    4      16153.303915000000        -0.000810403636
    5       5269.410928800000        -0.002929340461
    6       1902.031554100000        -0.009337886274
    7        741.576771590000        -0.026285984848
    8        307.209019060000        -0.063200208963
    9        133.527862030000        -0.120170349158
   10         60.253381291000        -0.152277935697
   11        522.024262060000         0.001079485350
   12        161.512904690000         0.009825894755
   13         62.126369433000         0.038168891438
   14         27.590930012000        -1.357042848932
   15         11.175528881000         6.996855698944
   16          5.295906513700       -11.024436790074
   17          2.478279889500         8.446669699420
   18          0.912620950600        -4.684005495571
   19          0.404260675500         2.527064822069
   20          0.165628863100        -0.688383990307
 S 20
    1    1673421.949400000041        -0.000002146266
    2     250601.753729999997        -0.000016685392
    3      57030.912120000001        -0.000087716420
    4      16153.303915000000        -0.000369554090
    5       5269.410928800000        -0.001335815512
    6       1902.031554100000        -0.004258191733
    7        741.576771590000        -0.011986734480
    8        307.209019060000        -0.028820077630
    9        133.527862030000        -0.054799166782
   10         60.253381291000        -0.069440623698
   11        522.024262060000        -0.048112256952
   12        161.512904690000        -0.437936441707
   13         62.126369433000        -1.701173167164
   14         27.590930012000         6.163421940941
   15         11.175528881000        -8.663814511918
   16          5.295906513700         7.806290552378
   17          2.478279889500        -4.354767067550
   18          0.912620950600         2.012793987150
   19          0.404260675500        -1.029326243959
   20          0.165628863100         0.273731651338
 S 20
    1    1673421.949400000041        -0.000082120352
    2     250601.753729999997        -0.000638416000
    3      57030.912120000001        -0.003356203137
    4      16153.303915000000        -0.014139867880
    5       5269.410928800000        -0.051110934409
    6       1902.031554100000        -0.162926808702
    7        741.576771590000        -0.458636087371
    8        307.209019060000        -1.102712975257
    9        133.527862030000        -2.096724131661
   10         60.253381291000        -2.656935131946
   11        522.024262060000         0.195288257355
   12        161.512904690000         1.777589536435
   13         62.126369433000         6.905083326319
   14         27.590930012000        -5.355940684389
   15         11.175528881000         4.995916581792
   16          5.295906513700        -3.986027465238
   17          2.478279889500         2.153273484571
   18          0.912620950600        -0.996070222894
   19          0.404260675500         0.511857445861
   20          0.165628863100        -0.136496849195
 P 14
    1       2868.450458100000         0.000320603815
    2        679.718695900000         0.002791350388
    3        220.367588240000         0.015181089300
    4         83.620439734000         0.059956190919
    5         34.964322657000         0.176751569636
    6         15.525131784000         0.369993223952
    7          7.099297980600         0.515600263080
    8          3.302133660200         0.380457024887
    9        128.787656670000         0.008714356154
   10          8.435786797700        -0.183092193805
   11          1.461866185500        -0.341810012654
   12          0.646580101000         0.245880369002
   13          0.272292957500        -0.120653876024
   14          0.109051824500         0.036451489875
 P 14
    1       2868.450458100000         0.000172421584
    2        679.718695900000         0.001501195659
    3        220.367588240000         0.008164430184
    4         83.620439734000         0.032244598868
    5         34.964322657000         0.095057464040
    6         15.525131784000         0.198983339459
    7          7.099297980600         0.277291192194
    8          3.302133660200         0.204610799419
    9        128.787656670000         0.007548577512
   10          8.435786797700        -0.158598706819
   11          1.461866185500        -1.526601814672
   12          0.646580101000         0.530724880637
   13          0.272292957500        -0.272799187004
   14          0.109051824500         0.081444471808
 P 14
    1       2868.450458100000         0.000100578745
    2        679.718695900000         0.000875693005
    3        220.367588240000         0.004762560001
    4         83.620439734000         0.018809253474
    5         34.964322657000         0.055449904744
    6         15.525131784000         0.116073023092
    7          7.099297980600         0.161752371039
    8          3.302133660200         0.119355691338
    9        128.787656670000         0.005466545031
   10          8.435786797700        -0.114854351206
   11          1.461866185500        -1.632214701926
   12          0.646580101000         2.002423816413
   13          0.272292957500        -0.189292432385
   14          0.109051824500         0.079319554901
 P 14
    1       2868.450458100000         0.000062743830
    2        679.718695900000         0.000546281756
    3        220.367588240000         0.002971017957
    4         83.620439734000         0.011733737699
    5         34.964322657000         0.034591199411
    6         15.525131784000         0.072409593967
    7          7.099297980600         0.100905647136
    8          3.302133660200         0.074457414110
    9        128.787656670000         0.003778929413
   10          8.435786797700        -0.079396855516
   11          1.461866185500        -1.336262159861
   12          0.646580101000         2.760969891391
   13          0.272292957500        -2.165901348952
   14          0.109051824500         0.078496818889
 P 14
    1       2868.450458100000         0.000034068224
    2        679.718695900000         0.000296616400
    3        220.367588240000         0.001613183379
    4         83.620439734000         0.006371106103
    5         34.964322657000         0.018782097173
    6         15.525131784000         0.039316475096
    7          7.099297980600         0.054789070692
    8          3.302133660200         0.040428386726
    9        128.787656670000         0.002173925820
   10          8.435786797700        -0.045675072312
   11          1.461866185500        -0.809070783826
   12          0.646580101000         2.093890547532
   13          0.272292957500        -2.883808861550
   14          0.109051824500         2.025654399702
 P 14
    1       2868.450458100000         0.000945907383
    2        679.718695900000         0.008235581795
    3        220.367588240000         0.044790185854
    4         83.620439734000         0.176894350674
    5         34.964322657000         0.521486666553
    6         15.525131784000         1.091625570302
    7          7.099297980600         1.521223619235
    8          3.302133660200         1.122497899642
    9        128.787656670000         0.182670851741
   10          8.435786797700        -3.837989450875
   11          1.461866185500        -0.303193037851
   12          0.646580101000        -0.100913812695
   13          0.272292957500         0.117881722630
   14          0.109051824500        -0.044323265386
 D 4
    1          6.315000000000         0.620498647719
    2          1.562000000000         0.655084435952
    3          0.715000000000        -0.194786451290
    4          0.297000000000         0.063839184028
 D 4
    1          6.315000000000         0.521480068205
    2          1.562000000000        -0.030456791844
    3          0.715000000000        -0.962711329559
    4          0.297000000000         0.044063454043
 D 4
    1          6.315000000000         0.423293503647
    2          1.562000000000        -0.482067755743
    3          0.715000000000        -0.410450462913
    4          0.297000000000         1.181916273820
 D 4
    1          6.315000000000         0.778882113529
    2          1.562000000000        -1.960356009594
    3          0.715000000000         2.378205182566
    4          0.297000000000        -1.204842246541
 F 2
    1          0.543000000000         0.135412317212
    2          1.325000000000         0.906892609993
 F 2
    1          0.543000000000        -1.306283012250
    2          1.325000000000         0.949872411266
 G 1
    1          1.007000000000         1.000000000000
 end
  // -----------------------------------------------
  // The basis set
  // -----------------------------------------------
  BAS[ATNO] = new BFNGauss[NSH];
  // Basis function   1 L = s
  InitBFNGauss(BAS[ATNO][  0]);
  BAS[ATNO][  0].l  = 0;
  BAS[ATNO][  0].ng = 20;
  BAS[ATNO][  0].a[  0] =   1673421.949400000041;     BAS[ATNO][  0].d[  0] =         0.000011281910;
  BAS[ATNO][  0].a[  1] =    250601.753729999997;     BAS[ATNO][  0].d[  1] =         0.000087707272;
  BAS[ATNO][  0].a[  2] =     57030.912120000001;     BAS[ATNO][  0].d[  2] =         0.000461084027;
  BAS[ATNO][  0].a[  3] =     16153.303915000000;     BAS[ATNO][  0].d[  3] =         0.001942572293;
  BAS[ATNO][  0].a[  4] =      5269.410928800000;     BAS[ATNO][  0].d[  4] =         0.007021754793;
  BAS[ATNO][  0].a[  5] =      1902.031554100000;     BAS[ATNO][  0].d[  5] =         0.022383314121;
  BAS[ATNO][  0].a[  6] =       741.576771590000;     BAS[ATNO][  0].d[  6] =         0.063008633709;
  BAS[ATNO][  0].a[  7] =       307.209019060000;     BAS[ATNO][  0].d[  7] =         0.151493613035;
  BAS[ATNO][  0].a[  8] =       133.527862030000;     BAS[ATNO][  0].d[  8] =         0.288053483880;
  BAS[ATNO][  0].a[  9] =        60.253381291000;     BAS[ATNO][  0].d[  9] =         0.365016746668;
  BAS[ATNO][  0].a[ 10] =       522.024262060000;     BAS[ATNO][  0].d[ 10] =         0.000060324463;
  BAS[ATNO][  0].a[ 11] =       161.512904690000;     BAS[ATNO][  0].d[ 11] =         0.000549096687;
  BAS[ATNO][  0].a[ 12] =        62.126369433000;     BAS[ATNO][  0].d[ 12] =         0.002132977438;
  BAS[ATNO][  0].a[ 13] =        27.590930012000;     BAS[ATNO][  0].d[ 13] =         0.224882598010;
  BAS[ATNO][  0].a[ 14] =        11.175528881000;     BAS[ATNO][  0].d[ 14] =         0.022478468862;
  BAS[ATNO][  0].a[ 15] =         5.295906513700;     BAS[ATNO][  0].d[ 15] =        -0.001374825719;
  BAS[ATNO][  0].a[ 16] =         2.478279889500;     BAS[ATNO][  0].d[ 16] =        -0.000029414154;
  BAS[ATNO][  0].a[ 17] =         0.912620950600;     BAS[ATNO][  0].d[ 17] =         0.000152684190;
  BAS[ATNO][  0].a[ 18] =         0.404260675500;     BAS[ATNO][  0].d[ 18] =        -0.000098112483;
  BAS[ATNO][  0].a[ 19] =         0.165628863100;     BAS[ATNO][  0].d[ 19] =         0.000028442898;

  // Basis function   2 L = s
  InitBFNGauss(BAS[ATNO][  1]);
  BAS[ATNO][  1].l  = 0;
  BAS[ATNO][  1].ng = 20;
  BAS[ATNO][  1].a[  0] =   1673421.949400000041;     BAS[ATNO][  1].d[  0] =        -0.000003869322;
  BAS[ATNO][  1].a[  1] =    250601.753729999997;     BAS[ATNO][  1].d[  1] =        -0.000030080694;
  BAS[ATNO][  1].a[  2] =     57030.912120000001;     BAS[ATNO][  1].d[  2] =        -0.000158136575;
  BAS[ATNO][  1].a[  3] =     16153.303915000000;     BAS[ATNO][  1].d[  3] =        -0.000666238063;
  BAS[ATNO][  1].a[  4] =      5269.410928800000;     BAS[ATNO][  1].d[  4] =        -0.002408229711;
  BAS[ATNO][  1].a[  5] =      1902.031554100000;     BAS[ATNO][  1].d[  5] =        -0.007676736613;
  BAS[ATNO][  1].a[  6] =       741.576771590000;     BAS[ATNO][  1].d[  6] =        -0.021609877907;
  BAS[ATNO][  1].a[  7] =       307.209019060000;     BAS[ATNO][  1].d[  7] =        -0.051957299955;
  BAS[ATNO][  1].a[  8] =       133.527862030000;     BAS[ATNO][  1].d[  8] =        -0.098792820141;
  BAS[ATNO][  1].a[  9] =        60.253381291000;     BAS[ATNO][  1].d[  9] =        -0.125188674396;
  BAS[ATNO][  1].a[ 10] =       522.024262060000;     BAS[ATNO][  1].d[ 10] =        -0.002869002678;
  BAS[ATNO][  1].a[ 11] =       161.512904690000;     BAS[ATNO][  1].d[ 11] =        -0.026114776222;
  BAS[ATNO][  1].a[ 12] =        62.126369433000;     BAS[ATNO][  1].d[ 12] =        -0.101443388456;
  BAS[ATNO][  1].a[ 13] =        27.590930012000;     BAS[ATNO][  1].d[ 13] =        -0.174022382317;
  BAS[ATNO][  1].a[ 14] =        11.175528881000;     BAS[ATNO][  1].d[ 14] =         0.402562520809;
  BAS[ATNO][  1].a[ 15] =         5.295906513700;     BAS[ATNO][  1].d[ 15] =         0.675735275460;
  BAS[ATNO][  1].a[ 16] =         2.478279889500;     BAS[ATNO][  1].d[ 16] =         0.125568392379;
  BAS[ATNO][  1].a[ 17] =         0.912620950600;     BAS[ATNO][  1].d[ 17] =        -0.003261613734;
  BAS[ATNO][  1].a[ 18] =         0.404260675500;     BAS[ATNO][  1].d[ 18] =         0.001112842345;
  BAS[ATNO][  1].a[ 19] =         0.165628863100;     BAS[ATNO][  1].d[ 19] =        -0.000231162656;

  // Basis function   3 L = s
  InitBFNGauss(BAS[ATNO][  2]);
  BAS[ATNO][  2].l  = 0;
  BAS[ATNO][  2].ng = 20;
  BAS[ATNO][  2].a[  0] =   1673421.949400000041;     BAS[ATNO][  2].d[  0] =        -0.000002041080;
  BAS[ATNO][  2].a[  1] =    250601.753729999997;     BAS[ATNO][  2].d[  1] =        -0.000015867664;
  BAS[ATNO][  2].a[  2] =     57030.912120000001;     BAS[ATNO][  2].d[  2] =        -0.000083417556;
  BAS[ATNO][  2].a[  3] =     16153.303915000000;     BAS[ATNO][  2].d[  3] =        -0.000351442740;
  BAS[ATNO][  2].a[  4] =      5269.410928800000;     BAS[ATNO][  2].d[  4] =        -0.001270348985;
  BAS[ATNO][  2].a[  5] =      1902.031554100000;     BAS[ATNO][  2].d[  5] =        -0.004049503467;
  BAS[ATNO][  2].a[  6] =       741.576771590000;     BAS[ATNO][  2].d[  6] =        -0.011399280700;
  BAS[ATNO][  2].a[  7] =       307.209019060000;     BAS[ATNO][  2].d[  7] =        -0.027407644280;
  BAS[ATNO][  2].a[  8] =       133.527862030000;     BAS[ATNO][  2].d[  8] =        -0.052113533116;
  BAS[ATNO][  2].a[  9] =        60.253381291000;     BAS[ATNO][  2].d[  9] =        -0.066037431866;
  BAS[ATNO][  2].a[ 10] =       522.024262060000;     BAS[ATNO][  2].d[ 10] =        -0.001988322636;
  BAS[ATNO][  2].a[ 11] =       161.512904690000;     BAS[ATNO][  2].d[ 11] =        -0.018098484573;
  BAS[ATNO][  2].a[ 12] =        62.126369433000;     BAS[ATNO][  2].d[ 12] =        -0.070303937718;
  BAS[ATNO][  2].a[ 13] =        27.590930012000;     BAS[ATNO][  2].d[ 13] =        -0.100365440459;
  BAS[ATNO][  2].a[ 14] =        11.175528881000;     BAS[ATNO][  2].d[ 14] =         0.317417214815;
  BAS[ATNO][  2].a[ 15] =         5.295906513700;     BAS[ATNO][  2].d[ 15] =         1.137087070357;
  BAS[ATNO][  2].a[ 16] =         2.478279889500;     BAS[ATNO][  2].d[ 16] =        -0.938606052599;
  BAS[ATNO][  2].a[ 17] =         0.912620950600;     BAS[ATNO][  2].d[ 17] =        -0.877061192242;
  BAS[ATNO][  2].a[ 18] =         0.404260675500;     BAS[ATNO][  2].d[ 18] =         0.179724310823;
  BAS[ATNO][  2].a[ 19] =         0.165628863100;     BAS[ATNO][  2].d[ 19] =        -0.041815329046;

  // Basis function   4 L = s
  InitBFNGauss(BAS[ATNO][  3]);
  BAS[ATNO][  3].l  = 0;
  BAS[ATNO][  3].ng = 20;
  BAS[ATNO][  3].a[  0] =   1673421.949400000041;     BAS[ATNO][  3].d[  0] =         0.000001298941;
  BAS[ATNO][  3].a[  1] =    250601.753729999997;     BAS[ATNO][  3].d[  1] =         0.000010098166;
  BAS[ATNO][  3].a[  2] =     57030.912120000001;     BAS[ATNO][  3].d[  2] =         0.000053086855;
  BAS[ATNO][  3].a[  3] =     16153.303915000000;     BAS[ATNO][  3].d[  3] =         0.000223657830;
  BAS[ATNO][  3].a[  4] =      5269.410928800000;     BAS[ATNO][  3].d[  4] =         0.000808448902;
  BAS[ATNO][  3].a[  5] =      1902.031554100000;     BAS[ATNO][  3].d[  5] =         0.002577100205;
  BAS[ATNO][  3].a[  6] =       741.576771590000;     BAS[ATNO][  3].d[  6] =         0.007254491537;
  BAS[ATNO][  3].a[  7] =       307.209019060000;     BAS[ATNO][  3].d[  7] =         0.017442199092;
  BAS[ATNO][  3].a[  8] =       133.527862030000;     BAS[ATNO][  3].d[  8] =         0.033165003557;
  BAS[ATNO][  3].a[  9] =        60.253381291000;     BAS[ATNO][  3].d[  9] =         0.042026159651;
  BAS[ATNO][  3].a[ 10] =       522.024262060000;     BAS[ATNO][  3].d[ 10] =         0.001520058665;
  BAS[ATNO][  3].a[ 11] =       161.512904690000;     BAS[ATNO][  3].d[ 11] =         0.013836164106;
  BAS[ATNO][  3].a[ 12] =        62.126369433000;     BAS[ATNO][  3].d[ 12] =         0.053746865692;
  BAS[ATNO][  3].a[ 13] =        27.590930012000;     BAS[ATNO][  3].d[ 13] =         0.046996916740;
  BAS[ATNO][  3].a[ 14] =        11.175528881000;     BAS[ATNO][  3].d[ 14] =        -0.151121316462;
  BAS[ATNO][  3].a[ 15] =         5.295906513700;     BAS[ATNO][  3].d[ 15] =        -1.354513558415;
  BAS[ATNO][  3].a[ 16] =         2.478279889500;     BAS[ATNO][  3].d[ 16] =         2.047386929001;
  BAS[ATNO][  3].a[ 17] =         0.912620950600;     BAS[ATNO][  3].d[ 17] =         0.290060160562;
  BAS[ATNO][  3].a[ 18] =         0.404260675500;     BAS[ATNO][  3].d[ 18] =        -1.674469337683;
  BAS[ATNO][  3].a[ 19] =         0.165628863100;     BAS[ATNO][  3].d[ 19] =         0.192430484989;

  // Basis function   5 L = s
  InitBFNGauss(BAS[ATNO][  4]);
  BAS[ATNO][  4].l  = 0;
  BAS[ATNO][  4].ng = 20;
  BAS[ATNO][  4].a[  0] =   1673421.949400000041;     BAS[ATNO][  4].d[  0] =         0.000000953586;
  BAS[ATNO][  4].a[  1] =    250601.753729999997;     BAS[ATNO][  4].d[  1] =         0.000007413324;
  BAS[ATNO][  4].a[  2] =     57030.912120000001;     BAS[ATNO][  4].d[  2] =         0.000038972430;
  BAS[ATNO][  4].a[  3] =     16153.303915000000;     BAS[ATNO][  4].d[  3] =         0.000164192985;
  BAS[ATNO][  4].a[  4] =      5269.410928800000;     BAS[ATNO][  4].d[  4] =         0.000593503203;
  BAS[ATNO][  4].a[  5] =      1902.031554100000;     BAS[ATNO][  4].d[  5] =         0.001891915770;
  BAS[ATNO][  4].a[  6] =       741.576771590000;     BAS[ATNO][  4].d[  6] =         0.005325709461;
  BAS[ATNO][  4].a[  7] =       307.209019060000;     BAS[ATNO][  4].d[  7] =         0.012804768500;
  BAS[ATNO][  4].a[  8] =       133.527862030000;     BAS[ATNO][  4].d[  8] =         0.024347285030;
  BAS[ATNO][  4].a[  9] =        60.253381291000;     BAS[ATNO][  4].d[  9] =         0.030852488406;
  BAS[ATNO][  4].a[ 10] =       522.024262060000;     BAS[ATNO][  4].d[ 10] =         0.001332838028;
  BAS[ATNO][  4].a[ 11] =       161.512904690000;     BAS[ATNO][  4].d[ 11] =         0.012132009183;
  BAS[ATNO][  4].a[ 12] =        62.126369433000;     BAS[ATNO][  4].d[ 12] =         0.047127040639;
  BAS[ATNO][  4].a[ 13] =        27.590930012000;     BAS[ATNO][  4].d[ 13] =         0.011134083213;
  BAS[ATNO][  4].a[ 14] =        11.175528881000;     BAS[ATNO][  4].d[ 14] =        -0.014725273936;
  BAS[ATNO][  4].a[ 15] =         5.295906513700;     BAS[ATNO][  4].d[ 15] =        -1.545416306411;
  BAS[ATNO][  4].a[ 16] =         2.478279889500;     BAS[ATNO][  4].d[ 16] =         2.953684860239;
  BAS[ATNO][  4].a[ 17] =         0.912620950600;     BAS[ATNO][  4].d[ 17] =        -2.049825817295;
  BAS[ATNO][  4].a[ 18] =         0.404260675500;     BAS[ATNO][  4].d[ 18] =        -0.615842850674;
  BAS[ATNO][  4].a[ 19] =         0.165628863100;     BAS[ATNO][  4].d[ 19] =         1.608236843018;

  // Basis function   6 L = s
  InitBFNGauss(BAS[ATNO][  5]);
  BAS[ATNO][  5].l  = 0;
  BAS[ATNO][  5].ng = 20;
  BAS[ATNO][  5].a[  0] =   1673421.949400000041;     BAS[ATNO][  5].d[  0] =        -0.000001195587;
  BAS[ATNO][  5].a[  1] =    250601.753729999997;     BAS[ATNO][  5].d[  1] =        -0.000009294673;
  BAS[ATNO][  5].a[  2] =     57030.912120000001;     BAS[ATNO][  5].d[  2] =        -0.000048862828;
  BAS[ATNO][  5].a[  3] =     16153.303915000000;     BAS[ATNO][  5].d[  3] =        -0.000205861774;
  BAS[ATNO][  5].a[  4] =      5269.410928800000;     BAS[ATNO][  5].d[  4] =        -0.000744122062;
  BAS[ATNO][  5].a[  5] =      1902.031554100000;     BAS[ATNO][  5].d[  5] =        -0.002372044930;
  BAS[ATNO][  5].a[  6] =       741.576771590000;     BAS[ATNO][  5].d[  6] =        -0.006677264560;
  BAS[ATNO][  5].a[  7] =       307.209019060000;     BAS[ATNO][  5].d[  7] =        -0.016054354361;
  BAS[ATNO][  5].a[  8] =       133.527862030000;     BAS[ATNO][  5].d[  8] =        -0.030526123264;
  BAS[ATNO][  5].a[  9] =        60.253381291000;     BAS[ATNO][  5].d[  9] =        -0.038682212942;
  BAS[ATNO][  5].a[ 10] =       522.024262060000;     BAS[ATNO][  5].d[ 10] =        -0.001882318171;
  BAS[ATNO][  5].a[ 11] =       161.512904690000;     BAS[ATNO][  5].d[ 11] =        -0.017133590781;
  BAS[ATNO][  5].a[ 12] =        62.126369433000;     BAS[ATNO][  5].d[ 12] =        -0.066555787821;
  BAS[ATNO][  5].a[ 13] =        27.590930012000;     BAS[ATNO][  5].d[ 13] =         0.010482317627;
  BAS[ATNO][  5].a[ 14] =        11.175528881000;     BAS[ATNO][  5].d[ 14] =        -0.088993339415;
  BAS[ATNO][  5].a[ 15] =         5.295906513700;     BAS[ATNO][  5].d[ 15] =         2.534620545451;
  BAS[ATNO][  5].a[ 16] =         2.478279889500;     BAS[ATNO][  5].d[ 16] =        -5.481836752304;
  BAS[ATNO][  5].a[ 17] =         0.912620950600;     BAS[ATNO][  5].d[ 17] =         7.361676051026;
  BAS[ATNO][  5].a[ 18] =         0.404260675500;     BAS[ATNO][  5].d[ 18] =        -6.584350774803;
  BAS[ATNO][  5].a[ 19] =         0.165628863100;     BAS[ATNO][  5].d[ 19] =         2.653858407406;

  // Basis function   7 L = s
  InitBFNGauss(BAS[ATNO][  6]);
  BAS[ATNO][  6].l  = 0;
  BAS[ATNO][  6].ng = 20;
  BAS[ATNO][  6].a[  0] =   1673421.949400000041;     BAS[ATNO][  6].d[  0] =         0.000004706595;
  BAS[ATNO][  6].a[  1] =    250601.753729999997;     BAS[ATNO][  6].d[  1] =         0.000036589779;
  BAS[ATNO][  6].a[  2] =     57030.912120000001;     BAS[ATNO][  6].d[  2] =         0.000192355349;
  BAS[ATNO][  6].a[  3] =     16153.303915000000;     BAS[ATNO][  6].d[  3] =         0.000810403636;
  BAS[ATNO][  6].a[  4] =      5269.410928800000;     BAS[ATNO][  6].d[  4] =         0.002929340461;
  BAS[ATNO][  6].a[  5] =      1902.031554100000;     BAS[ATNO][  6].d[  5] =         0.009337886274;
  BAS[ATNO][  6].a[  6] =       741.576771590000;     BAS[ATNO][  6].d[  6] =         0.026285984848;
  BAS[ATNO][  6].a[  7] =       307.209019060000;     BAS[ATNO][  6].d[  7] =         0.063200208963;
  BAS[ATNO][  6].a[  8] =       133.527862030000;     BAS[ATNO][  6].d[  8] =         0.120170349158;
  BAS[ATNO][  6].a[  9] =        60.253381291000;     BAS[ATNO][  6].d[  9] =         0.152277935697;
  BAS[ATNO][  6].a[ 10] =       522.024262060000;     BAS[ATNO][  6].d[ 10] =        -0.001079485350;
  BAS[ATNO][  6].a[ 11] =       161.512904690000;     BAS[ATNO][  6].d[ 11] =        -0.009825894755;
  BAS[ATNO][  6].a[ 12] =        62.126369433000;     BAS[ATNO][  6].d[ 12] =        -0.038168891438;
  BAS[ATNO][  6].a[ 13] =        27.590930012000;     BAS[ATNO][  6].d[ 13] =         1.357042848932;
  BAS[ATNO][  6].a[ 14] =        11.175528881000;     BAS[ATNO][  6].d[ 14] =        -6.996855698944;
  BAS[ATNO][  6].a[ 15] =         5.295906513700;     BAS[ATNO][  6].d[ 15] =        11.024436790074;
  BAS[ATNO][  6].a[ 16] =         2.478279889500;     BAS[ATNO][  6].d[ 16] =        -8.446669699420;
  BAS[ATNO][  6].a[ 17] =         0.912620950600;     BAS[ATNO][  6].d[ 17] =         4.684005495571;
  BAS[ATNO][  6].a[ 18] =         0.404260675500;     BAS[ATNO][  6].d[ 18] =        -2.527064822069;
  BAS[ATNO][  6].a[ 19] =         0.165628863100;     BAS[ATNO][  6].d[ 19] =         0.688383990307;

  // Basis function   8 L = s
  InitBFNGauss(BAS[ATNO][  7]);
  BAS[ATNO][  7].l  = 0;
  BAS[ATNO][  7].ng = 20;
  BAS[ATNO][  7].a[  0] =   1673421.949400000041;     BAS[ATNO][  7].d[  0] =         0.000002146266;
  BAS[ATNO][  7].a[  1] =    250601.753729999997;     BAS[ATNO][  7].d[  1] =         0.000016685392;
  BAS[ATNO][  7].a[  2] =     57030.912120000001;     BAS[ATNO][  7].d[  2] =         0.000087716420;
  BAS[ATNO][  7].a[  3] =     16153.303915000000;     BAS[ATNO][  7].d[  3] =         0.000369554090;
  BAS[ATNO][  7].a[  4] =      5269.410928800000;     BAS[ATNO][  7].d[  4] =         0.001335815512;
  BAS[ATNO][  7].a[  5] =      1902.031554100000;     BAS[ATNO][  7].d[  5] =         0.004258191733;
  BAS[ATNO][  7].a[  6] =       741.576771590000;     BAS[ATNO][  7].d[  6] =         0.011986734480;
  BAS[ATNO][  7].a[  7] =       307.209019060000;     BAS[ATNO][  7].d[  7] =         0.028820077630;
  BAS[ATNO][  7].a[  8] =       133.527862030000;     BAS[ATNO][  7].d[  8] =         0.054799166782;
  BAS[ATNO][  7].a[  9] =        60.253381291000;     BAS[ATNO][  7].d[  9] =         0.069440623698;
  BAS[ATNO][  7].a[ 10] =       522.024262060000;     BAS[ATNO][  7].d[ 10] =         0.048112256952;
  BAS[ATNO][  7].a[ 11] =       161.512904690000;     BAS[ATNO][  7].d[ 11] =         0.437936441707;
  BAS[ATNO][  7].a[ 12] =        62.126369433000;     BAS[ATNO][  7].d[ 12] =         1.701173167164;
  BAS[ATNO][  7].a[ 13] =        27.590930012000;     BAS[ATNO][  7].d[ 13] =        -6.163421940941;
  BAS[ATNO][  7].a[ 14] =        11.175528881000;     BAS[ATNO][  7].d[ 14] =         8.663814511918;
  BAS[ATNO][  7].a[ 15] =         5.295906513700;     BAS[ATNO][  7].d[ 15] =        -7.806290552378;
  BAS[ATNO][  7].a[ 16] =         2.478279889500;     BAS[ATNO][  7].d[ 16] =         4.354767067550;
  BAS[ATNO][  7].a[ 17] =         0.912620950600;     BAS[ATNO][  7].d[ 17] =        -2.012793987150;
  BAS[ATNO][  7].a[ 18] =         0.404260675500;     BAS[ATNO][  7].d[ 18] =         1.029326243959;
  BAS[ATNO][  7].a[ 19] =         0.165628863100;     BAS[ATNO][  7].d[ 19] =        -0.273731651338;

  // Basis function   9 L = s
  InitBFNGauss(BAS[ATNO][  8]);
  BAS[ATNO][  8].l  = 0;
  BAS[ATNO][  8].ng = 20;
  BAS[ATNO][  8].a[  0] =   1673421.949400000041;     BAS[ATNO][  8].d[  0] =        -0.000082120352;
  BAS[ATNO][  8].a[  1] =    250601.753729999997;     BAS[ATNO][  8].d[  1] =        -0.000638416000;
  BAS[ATNO][  8].a[  2] =     57030.912120000001;     BAS[ATNO][  8].d[  2] =        -0.003356203137;
  BAS[ATNO][  8].a[  3] =     16153.303915000000;     BAS[ATNO][  8].d[  3] =        -0.014139867880;
  BAS[ATNO][  8].a[  4] =      5269.410928800000;     BAS[ATNO][  8].d[  4] =        -0.051110934409;
  BAS[ATNO][  8].a[  5] =      1902.031554100000;     BAS[ATNO][  8].d[  5] =        -0.162926808702;
  BAS[ATNO][  8].a[  6] =       741.576771590000;     BAS[ATNO][  8].d[  6] =        -0.458636087371;
  BAS[ATNO][  8].a[  7] =       307.209019060000;     BAS[ATNO][  8].d[  7] =        -1.102712975257;
  BAS[ATNO][  8].a[  8] =       133.527862030000;     BAS[ATNO][  8].d[  8] =        -2.096724131661;
  BAS[ATNO][  8].a[  9] =        60.253381291000;     BAS[ATNO][  8].d[  9] =        -2.656935131946;
  BAS[ATNO][  8].a[ 10] =       522.024262060000;     BAS[ATNO][  8].d[ 10] =         0.195288257355;
  BAS[ATNO][  8].a[ 11] =       161.512904690000;     BAS[ATNO][  8].d[ 11] =         1.777589536435;
  BAS[ATNO][  8].a[ 12] =        62.126369433000;     BAS[ATNO][  8].d[ 12] =         6.905083326319;
  BAS[ATNO][  8].a[ 13] =        27.590930012000;     BAS[ATNO][  8].d[ 13] =        -5.355940684389;
  BAS[ATNO][  8].a[ 14] =        11.175528881000;     BAS[ATNO][  8].d[ 14] =         4.995916581792;
  BAS[ATNO][  8].a[ 15] =         5.295906513700;     BAS[ATNO][  8].d[ 15] =        -3.986027465238;
  BAS[ATNO][  8].a[ 16] =         2.478279889500;     BAS[ATNO][  8].d[ 16] =         2.153273484571;
  BAS[ATNO][  8].a[ 17] =         0.912620950600;     BAS[ATNO][  8].d[ 17] =        -0.996070222894;
  BAS[ATNO][  8].a[ 18] =         0.404260675500;     BAS[ATNO][  8].d[ 18] =         0.511857445861;
  BAS[ATNO][  8].a[ 19] =         0.165628863100;     BAS[ATNO][  8].d[ 19] =        -0.136496849195;

  // Basis function  10 L = p
  InitBFNGauss(BAS[ATNO][  9]);
  BAS[ATNO][  9].l  = 1;
  BAS[ATNO][  9].ng = 14;
  BAS[ATNO][  9].a[  0] =      2868.450458100000;     BAS[ATNO][  9].d[  0] =         0.000320603815;
  BAS[ATNO][  9].a[  1] =       679.718695900000;     BAS[ATNO][  9].d[  1] =         0.002791350388;
  BAS[ATNO][  9].a[  2] =       220.367588240000;     BAS[ATNO][  9].d[  2] =         0.015181089300;
  BAS[ATNO][  9].a[  3] =        83.620439734000;     BAS[ATNO][  9].d[  3] =         0.059956190919;
  BAS[ATNO][  9].a[  4] =        34.964322657000;     BAS[ATNO][  9].d[  4] =         0.176751569636;
  BAS[ATNO][  9].a[  5] =        15.525131784000;     BAS[ATNO][  9].d[  5] =         0.369993223952;
  BAS[ATNO][  9].a[  6] =         7.099297980600;     BAS[ATNO][  9].d[  6] =         0.515600263080;
  BAS[ATNO][  9].a[  7] =         3.302133660200;     BAS[ATNO][  9].d[  7] =         0.380457024887;
  BAS[ATNO][  9].a[  8] =       128.787656670000;     BAS[ATNO][  9].d[  8] =         0.008714356154;
  BAS[ATNO][  9].a[  9] =         8.435786797700;     BAS[ATNO][  9].d[  9] =        -0.183092193805;
  BAS[ATNO][  9].a[ 10] =         1.461866185500;     BAS[ATNO][  9].d[ 10] =        -0.341810012654;
  BAS[ATNO][  9].a[ 11] =         0.646580101000;     BAS[ATNO][  9].d[ 11] =         0.245880369002;
  BAS[ATNO][  9].a[ 12] =         0.272292957500;     BAS[ATNO][  9].d[ 12] =        -0.120653876024;
  BAS[ATNO][  9].a[ 13] =         0.109051824500;     BAS[ATNO][  9].d[ 13] =         0.036451489875;

  // Basis function  11 L = p
  InitBFNGauss(BAS[ATNO][ 10]);
  BAS[ATNO][ 10].l  = 1;
  BAS[ATNO][ 10].ng = 14;
  BAS[ATNO][ 10].a[  0] =      2868.450458100000;     BAS[ATNO][ 10].d[  0] =        -0.000172421584;
  BAS[ATNO][ 10].a[  1] =       679.718695900000;     BAS[ATNO][ 10].d[  1] =        -0.001501195659;
  BAS[ATNO][ 10].a[  2] =       220.367588240000;     BAS[ATNO][ 10].d[  2] =        -0.008164430184;
  BAS[ATNO][ 10].a[  3] =        83.620439734000;     BAS[ATNO][ 10].d[  3] =        -0.032244598868;
  BAS[ATNO][ 10].a[  4] =        34.964322657000;     BAS[ATNO][ 10].d[  4] =        -0.095057464040;
  BAS[ATNO][ 10].a[  5] =        15.525131784000;     BAS[ATNO][ 10].d[  5] =        -0.198983339459;
  BAS[ATNO][ 10].a[  6] =         7.099297980600;     BAS[ATNO][ 10].d[  6] =        -0.277291192194;
  BAS[ATNO][ 10].a[  7] =         3.302133660200;     BAS[ATNO][ 10].d[  7] =        -0.204610799419;
  BAS[ATNO][ 10].a[  8] =       128.787656670000;     BAS[ATNO][ 10].d[  8] =        -0.007548577512;
  BAS[ATNO][ 10].a[  9] =         8.435786797700;     BAS[ATNO][ 10].d[  9] =         0.158598706819;
  BAS[ATNO][ 10].a[ 10] =         1.461866185500;     BAS[ATNO][ 10].d[ 10] =         1.526601814672;
  BAS[ATNO][ 10].a[ 11] =         0.646580101000;     BAS[ATNO][ 10].d[ 11] =        -0.530724880637;
  BAS[ATNO][ 10].a[ 12] =         0.272292957500;     BAS[ATNO][ 10].d[ 12] =         0.272799187004;
  BAS[ATNO][ 10].a[ 13] =         0.109051824500;     BAS[ATNO][ 10].d[ 13] =        -0.081444471808;

  // Basis function  12 L = p
  InitBFNGauss(BAS[ATNO][ 11]);
  BAS[ATNO][ 11].l  = 1;
  BAS[ATNO][ 11].ng = 14;
  BAS[ATNO][ 11].a[  0] =      2868.450458100000;     BAS[ATNO][ 11].d[  0] =         0.000100578745;
  BAS[ATNO][ 11].a[  1] =       679.718695900000;     BAS[ATNO][ 11].d[  1] =         0.000875693005;
  BAS[ATNO][ 11].a[  2] =       220.367588240000;     BAS[ATNO][ 11].d[  2] =         0.004762560001;
  BAS[ATNO][ 11].a[  3] =        83.620439734000;     BAS[ATNO][ 11].d[  3] =         0.018809253474;
  BAS[ATNO][ 11].a[  4] =        34.964322657000;     BAS[ATNO][ 11].d[  4] =         0.055449904744;
  BAS[ATNO][ 11].a[  5] =        15.525131784000;     BAS[ATNO][ 11].d[  5] =         0.116073023092;
  BAS[ATNO][ 11].a[  6] =         7.099297980600;     BAS[ATNO][ 11].d[  6] =         0.161752371039;
  BAS[ATNO][ 11].a[  7] =         3.302133660200;     BAS[ATNO][ 11].d[  7] =         0.119355691338;
  BAS[ATNO][ 11].a[  8] =       128.787656670000;     BAS[ATNO][ 11].d[  8] =         0.005466545031;
  BAS[ATNO][ 11].a[  9] =         8.435786797700;     BAS[ATNO][ 11].d[  9] =        -0.114854351206;
  BAS[ATNO][ 11].a[ 10] =         1.461866185500;     BAS[ATNO][ 11].d[ 10] =        -1.632214701926;
  BAS[ATNO][ 11].a[ 11] =         0.646580101000;     BAS[ATNO][ 11].d[ 11] =         2.002423816413;
  BAS[ATNO][ 11].a[ 12] =         0.272292957500;     BAS[ATNO][ 11].d[ 12] =        -0.189292432385;
  BAS[ATNO][ 11].a[ 13] =         0.109051824500;     BAS[ATNO][ 11].d[ 13] =         0.079319554901;

  // Basis function  13 L = p
  InitBFNGauss(BAS[ATNO][ 12]);
  BAS[ATNO][ 12].l  = 1;
  BAS[ATNO][ 12].ng = 14;
  BAS[ATNO][ 12].a[  0] =      2868.450458100000;     BAS[ATNO][ 12].d[  0] =         0.000062743830;
  BAS[ATNO][ 12].a[  1] =       679.718695900000;     BAS[ATNO][ 12].d[  1] =         0.000546281756;
  BAS[ATNO][ 12].a[  2] =       220.367588240000;     BAS[ATNO][ 12].d[  2] =         0.002971017957;
  BAS[ATNO][ 12].a[  3] =        83.620439734000;     BAS[ATNO][ 12].d[  3] =         0.011733737699;
  BAS[ATNO][ 12].a[  4] =        34.964322657000;     BAS[ATNO][ 12].d[  4] =         0.034591199411;
  BAS[ATNO][ 12].a[  5] =        15.525131784000;     BAS[ATNO][ 12].d[  5] =         0.072409593967;
  BAS[ATNO][ 12].a[  6] =         7.099297980600;     BAS[ATNO][ 12].d[  6] =         0.100905647136;
  BAS[ATNO][ 12].a[  7] =         3.302133660200;     BAS[ATNO][ 12].d[  7] =         0.074457414110;
  BAS[ATNO][ 12].a[  8] =       128.787656670000;     BAS[ATNO][ 12].d[  8] =         0.003778929413;
  BAS[ATNO][ 12].a[  9] =         8.435786797700;     BAS[ATNO][ 12].d[  9] =        -0.079396855516;
  BAS[ATNO][ 12].a[ 10] =         1.461866185500;     BAS[ATNO][ 12].d[ 10] =        -1.336262159861;
  BAS[ATNO][ 12].a[ 11] =         0.646580101000;     BAS[ATNO][ 12].d[ 11] =         2.760969891391;
  BAS[ATNO][ 12].a[ 12] =         0.272292957500;     BAS[ATNO][ 12].d[ 12] =        -2.165901348952;
  BAS[ATNO][ 12].a[ 13] =         0.109051824500;     BAS[ATNO][ 12].d[ 13] =         0.078496818889;

  // Basis function  14 L = p
  InitBFNGauss(BAS[ATNO][ 13]);
  BAS[ATNO][ 13].l  = 1;
  BAS[ATNO][ 13].ng = 14;
  BAS[ATNO][ 13].a[  0] =      2868.450458100000;     BAS[ATNO][ 13].d[  0] =        -0.000034068224;
  BAS[ATNO][ 13].a[  1] =       679.718695900000;     BAS[ATNO][ 13].d[  1] =        -0.000296616400;
  BAS[ATNO][ 13].a[  2] =       220.367588240000;     BAS[ATNO][ 13].d[  2] =        -0.001613183379;
  BAS[ATNO][ 13].a[  3] =        83.620439734000;     BAS[ATNO][ 13].d[  3] =        -0.006371106103;
  BAS[ATNO][ 13].a[  4] =        34.964322657000;     BAS[ATNO][ 13].d[  4] =        -0.018782097173;
  BAS[ATNO][ 13].a[  5] =        15.525131784000;     BAS[ATNO][ 13].d[  5] =        -0.039316475096;
  BAS[ATNO][ 13].a[  6] =         7.099297980600;     BAS[ATNO][ 13].d[  6] =        -0.054789070692;
  BAS[ATNO][ 13].a[  7] =         3.302133660200;     BAS[ATNO][ 13].d[  7] =        -0.040428386726;
  BAS[ATNO][ 13].a[  8] =       128.787656670000;     BAS[ATNO][ 13].d[  8] =        -0.002173925820;
  BAS[ATNO][ 13].a[  9] =         8.435786797700;     BAS[ATNO][ 13].d[  9] =         0.045675072312;
  BAS[ATNO][ 13].a[ 10] =         1.461866185500;     BAS[ATNO][ 13].d[ 10] =         0.809070783826;
  BAS[ATNO][ 13].a[ 11] =         0.646580101000;     BAS[ATNO][ 13].d[ 11] =        -2.093890547532;
  BAS[ATNO][ 13].a[ 12] =         0.272292957500;     BAS[ATNO][ 13].d[ 12] =         2.883808861550;
  BAS[ATNO][ 13].a[ 13] =         0.109051824500;     BAS[ATNO][ 13].d[ 13] =        -2.025654399702;

  // Basis function  15 L = p
  InitBFNGauss(BAS[ATNO][ 14]);
  BAS[ATNO][ 14].l  = 1;
  BAS[ATNO][ 14].ng = 14;
  BAS[ATNO][ 14].a[  0] =      2868.450458100000;     BAS[ATNO][ 14].d[  0] =        -0.000945907383;
  BAS[ATNO][ 14].a[  1] =       679.718695900000;     BAS[ATNO][ 14].d[  1] =        -0.008235581795;
  BAS[ATNO][ 14].a[  2] =       220.367588240000;     BAS[ATNO][ 14].d[  2] =        -0.044790185854;
  BAS[ATNO][ 14].a[  3] =        83.620439734000;     BAS[ATNO][ 14].d[  3] =        -0.176894350674;
  BAS[ATNO][ 14].a[  4] =        34.964322657000;     BAS[ATNO][ 14].d[  4] =        -0.521486666553;
  BAS[ATNO][ 14].a[  5] =        15.525131784000;     BAS[ATNO][ 14].d[  5] =        -1.091625570302;
  BAS[ATNO][ 14].a[  6] =         7.099297980600;     BAS[ATNO][ 14].d[  6] =        -1.521223619235;
  BAS[ATNO][ 14].a[  7] =         3.302133660200;     BAS[ATNO][ 14].d[  7] =        -1.122497899642;
  BAS[ATNO][ 14].a[  8] =       128.787656670000;     BAS[ATNO][ 14].d[  8] =        -0.182670851741;
  BAS[ATNO][ 14].a[  9] =         8.435786797700;     BAS[ATNO][ 14].d[  9] =         3.837989450875;
  BAS[ATNO][ 14].a[ 10] =         1.461866185500;     BAS[ATNO][ 14].d[ 10] =         0.303193037851;
  BAS[ATNO][ 14].a[ 11] =         0.646580101000;     BAS[ATNO][ 14].d[ 11] =         0.100913812695;
  BAS[ATNO][ 14].a[ 12] =         0.272292957500;     BAS[ATNO][ 14].d[ 12] =        -0.117881722630;
  BAS[ATNO][ 14].a[ 13] =         0.109051824500;     BAS[ATNO][ 14].d[ 13] =         0.044323265386;

  // Basis function  16 L = d
  InitBFNGauss(BAS[ATNO][ 15]);
  BAS[ATNO][ 15].l  = 2;
  BAS[ATNO][ 15].ng = 4;
  BAS[ATNO][ 15].a[  0] =         6.315000000000;     BAS[ATNO][ 15].d[  0] =         0.620498647719;
  BAS[ATNO][ 15].a[  1] =         1.562000000000;     BAS[ATNO][ 15].d[  1] =         0.655084435952;
  BAS[ATNO][ 15].a[  2] =         0.715000000000;     BAS[ATNO][ 15].d[  2] =        -0.194786451290;
  BAS[ATNO][ 15].a[  3] =         0.297000000000;     BAS[ATNO][ 15].d[  3] =         0.063839184028;

  // Basis function  17 L = d
  InitBFNGauss(BAS[ATNO][ 16]);
  BAS[ATNO][ 16].l  = 2;
  BAS[ATNO][ 16].ng = 4;
  BAS[ATNO][ 16].a[  0] =         6.315000000000;     BAS[ATNO][ 16].d[  0] =        -0.521480068205;
  BAS[ATNO][ 16].a[  1] =         1.562000000000;     BAS[ATNO][ 16].d[  1] =         0.030456791844;
  BAS[ATNO][ 16].a[  2] =         0.715000000000;     BAS[ATNO][ 16].d[  2] =         0.962711329559;
  BAS[ATNO][ 16].a[  3] =         0.297000000000;     BAS[ATNO][ 16].d[  3] =        -0.044063454043;

  // Basis function  18 L = d
  InitBFNGauss(BAS[ATNO][ 17]);
  BAS[ATNO][ 17].l  = 2;
  BAS[ATNO][ 17].ng = 4;
  BAS[ATNO][ 17].a[  0] =         6.315000000000;     BAS[ATNO][ 17].d[  0] =         0.423293503647;
  BAS[ATNO][ 17].a[  1] =         1.562000000000;     BAS[ATNO][ 17].d[  1] =        -0.482067755743;
  BAS[ATNO][ 17].a[  2] =         0.715000000000;     BAS[ATNO][ 17].d[  2] =        -0.410450462913;
  BAS[ATNO][ 17].a[  3] =         0.297000000000;     BAS[ATNO][ 17].d[  3] =         1.181916273820;

  // Basis function  19 L = d
  InitBFNGauss(BAS[ATNO][ 18]);
  BAS[ATNO][ 18].l  = 2;
  BAS[ATNO][ 18].ng = 4;
  BAS[ATNO][ 18].a[  0] =         6.315000000000;     BAS[ATNO][ 18].d[  0] =         0.778882113529;
  BAS[ATNO][ 18].a[  1] =         1.562000000000;     BAS[ATNO][ 18].d[  1] =        -1.960356009594;
  BAS[ATNO][ 18].a[  2] =         0.715000000000;     BAS[ATNO][ 18].d[  2] =         2.378205182566;
  BAS[ATNO][ 18].a[  3] =         0.297000000000;     BAS[ATNO][ 18].d[  3] =        -1.204842246541;

  // Basis function  20 L = f
  InitBFNGauss(BAS[ATNO][ 19]);
  BAS[ATNO][ 19].l  = 3;
  BAS[ATNO][ 19].ng = 2;
  BAS[ATNO][ 19].a[  0] =         0.543000000000;     BAS[ATNO][ 19].d[  0] =         0.135412317212;
  BAS[ATNO][ 19].a[  1] =         1.325000000000;     BAS[ATNO][ 19].d[  1] =         0.906892609993;

  // Basis function  21 L = f
  InitBFNGauss(BAS[ATNO][ 20]);
  BAS[ATNO][ 20].l  = 3;
  BAS[ATNO][ 20].ng = 2;
  BAS[ATNO][ 20].a[  0] =         0.543000000000;     BAS[ATNO][ 20].d[  0] =         1.306283012250;
  BAS[ATNO][ 20].a[  1] =         1.325000000000;     BAS[ATNO][ 20].d[  1] =        -0.949872411266;

  // Basis function  22 L = g
  InitBFNGauss(BAS[ATNO][ 21]);
  BAS[ATNO][ 21].l  = 4;
  BAS[ATNO][ 21].ng = 1;
  BAS[ATNO][ 21].a[  0] =         1.007000000000;     BAS[ATNO][ 21].d[  0] =         1.000000000000;

-------
TIMINGS
-------

Total SCF time: 0 days 0 hours 0 min 1 sec 

Total time                  ....       1.895 sec
Sum of individual times     ....       1.715 sec  ( 90.5%)

Fock matrix formation       ....       1.234 sec  ( 65.1%)
  XC integration            ....       0.031 sec  (  2.5% of F)
    Basis function eval.    ....       0.005 sec  ( 15.4% of XC)
    Density eval.           ....       0.002 sec  (  7.8% of XC)
    XC-Functional eval.     ....       0.002 sec  (  5.6% of XC)
    XC-Potential eval.      ....       0.004 sec  ( 11.9% of XC)
Diagonalization             ....       0.004 sec  (  0.2%)
Density matrix formation    ....       0.001 sec  (  0.1%)
Population analysis         ....       0.001 sec  (  0.1%)
Initial guess               ....       0.093 sec  (  4.9%)
Orbital Transformation      ....       0.000 sec  (  0.0%)
Orbital Orthonormalization  ....       0.000 sec  (  0.0%)
DIIS solution               ....       0.000 sec  (  0.0%)
SOSCF solution              ....       0.001 sec  (  0.1%)
Grid generation             ....       0.379 sec  ( 20.0%)

-------------------------   --------------------
FINAL SINGLE POINT ENERGY      -311.535297905185
-------------------------   --------------------


                            ***************************************
                            *     ORCA property calculations      *
                            ***************************************

                                    ---------------------
                                    Active property flags
                                    ---------------------
   (+) Dipole Moment


------------------------------------------------------------------------------
                       ORCA ELECTRIC PROPERTIES CALCULATION
------------------------------------------------------------------------------

Dipole Moment Calculation                       ... on
Quadrupole Moment Calculation                   ... off
Polarizability Calculation                      ... off
GBWName                                         ... Ar_def2-qzvpp_.gbw
Electron density file                           ... Ar_def2-qzvpp_.scfp
The origin for moment calculation is the CENTER OF MASS  = ( 0.000000,  0.000000  0.000000)

-------------
DIPOLE MOMENT
-------------
                                X             Y             Z
Electronic contribution:     -0.00000      -0.00000       0.00000
Nuclear contribution   :      0.00000       0.00000       0.00000
                        -----------------------------------------
Total Dipole Moment    :     -0.00000      -0.00000       0.00000
                        -----------------------------------------
Magnitude (a.u.)       :      0.00000
Magnitude (Debye)      :      0.00000



--------------------
Rotational spectrum 
--------------------
 
Rotational constants in cm-1:     0.000000     0.000000     0.000000 
Rotational constants in MHz :     0.000000     0.000000     0.000000 

 Dipole components along the rotational axes: 
x,y,z [a.u.] :    -0.000000    -0.000000     0.000000 
x,y,z [Debye]:    -0.000000    -0.000000     0.000000 

 

Timings for individual modules:

Sum of individual times         ...        2.646 sec (=   0.044 min)
GTO integral calculation        ...        0.517 sec (=   0.009 min)  19.5 %
SCF iterations                  ...        2.129 sec (=   0.035 min)  80.5 %
                             ****ORCA TERMINATED NORMALLY****
TOTAL RUN TIME: 0 days 0 hours 0 minutes 2 seconds 982 msec
