
                                 *****************
                                 * O   R   C   A *
                                 *****************

           --- An Ab Initio, DFT and Semiempirical electronic structure package ---

                  #######################################################
                  #                        -***-                        #
                  #          Department of theory and spectroscopy      #
                  #               Directorship: Frank Neese             #
                  #        Max Planck Institute fuer Kohlenforschung    #
                  #                Kaiser Wilhelm Platz 1               #
                  #                 D-45470 Muelheim/Ruhr               #
                  #                      Germany                        #
                  #                                                     #
                  #                  All rights reserved                #
                  #                        -***-                        #
                  #######################################################


                         Program Version 4.2.1 -  RELEASE  -


 With contributions from (in alphabetic order):
   Daniel Aravena         : Magnetic Suceptibility
   Michael Atanasov       : Ab Initio Ligand Field Theory (pilot matlab implementation)
   Alexander A. Auer      : GIAO ZORA, VPT2
   Ute Becker             : Parallelization
   Giovanni Bistoni       : ED, misc. LED, open-shell LED, HFLD
   Martin Brehm           : Molecular dynamics
   Dmytro Bykov           : SCF Hessian
   Vijay G. Chilkuri      : MRCI spin determinant printing, contributions to CSF-ICE
   Dipayan Datta          : RHF DLPNO-CCSD density
   Achintya Kumar Dutta   : EOM-CC, STEOM-CC
   Dmitry Ganyushin       : Spin-Orbit,Spin-Spin,Magnetic field MRCI
   Miquel Garcia          : C-PCM Hessian, Gaussian charge scheme
   Yang Guo               : DLPNO-NEVPT2, CIM, IAO-localization
   Andreas Hansen         : Spin unrestricted coupled pair/coupled cluster methods
   Benjamin Helmich-Paris : CASSCF linear response (MC-RPA)
   Lee Huntington         : MR-EOM, pCC
   Robert Izsak           : Overlap fitted RIJCOSX, COSX-SCS-MP3, EOM
   Christian Kollmar      : KDIIS, OOCD, Brueckner-CCSD(T), CCSD density
   Simone Kossmann        : Meta GGA functionals, TD-DFT gradient, OOMP2, MP2 Hessian
   Martin Krupicka        : AUTO-CI
   Lucas Lang             : DCDCAS
   Dagmar Lenk            : GEPOL surface, SMD
   Dimitrios Liakos       : Extrapolation schemes; Compound Job, initial MDCI parallelization
   Dimitrios Manganas     : Further ROCIS development; embedding schemes
   Dimitrios Pantazis     : SARC Basis sets
   Taras Petrenko         : DFT Hessian,TD-DFT gradient, ASA, ECA, R-Raman, ABS, FL, XAS/XES, NRVS
   Peter Pinski           : DLPNO-MP2, DLPNO-MP2 Gradient
   Christoph Reimann      : Effective Core Potentials
   Marius Retegan         : Local ZFS, SOC
   Christoph Riplinger    : Optimizer, TS searches, QM/MM, DLPNO-CCSD(T), (RO)-DLPNO pert. Triples
   Tobias Risthaus        : Range-separated hybrids, TD-DFT gradient, RPA, STAB
   Michael Roemelt        : Original ROCIS implementation
   Masaaki Saitow         : Open-shell DLPNO-CCSD energy and density
   Barbara Sandhoefer     : DKH picture change effects
   Avijit Sen             : IP-ROCIS
   Kantharuban Sivalingam : CASSCF convergence, NEVPT2, FIC-MRCI
   Bernardo de Souza      : ESD, SOC TD-DFT
   Georgi Stoychev        : AutoAux, RI-MP2 NMR
   Willem Van den Heuvel  : Paramagnetic NMR
   Boris Wezisla          : Elementary symmetry handling
   Frank Wennmohs         : Technical directorship


 We gratefully acknowledge several colleagues who have allowed us to
 interface, adapt or use parts of their codes:
   Stefan Grimme, W. Hujo, H. Kruse,             : VdW corrections, initial TS optimization,
                  C. Bannwarth                     DFT functionals, gCP, sTDA/sTD-DF
   Ed Valeev, F. Pavosevic, A. Kumar             : LibInt (2-el integral package), F12 methods
   Garnet Chan, S. Sharma, J. Yang, R. Olivares  : DMRG
   Ulf Ekstrom                                   : XCFun DFT Library
   Mihaly Kallay                                 : mrcc  (arbitrary order and MRCC methods)
   Andreas Klamt, Michael Diedenhofen            : otool_cosmo (COSMO solvation model)
   Jiri Pittner, Ondrej Demel                    : Mk-CCSD
   Frank Weinhold                                : gennbo (NPA and NBO analysis)
   Christopher J. Cramer and Donald G. Truhlar   : smd solvation model
   Lars Goerigk                                  : TD-DFT with DH, B97 family of functionals
   V. Asgeirsson, H. Jonsson                     : NEB implementation
   FAccTs GmbH                                   : IRC, NEB, NEB-TS, Multilevel, MM, QM/MM, CI optimization
   S Lehtola, MJT Oliveira, MAL Marques          : LibXC Library


 Your calculation uses the libint2 library for the computation of 2-el integrals
 For citations please refer to: http://libint.valeyev.net

 Your ORCA version has been built with support for libXC version: 4.2.3
 For citations please refer to: https://tddft.org/programs/libxc/

 This ORCA versions uses:
   CBLAS   interface :  Fast vector & matrix operations
   LAPACKE interface :  Fast linear algebra routines
   SCALAPACK package :  Parallel linear algebra routines


----- Orbital basis set information -----
Your calculation utilizes the basis: pc-3
   H, C-F              : F. Jensen, J. Chem. Phys. 115, 9113 (2001).
                         F. Jensen, J. Chem. Phys. 116, 7372 (2002).
                         F. Jensen, J. Chem. Phys. 117, 9234 (2002).
   Si-Cl               : F. Jensen, T. Helgaker, J. Chem. Phys. 121, 3463 (2004).
   He-B, Ne-Mg, Al, Ar : F. Jensen, J. Phys. Chem. A 111, 11198 (2007).
   K, Ca, Ga-Kr        : F. Jensen, J. Chem. Phys. 136, 094110 (2012).
   Sc-Zn               : F. Jensen, J. Chem. Phys. 138, 014107 (2013).

================================================================================
                                        WARNINGS
                       Please study these warnings very carefully!
================================================================================


INFO   : the flag for use of LIBINT has been found!

================================================================================
                                       INPUT FILE
================================================================================
NAME = Ar_pc-3_.inp
|  1> ! LDA pc-3 nori grid5 finalgrid6 verytightscf
|  2> %Pal NProcs 18 End
|  3> 
|  4> *xyz 16 1
|  5> Ar 0.0 0.0 0.0
|  6> **                         ****END OF INPUT****
================================================================================

                       ****************************
                       * Single Point Calculation *
                       ****************************

---------------------------------
CARTESIAN COORDINATES (ANGSTROEM)
---------------------------------
  Ar     0.000000    0.000000    0.000000

----------------------------
CARTESIAN COORDINATES (A.U.)
----------------------------
  NO LB      ZA    FRAG     MASS         X           Y           Z
   0 Ar   18.0000    0    39.948    0.000000    0.000000    0.000000

--------------------------------
INTERNAL COORDINATES (ANGSTROEM)
--------------------------------
 Ar     0   0   0     0.000000000000     0.00000000     0.00000000

---------------------------
INTERNAL COORDINATES (A.U.)
---------------------------
 Ar     0   0   0     0.000000000000     0.00000000     0.00000000

---------------------
BASIS SET INFORMATION
---------------------
There are 1 groups of distinct atoms

 Group   1 Type Ar  : 35s21p4d2f1g contracted to 6s5p4d2f1g pattern {121010111/99111/1111/11/1}

Atom   0Ar   basis set group =>   1


           ************************************************************
           *        Program running with 18 parallel MPI-processes    *
           *              working on a common directory               *
           ************************************************************
------------------------------------------------------------------------------
                           ORCA GTO INTEGRAL CALCULATION
------------------------------------------------------------------------------

                         BASIS SET STATISTICS AND STARTUP INFO

 # of primitive gaussian shells          ...   63
 # of primitive gaussian functions       ...  141
 # of contracted shells                  ...   18
 # of contracted basis functions         ...   64
 Highest angular momentum                ...    4
 Maximum contraction depth               ...   12
 Integral package used                   ... LIBINT
 Integral threshhold            Thresh   ...  1.000e-12
 Primitive cut-off              TCut     ...  1.000e-14


------------------------------ INTEGRAL EVALUATION ----------------------------


 * One electron integrals 
 Pre-screening matrix                    ... done
 Shell pair data                         ... done (   0.000 sec)



           ************************************************************
           *        Program running with 18 parallel MPI-processes    *
           *              working on a common directory               *
           ************************************************************
-------------------------------------------------------------------------------
                                 ORCA SCF
-------------------------------------------------------------------------------

------------
SCF SETTINGS
------------
Hamiltonian:
 Density Functional     Method          .... DFT(GTOs)
 Exchange Functional    Exchange        .... Slater
   X-Alpha parameter    XAlpha          ....  0.666667
 Correlation Functional Correlation     .... VWN-5
 Gradients option       PostSCFGGA      .... off
   Density functional embedding theory  .... OFF


General Settings:
 Integral files         IntName         .... Ar_pc-3_
 Hartree-Fock type      HFTyp           .... RHF
 Total Charge           Charge          ....   16
 Multiplicity           Mult            ....    1
 Number of Electrons    NEL             ....    2
 Basis Dimension        Dim             ....   64
 Nuclear Repulsion      ENuc            ....      0.0000000000 Eh

Convergence Acceleration:
 DIIS                   CNVDIIS         .... on
   Start iteration      DIISMaxIt       ....    12
   Startup error        DIISStart       ....  0.200000
   # of expansion vecs  DIISMaxEq       ....     5
   Bias factor          DIISBfac        ....   1.050
   Max. coefficient     DIISMaxC        ....  10.000
 Newton-Raphson         CNVNR           .... off
 SOSCF                  CNVSOSCF        .... on
   Start iteration      SOSCFMaxIt      ....   150
   Startup grad/error   SOSCFStart      ....  0.003300
 Level Shifting         CNVShift        .... on
   Level shift para.    LevelShift      ....    0.2500
   Turn off err/grad.   ShiftErr        ....    0.0010
 Zerner damping         CNVZerner       .... off
 Static damping         CNVDamp         .... on
   Fraction old density DampFac         ....    0.7000
   Max. Damping (<1)    DampMax         ....    0.9800
   Min. Damping (>=0)   DampMin         ....    0.0000
   Turn off err/grad.   DampErr         ....    0.1000
 Fernandez-Rico         CNVRico         .... off

SCF Procedure:
 Maximum # iterations   MaxIter         ....   125
 SCF integral mode      SCFMode         .... Direct
   Integral package                     .... LIBINT
 Reset frequency        DirectResetFreq ....    20
 Integral Threshold     Thresh          ....  1.000e-12 Eh
 Primitive CutOff       TCut            ....  1.000e-14 Eh

Convergence Tolerance:
 Convergence Check Mode ConvCheckMode   .... Total+1el-Energy
 Convergence forced     ConvForced      .... 0
 Energy Change          TolE            ....  1.000e-09 Eh
 1-El. energy change                    ....  1.000e-06 Eh
 Orbital Gradient       TolG            ....  2.000e-06
 Orbital Rotation angle TolX            ....  2.000e-06
 DIIS Error             TolErr          ....  1.000e-08


Diagonalization of the overlap matrix:
Smallest eigenvalue                        ... 4.993e-03
Time for diagonalization                   ...    0.001 sec
Threshold for overlap eigenvalues          ... 1.000e-08
Number of eigenvalues below threshold      ... 0
Time for construction of square roots      ...    0.001 sec
Total time needed                          ...    0.003 sec

-------------------
DFT GRID GENERATION
-------------------

General Integration Accuracy     IntAcc      ...  5.010
Radial Grid Type                 RadialGrid  ... Gauss-Chebyshev
Angular Grid (max. acc.)         AngularGrid ... Lebedev-434
Angular grid pruning method      GridPruning ... 3 (G Style)
Weight generation scheme         WeightScheme... Becke
Basis function cutoff            BFCut       ...    1.0000e-12
Integration weight cutoff        WCut        ...    1.0000e-14
Grids for H and He will be reduced by one unit

# of grid points (after initial pruning)     ...  11992 (   0.0 sec)
# of grid points (after weights+screening)   ...  11992 (   0.0 sec)
Grid point division into batches done        ...    0.1 sec
Reduced shell lists constructed in    0.1 sec

Total number of grid points                  ...    11992
Total number of batches                      ...      188
Average number of points per batch           ...       63
Average number of grid points per atom       ...    11992
Average number of shells per batch           ...     0.92 ( 5.09%)
Average number of basis functions per batch  ...     2.75 ( 4.30%)
Average number of large shells per batch     ...     0.92 (100.00%)
Average number of large basis fcns per batch ...     2.75 (100.00%)
Maximum spatial batch extension              ...  18.71, 18.71, 18.71 au
Average spatial batch extension              ...   0.97,  0.98,  0.97 au

Time for grid setup =    0.148 sec

------------------------------
INITIAL GUESS: MODEL POTENTIAL
------------------------------
Loading Hartree-Fock densities                     ... done
Calculating cut-offs                               ... done
Setting up the integral package                    ... done
Initializing the effective Hamiltonian             ... done
Starting the Coulomb interaction                   ... done (   0.0 sec)
Reading the grid                                   ... done
Mapping shells                                     ... done
Starting the XC term evaluation                    ... done (   0.0 sec)
  promolecular density results
     # of electrons  =     17.999998971
     EX              =    -27.869847309
     EC              =     -1.431662733
     EX+EC           =    -29.301510042
Transforming the Hamiltonian                       ... done (   0.0 sec)
Diagonalizing the Hamiltonian                      ... done (   0.0 sec)
Back transforming the eigenvectors                 ... done (   0.0 sec)
Now organizing SCF variables                       ... done
                      ------------------
                      INITIAL GUESS DONE (   0.2 sec)
                      ------------------
--------------
SCF ITERATIONS
--------------
ITER       Energy         Delta-E        Max-DP      RMS-DP      [F,P]     Damp
               ***  Starting incremental Fock matrix formation  ***
  0   -311.5092047342   0.000000000000 0.01339984  0.00025356  2.0339901 0.7000
                      *** Initiating the SOSCF procedure ***
                      *** Re-Reading the Fockian *** 
                      *** Removing any level shift *** 
ITER      Energy       Delta-E        Grad      Rot      Max-DP    RMS-DP
  1   -311.51563205  -0.0064273202  0.000542  0.000542  0.031311  0.000593
               *** Restarting incremental Fock matrix formation ***
  2   -311.53052781  -0.0148957526  0.004938  0.000044  0.000108  0.000003
  3   -311.53052830  -0.0000004912  0.000034  0.000000  0.000001  0.000000
                 **** Energy Check signals convergence ****
              ***Rediagonalizing the Fockian in SOSCF/NRSCF***

               *****************************************************
               *                     SUCCESS                       *
               *           SCF CONVERGED AFTER   4 CYCLES          *
               *****************************************************

Setting up the final grid:

General Integration Accuracy     IntAcc      ...  5.340
Radial Grid Type                 RadialGrid  ... Gauss-Chebyshev
Angular Grid (max. acc.)         AngularGrid ... Lebedev-590
Angular grid pruning method      GridPruning ... 3 (G Style)
Weight generation scheme         WeightScheme... Becke
Basis function cutoff            BFCut       ...    1.0000e-12
Integration weight cutoff        WCut        ...    1.0000e-14
Grids for H and He will be reduced by one unit

# of grid points (after initial pruning)     ...  18110 (   0.0 sec)
# of grid points (after weights+screening)   ...  18110 (   0.0 sec)
Grid point division into batches done        ...    0.2 sec
Reduced shell lists constructed in    0.2 sec

Total number of grid points                  ...    18110
Total number of batches                      ...      283
Average number of points per batch           ...       63
Average number of grid points per atom       ...    18110
Average number of shells per batch           ...     0.00 ( 0.00%)
Average number of basis functions per batch  ...     0.00 ( 0.00%)
Average number of large shells per batch     ...     0.00 ( -nan%)
Average number of large basis fcns per batch ...     0.00 ( -nan%)
Maximum spatial batch extension              ...  19.03, 19.03, 19.03 au
Average spatial batch extension              ...   0.84,  0.84,  0.80 au

Final grid set up in    0.2 sec
Final integration                            ... done (   0.0 sec)
Change in XC energy                          ...    -0.000000958
Integrated number of electrons               ...     2.000000011
Previous integrated no of electrons          ...     1.999999894

----------------
TOTAL SCF ENERGY
----------------

Total Energy       :         -311.53052926 Eh           -8477.17667 eV

Components:
Nuclear Repulsion  :            0.00000000 Eh               0.00000 eV
Electronic Energy  :         -311.53052926 Eh           -8477.17667 eV
One Electron Energy:         -323.80900084 Eh           -8811.29087 eV
Two Electron Energy:           12.27847158 Eh             334.11420 eV

Virial components:
Potential Energy   :         -621.23833448 Eh          -16904.75450 eV
Kinetic Energy     :          309.70780522 Eh            8427.57783 eV
Virial Ratio       :            2.00588530


DFT components:
N(Alpha)           :        1.000000005425 electrons
N(Beta)            :        1.000000005425 electrons
N(Total)           :        2.000000010850 electrons
E(X)               :       -9.405832323081 Eh       
E(C)               :       -0.236736196019 Eh       
E(XC)              :       -9.642568519099 Eh       
DFET-embed. en.    :        0.000000000000 Eh       

---------------
SCF CONVERGENCE
---------------

  Last Energy change         ...   -2.2851e-11  Tolerance :   1.0000e-09
  Last MAX-Density change    ...    0.0000e+00  Tolerance :   1.0000e-08
  Last RMS-Density change    ...    0.0000e+00  Tolerance :   1.0000e-09
  Last Orbital Gradient      ...    1.1382e-10  Tolerance :   2.0000e-06
  Last Orbital Rotation      ...    0.0000e+00  Tolerance :   2.0000e-06

================================================================================
                                        WARNING
Number of found core electrons (2) does not match given number of chemical core electrons (10)
================================================================================
             **** THE GBW FILE WAS UPDATED (Ar_pc-3_.gbw) ****
             **** DENSITY FILE WAS UPDATED (Ar_pc-3_.scfp) ****
             **** ENERGY FILE WAS UPDATED (Ar_pc-3_.en.tmp) ****
             **** THE GBW FILE WAS UPDATED (Ar_pc-3_.gbw) ****
             **** DENSITY FILE WAS UPDATED (Ar_pc-3_.scfp) ****
----------------
ORBITAL ENERGIES
----------------

  NO   OCC          E(Eh)            E(eV) 
   0   2.0000    -146.381932     -3983.2549 
   1   0.0000     -33.907170      -922.6610 
   2   0.0000     -32.827443      -893.2801 
   3   0.0000     -32.827443      -893.2801 
   4   0.0000     -32.827443      -893.2801 
   5   0.0000     -14.231806      -387.2671 
   6   0.0000     -14.207714      -386.6116 
   7   0.0000     -14.207714      -386.6116 
   8   0.0000     -14.207714      -386.6116 
   9   0.0000     -14.207714      -386.6116 
  10   0.0000     -14.207714      -386.6116 
  11   0.0000     -13.687022      -372.4428 
  12   0.0000     -13.687022      -372.4428 
  13   0.0000     -13.687022      -372.4428 
  14   0.0000      -7.886175      -214.5937 
  15   0.0000      -7.886175      -214.5937 
  16   0.0000      -7.886175      -214.5937 
  17   0.0000      -7.886175      -214.5937 
  18   0.0000      -7.886175      -214.5937 
  19   0.0000      -7.787631      -211.9122 
  20   0.0000      -7.787631      -211.9122 
  21   0.0000      -7.787631      -211.9122 
  22   0.0000      -7.787631      -211.9122 
  23   0.0000      -7.787631      -211.9122 
  24   0.0000      -7.787631      -211.9122 
  25   0.0000      -7.787631      -211.9122 
  26   0.0000      -7.641924      -207.9473 
  27   0.0000      -7.442926      -202.5323 
  28   0.0000      -7.442926      -202.5323 
  29   0.0000      -7.442926      -202.5323 
  30   0.0000      -4.922988      -133.9613 
  31   0.0000      -4.922988      -133.9613 
  32   0.0000      -4.922988      -133.9613 
  33   0.0000      -4.922988      -133.9613 
  34   0.0000      -4.922988      -133.9613 
  35   0.0000      -4.893953      -133.1712 
  36   0.0000      -4.893953      -133.1712 
  37   0.0000      -4.893953      -133.1712 
  38   0.0000      -4.893953      -133.1712 
  39   0.0000      -4.893953      -133.1712 
  40   0.0000      -4.893953      -133.1712 
  41   0.0000      -4.893953      -133.1712 
  42   0.0000      -4.893953      -133.1712 
  43   0.0000      -4.893953      -133.1712 
  44   0.0000      -4.796616      -130.5225 
  45   0.0000      -4.796616      -130.5225 
  46   0.0000      -4.796616      -130.5225 
  47   0.0000      -4.796616      -130.5225 
  48   0.0000      -4.796616      -130.5225 
  49   0.0000      -4.796616      -130.5225 
  50   0.0000      -4.796616      -130.5225 
  51   0.0000      -4.653067      -126.6164 
  52   0.0000      -4.653067      -126.6164 
  53   0.0000      -4.653067      -126.6164 
  54   0.0000      -4.646079      -126.4262 
  55   0.0000      -3.064695       -83.3946 
  56   0.0000      -3.064695       -83.3946 
  57   0.0000      -3.064695       -83.3946 
  58   0.0000       2.308792        62.8254 
  59   0.0000       2.308792        62.8254 
  60   0.0000       2.308792        62.8254 
  61   0.0000       2.308792        62.8254 
  62   0.0000       2.308792        62.8254 
  63   0.0000      14.519288       395.0899 

                    ********************************
                    * MULLIKEN POPULATION ANALYSIS *
                    ********************************

-----------------------
MULLIKEN ATOMIC CHARGES
-----------------------
   0 Ar:   16.000000
Sum of atomic charges:   16.0000000

--------------------------------
MULLIKEN REDUCED ORBITAL CHARGES
--------------------------------
  0 Ars       :     2.000000  s :     2.000000
      pz      :     0.000000  p :     0.000000
      px      :     0.000000
      py      :     0.000000
      dz2     :     0.000000  d :     0.000000
      dxz     :     0.000000
      dyz     :     0.000000
      dx2y2   :     0.000000
      dxy     :     0.000000
      f0      :     0.000000  f :     0.000000
      f+1     :     0.000000
      f-1     :     0.000000
      f+2     :     0.000000
      f-2     :     0.000000
      f+3     :     0.000000
      f-3     :     0.000000
      g0      :     0.000000  g :     0.000000
      g+1     :     0.000000
      g-1     :     0.000000
      g+2     :     0.000000
      g-2     :     0.000000
      g+3     :     0.000000
      g-3     :     0.000000
      g+4     :     0.000000
      g-4     :     0.000000


                     *******************************
                     * LOEWDIN POPULATION ANALYSIS *
                     *******************************

----------------------
LOEWDIN ATOMIC CHARGES
----------------------
   0 Ar:   16.000000

-------------------------------
LOEWDIN REDUCED ORBITAL CHARGES
-------------------------------
  0 Ars       :     2.000000  s :     2.000000
      pz      :     0.000000  p :     0.000000
      px      :     0.000000
      py      :     0.000000
      dz2     :     0.000000  d :     0.000000
      dxz     :     0.000000
      dyz     :     0.000000
      dx2y2   :     0.000000
      dxy     :     0.000000
      f0      :     0.000000  f :     0.000000
      f+1     :     0.000000
      f-1     :     0.000000
      f+2     :     0.000000
      f-2     :     0.000000
      f+3     :     0.000000
      f-3     :     0.000000
      g0      :     0.000000  g :     0.000000
      g+1     :     0.000000
      g-1     :     0.000000
      g+2     :     0.000000
      g-2     :     0.000000
      g+3     :     0.000000
      g-3     :     0.000000
      g+4     :     0.000000
      g-4     :     0.000000


                      *****************************
                      * MAYER POPULATION ANALYSIS *
                      *****************************

  NA   - Mulliken gross atomic population
  ZA   - Total nuclear charge
  QA   - Mulliken gross atomic charge
  VA   - Mayer's total valence
  BVA  - Mayer's bonded valence
  FA   - Mayer's free valence

  ATOM       NA         ZA         QA         VA         BVA        FA
  0 Ar     2.0000    18.0000    16.0000    -0.0000     0.0000    -0.0000

  Mayer bond orders larger than 0.100000


--------------------------
ATOM BASIS FOR ELEMENT Ar
--------------------------
 NewGTO Ar
 S 35
    1    1702200.000000000000         0.000011012630
    2     254910.000000000000         0.000085608046
    3      58011.000000000000         0.000450134241
    4      16431.000000000000         0.001896367611
    5       5360.500000000000         0.006858236740
    6       1935.400000000000         0.021862178487
    7        755.090000000000         0.061537465745
    8        313.080000000000         0.147866989641
    9        135.880000000000         0.283534807742
   10         61.092000000000         0.361518371554
   11         28.024000000000         0.229993555191
   12         11.860000000000         0.037131128449
   13      16431.000000000000         0.000000262797
   14       5360.500000000000         0.000000437100
   15       1935.400000000000         0.000010792451
   16        755.090000000000         0.000049013521
   17        313.080000000000         0.000363583907
   18        135.880000000000         0.001436453378
   19         61.092000000000         0.004745455582
   20         28.024000000000         0.005426029109
   21         11.860000000000        -0.009516675577
   22          5.511700000000        -0.024751304167
   23       5360.500000000000        -0.000000124958
   24       1935.400000000000        -0.000001093926
   25        755.090000000000        -0.000008018536
   26        313.080000000000        -0.000047739014
   27        135.880000000000        -0.000221576761
   28         61.092000000000        -0.000693660690
   29         28.024000000000        -0.001017101394
   30         11.860000000000         0.002024743883
   31          5.511700000000         0.009308946295
   32          2.482200000000         0.011665982264
   33          0.917610000000        -0.006243102533
   34          0.407030000000         0.003166039848
   35          0.162380000000        -0.000809259332
 S 35
    1    1702200.000000000000         0.000002629452
    2     254910.000000000000         0.000020440370
    3      58011.000000000000         0.000107477168
    4      16431.000000000000         0.000452789862
    5       5360.500000000000         0.001637520094
    6       1935.400000000000         0.005219965120
    7        755.090000000000         0.014693111436
    8        313.080000000000         0.035305746348
    9        135.880000000000         0.067698734026
   10         61.092000000000         0.086318629717
   11         28.024000000000         0.054914853822
   12         11.860000000000         0.008865685342
   13      16431.000000000000         0.000005999472
   14       5360.500000000000         0.000009978683
   15       1935.400000000000         0.000246384106
   16        755.090000000000         0.001118944427
   17        313.080000000000         0.008300366443
   18        135.880000000000         0.032793226515
   19         61.092000000000         0.108335433747
   20         28.024000000000         0.123872451645
   21         11.860000000000        -0.217259051039
   22          5.511700000000        -0.565054972372
   23       5360.500000000000         0.000002676514
   24       1935.400000000000         0.000023431236
   25        755.090000000000         0.000171752195
   26        313.080000000000         0.001022540787
   27        135.880000000000         0.004746040092
   28         61.092000000000         0.014857792051
   29         28.024000000000         0.021785696131
   30         11.860000000000        -0.043368788252
   31          5.511700000000        -0.199391994301
   32          2.482200000000        -0.249878277864
   33          0.917610000000         0.148820502403
   34          0.407030000000        -0.101376511795
   35          0.162380000000         0.030173066091
 S 35
    1    1702200.000000000000         0.000000194093
    2     254910.000000000000         0.000001508808
    3      58011.000000000000         0.000007933436
    4      16431.000000000000         0.000033422722
    5       5360.500000000000         0.000120873684
    6       1935.400000000000         0.000385312165
    7        755.090000000000         0.001084573259
    8        313.080000000000         0.002606096642
    9        135.880000000000         0.004997187758
   10         61.092000000000         0.006371616928
   11         28.024000000000         0.004053544563
   12         11.860000000000         0.000654421311
   13      16431.000000000000         0.000005252093
   14       5360.500000000000         0.000008735597
   15       1935.400000000000         0.000215691012
   16        755.090000000000         0.000979552863
   17        313.080000000000         0.007266355256
   18        135.880000000000         0.028708037828
   19         61.092000000000         0.094839637956
   20         28.024000000000         0.108441144881
   21         11.860000000000        -0.190194186985
   22          5.511700000000        -0.494663723137
   23       5360.500000000000         0.000002180658
   24       1935.400000000000         0.000019090320
   25        755.090000000000         0.000139933052
   26        313.080000000000         0.000833102906
   27        135.880000000000         0.003866779539
   28         61.092000000000         0.012105208801
   29         28.024000000000         0.017749635990
   30         11.860000000000        -0.035334202782
   31          5.511700000000        -0.162452248347
   32          2.482200000000        -0.203585345512
   33          0.917610000000         1.895491390866
   34          0.407030000000        -0.717088714250
   35          0.162380000000         0.192536839740
 S 35
    1    1702200.000000000000        -0.000000246431
    2     254910.000000000000        -0.000001915660
    3      58011.000000000000        -0.000010072700
    4      16431.000000000000        -0.000042435211
    5       5360.500000000000        -0.000153467461
    6       1935.400000000000        -0.000489212190
    7        755.090000000000        -0.001377030125
    8        313.080000000000        -0.003308834655
    9        135.880000000000        -0.006344687209
   10         61.092000000000        -0.008089733343
   11         28.024000000000        -0.005146589160
   12         11.860000000000        -0.000830887035
   13      16431.000000000000         0.000003745289
   14       5360.500000000000         0.000006229390
   15       1935.400000000000         0.000153810149
   16        755.090000000000         0.000698523181
   17        313.080000000000         0.005181667858
   18        135.880000000000         0.020471820003
   19         61.092000000000         0.067630536404
   20         28.024000000000         0.077329827007
   21         11.860000000000        -0.135628258015
   22          5.511700000000        -0.352746738139
   23       5360.500000000000         0.000000737220
   24       1935.400000000000         0.000006453912
   25        755.090000000000         0.000047307514
   26        313.080000000000         0.000281649168
   27        135.880000000000         0.001307251760
   28         61.092000000000         0.004092437997
   29         28.024000000000         0.006000663513
   30         11.860000000000        -0.011945521672
   31          5.511700000000        -0.054920634978
   32          2.482200000000        -0.068826603273
   33          0.917610000000         2.603085734964
   34          0.407030000000        -2.982423025090
   35          0.162380000000         0.396525167941
 S 35
    1    1702200.000000000000         0.000000265928
    2     254910.000000000000         0.000002067224
    3      58011.000000000000         0.000010869636
    4      16431.000000000000         0.000045792618
    5       5360.500000000000         0.000165609566
    6       1935.400000000000         0.000527917893
    7        755.090000000000         0.001485978596
    8        313.080000000000         0.003570624480
    9        135.880000000000         0.006846668941
   10         61.092000000000         0.008729780396
   11         28.024000000000         0.005553779247
   12         11.860000000000         0.000896625518
   13      16431.000000000000        -0.000002463431
   14       5360.500000000000        -0.000004097327
   15       1935.400000000000        -0.000101167282
   16        755.090000000000        -0.000459447520
   17        313.080000000000        -0.003408196768
   18        135.880000000000        -0.013465160772
   19         61.092000000000        -0.044483394521
   20         28.024000000000        -0.050863018185
   21         11.860000000000         0.089208301905
   22          5.511700000000         0.232016085530
   23       5360.500000000000         0.000000081617
   24       1935.400000000000         0.000000714503
   25        755.090000000000         0.000005237347
   26        313.080000000000         0.000031180978
   27        135.880000000000         0.000144723978
   28         61.092000000000         0.000453067973
   29         28.024000000000         0.000664324898
   30         11.860000000000        -0.001322471664
   31          5.511700000000        -0.006080185155
   32          2.482200000000        -0.007619695068
   33          0.917610000000        -1.959306307329
   34          0.407030000000         3.885270665369
   35          0.162380000000        -2.644688627789
 S 35
    1    1702200.000000000000        -0.000011600306
    2     254910.000000000000        -0.000090176414
    3      58011.000000000000        -0.000474155099
    4      16431.000000000000        -0.001997564929
    5       5360.500000000000        -0.007224218081
    6       1935.400000000000        -0.023028826668
    7        755.090000000000        -0.064821336679
    8        313.080000000000        -0.155757729104
    9        135.880000000000        -0.298665292929
   10         61.092000000000        -0.380810353408
   11         28.024000000000        -0.242266877496
   12         11.860000000000        -0.039112585306
   13      16431.000000000000         0.000062676305
   14       5360.500000000000         0.000104247005
   15       1935.400000000000         0.002573967330
   16        755.090000000000         0.011689578714
   17        313.080000000000         0.086713678169
   18        135.880000000000         0.342589849450
   19         61.092000000000         1.131777012562
   20         28.024000000000         1.294091770461
   21         11.860000000000        -2.269698760907
   22          5.511700000000        -5.903112273124
   23       5360.500000000000        -0.000056116244
   24       1935.400000000000        -0.000491263201
   25        755.090000000000        -0.003600985163
   26        313.080000000000        -0.021438760615
   27        135.880000000000        -0.099506267858
   28         61.092000000000        -0.311510945306
   29         28.024000000000        -0.456762537291
   30         11.860000000000         0.909277245148
   31          5.511700000000         4.180485796085
   32          2.482200000000         5.238989634582
   33          0.917610000000        -5.851510121380
   34          0.407030000000         4.020980295028
   35          0.162380000000        -1.216705217074
 P 21
    1       4415.500000000000         0.000126016606
    2       1046.300000000000         0.001109360603
    3        339.540000000000         0.006230432435
    4        128.100000000000         0.026808392944
    5         53.823000000000         0.083430288365
    6         24.307000000000         0.201870322775
    7         11.440000000000         0.344421631325
    8          5.513200000000         0.393238161723
    9          2.633100000000         0.229827081148
   10       1046.300000000000        -0.000003233448
   11        339.540000000000         0.000009240516
   12        128.100000000000         0.000015180238
   13         53.823000000000         0.000816255411
   14         24.307000000000         0.002889287454
   15         11.440000000000         0.013104342040
   16          5.513200000000         0.011307447511
   17          2.633100000000        -0.030852009975
   18          1.210900000000        -0.290284397186
   19          0.534110000000         0.229201131420
   20          0.223140000000        -0.116818482907
   21          0.088792000000         0.036003595523
 P 21
    1       4415.500000000000         0.000045092305
    2       1046.300000000000         0.000396960590
    3        339.540000000000         0.002229424883
    4        128.100000000000         0.009592800968
    5         53.823000000000         0.029853716059
    6         24.307000000000         0.072234909108
    7         11.440000000000         0.123243797759
    8          5.513200000000         0.140711732559
    9          2.633100000000         0.082238627694
   10       1046.300000000000        -0.000015638892
   11        339.540000000000         0.000044692672
   12        128.100000000000         0.000073420729
   13         53.823000000000         0.003947900244
   14         24.307000000000         0.013974325314
   15         11.440000000000         0.063380449880
   16          5.513200000000         0.054689591289
   17          2.633100000000        -0.149218805949
   18          1.210900000000        -1.403989275530
   19          0.534110000000         0.610576629018
   20          0.223140000000        -0.300352178392
   21          0.088792000000         0.090066202681
 P 21
    1       4415.500000000000        -0.000016433986
    2       1046.300000000000        -0.000144673125
    3        339.540000000000        -0.000812518604
    4        128.100000000000        -0.003496116559
    5         53.823000000000        -0.010880249825
    6         24.307000000000        -0.026326165078
    7         11.440000000000        -0.044916462203
    8          5.513200000000        -0.051282687908
    9          2.633100000000        -0.029972041431
   10       1046.300000000000         0.000015230837
   11        339.540000000000        -0.000043526535
   12        128.100000000000        -0.000071505010
   13         53.823000000000        -0.003844890283
   14         24.307000000000        -0.013609702445
   15         11.440000000000        -0.061726705537
   16          5.513200000000        -0.053262611795
   17          2.633100000000         0.145325337903
   18          1.210900000000         1.367355907869
   19          0.534110000000        -2.081653859857
   20          0.223140000000         0.374291216336
   21          0.088792000000        -0.115252196216
 P 21
    1       4415.500000000000        -0.000006622417
    2       1046.300000000000        -0.000058299051
    3        339.540000000000        -0.000327421307
    4        128.100000000000        -0.001408833036
    5         53.823000000000        -0.004384423442
    6         24.307000000000        -0.010608676930
    7         11.440000000000        -0.018100024631
    8          5.513200000000        -0.020665427969
    9          2.633100000000        -0.012077858797
   10       1046.300000000000         0.000010969767
   11        339.540000000000        -0.000031349292
   12        128.100000000000        -0.000051500341
   13         53.823000000000        -0.002769220814
   14         24.307000000000        -0.009802170806
   15         11.440000000000        -0.044457673735
   16          5.513200000000        -0.038361545410
   17          2.633100000000         0.104668253420
   18          1.210900000000         0.984816252586
   19          0.534110000000        -2.519979759654
   20          0.223140000000         2.269764710227
   21          0.088792000000        -0.214199993212
 P 21
    1       4415.500000000000         0.000002659291
    2       1046.300000000000         0.000023410510
    3        339.540000000000         0.000131478978
    4        128.100000000000         0.000565729610
    5         53.823000000000         0.001760604770
    6         24.307000000000         0.004260009887
    7         11.440000000000         0.007268228110
    8          5.513200000000         0.008298388954
    9          2.633100000000         0.004849973114
   10       1046.300000000000        -0.000005868232
   11        339.540000000000         0.000016770176
   12        128.100000000000         0.000027549898
   13         53.823000000000         0.001481383427
   14         24.307000000000         0.005243631461
   15         11.440000000000         0.023782452001
   16          5.513200000000         0.020521352913
   17          2.633100000000        -0.055991857061
   18          1.210900000000        -0.526823454532
   19          0.534110000000         1.682199341634
   20          0.223140000000        -2.590606272765
   21          0.088792000000         1.976968437008
 D 4
    1         10.860000000000         0.320814825091
    2          2.860000000000         0.766329252728
    3          0.840000000000         0.077175397747
    4          0.310000000000        -0.006582690416
 D 4
    1         10.860000000000         0.264623340969
    2          2.860000000000         0.390671390414
    3          0.840000000000        -1.077529718771
    4          0.310000000000        -0.019937472071
 D 4
    1         10.860000000000         0.183421119177
    2          2.860000000000         0.148495882225
    3          0.840000000000        -0.978657063962
    4          0.310000000000         1.346400910501
 D 4
    1         10.860000000000         1.087575828459
    2          2.860000000000        -1.168311581251
    3          0.840000000000         0.838515559871
    4          0.310000000000        -0.399196917809
 F 2
    1          1.910000000000         0.786492091667
    2          0.630000000000         0.332721975757
 F 2
    1          1.910000000000         0.864153826102
    2          0.630000000000        -1.120101661578
 G 1
    1          0.930000000000         1.000000000000
 end
  // -----------------------------------------------
  // The basis set
  // -----------------------------------------------
  BAS[ATNO] = new BFNGauss[NSH];
  // Basis function   1 L = s
  InitBFNGauss(BAS[ATNO][  0]);
  BAS[ATNO][  0].l  = 0;
  BAS[ATNO][  0].ng = 35;
  BAS[ATNO][  0].a[  0] =   1702200.000000000000;     BAS[ATNO][  0].d[  0] =         0.000011012630;
  BAS[ATNO][  0].a[  1] =    254910.000000000000;     BAS[ATNO][  0].d[  1] =         0.000085608046;
  BAS[ATNO][  0].a[  2] =     58011.000000000000;     BAS[ATNO][  0].d[  2] =         0.000450134241;
  BAS[ATNO][  0].a[  3] =     16431.000000000000;     BAS[ATNO][  0].d[  3] =         0.001896367611;
  BAS[ATNO][  0].a[  4] =      5360.500000000000;     BAS[ATNO][  0].d[  4] =         0.006858236740;
  BAS[ATNO][  0].a[  5] =      1935.400000000000;     BAS[ATNO][  0].d[  5] =         0.021862178487;
  BAS[ATNO][  0].a[  6] =       755.090000000000;     BAS[ATNO][  0].d[  6] =         0.061537465745;
  BAS[ATNO][  0].a[  7] =       313.080000000000;     BAS[ATNO][  0].d[  7] =         0.147866989641;
  BAS[ATNO][  0].a[  8] =       135.880000000000;     BAS[ATNO][  0].d[  8] =         0.283534807742;
  BAS[ATNO][  0].a[  9] =        61.092000000000;     BAS[ATNO][  0].d[  9] =         0.361518371554;
  BAS[ATNO][  0].a[ 10] =        28.024000000000;     BAS[ATNO][  0].d[ 10] =         0.229993555191;
  BAS[ATNO][  0].a[ 11] =        11.860000000000;     BAS[ATNO][  0].d[ 11] =         0.037131128449;
  BAS[ATNO][  0].a[ 12] =     16431.000000000000;     BAS[ATNO][  0].d[ 12] =         0.000000262797;
  BAS[ATNO][  0].a[ 13] =      5360.500000000000;     BAS[ATNO][  0].d[ 13] =         0.000000437100;
  BAS[ATNO][  0].a[ 14] =      1935.400000000000;     BAS[ATNO][  0].d[ 14] =         0.000010792451;
  BAS[ATNO][  0].a[ 15] =       755.090000000000;     BAS[ATNO][  0].d[ 15] =         0.000049013521;
  BAS[ATNO][  0].a[ 16] =       313.080000000000;     BAS[ATNO][  0].d[ 16] =         0.000363583907;
  BAS[ATNO][  0].a[ 17] =       135.880000000000;     BAS[ATNO][  0].d[ 17] =         0.001436453378;
  BAS[ATNO][  0].a[ 18] =        61.092000000000;     BAS[ATNO][  0].d[ 18] =         0.004745455582;
  BAS[ATNO][  0].a[ 19] =        28.024000000000;     BAS[ATNO][  0].d[ 19] =         0.005426029109;
  BAS[ATNO][  0].a[ 20] =        11.860000000000;     BAS[ATNO][  0].d[ 20] =        -0.009516675577;
  BAS[ATNO][  0].a[ 21] =         5.511700000000;     BAS[ATNO][  0].d[ 21] =        -0.024751304167;
  BAS[ATNO][  0].a[ 22] =      5360.500000000000;     BAS[ATNO][  0].d[ 22] =        -0.000000124958;
  BAS[ATNO][  0].a[ 23] =      1935.400000000000;     BAS[ATNO][  0].d[ 23] =        -0.000001093926;
  BAS[ATNO][  0].a[ 24] =       755.090000000000;     BAS[ATNO][  0].d[ 24] =        -0.000008018536;
  BAS[ATNO][  0].a[ 25] =       313.080000000000;     BAS[ATNO][  0].d[ 25] =        -0.000047739014;
  BAS[ATNO][  0].a[ 26] =       135.880000000000;     BAS[ATNO][  0].d[ 26] =        -0.000221576761;
  BAS[ATNO][  0].a[ 27] =        61.092000000000;     BAS[ATNO][  0].d[ 27] =        -0.000693660690;
  BAS[ATNO][  0].a[ 28] =        28.024000000000;     BAS[ATNO][  0].d[ 28] =        -0.001017101394;
  BAS[ATNO][  0].a[ 29] =        11.860000000000;     BAS[ATNO][  0].d[ 29] =         0.002024743883;
  BAS[ATNO][  0].a[ 30] =         5.511700000000;     BAS[ATNO][  0].d[ 30] =         0.009308946295;
  BAS[ATNO][  0].a[ 31] =         2.482200000000;     BAS[ATNO][  0].d[ 31] =         0.011665982264;
  BAS[ATNO][  0].a[ 32] =         0.917610000000;     BAS[ATNO][  0].d[ 32] =        -0.006243102533;
  BAS[ATNO][  0].a[ 33] =         0.407030000000;     BAS[ATNO][  0].d[ 33] =         0.003166039848;
  BAS[ATNO][  0].a[ 34] =         0.162380000000;     BAS[ATNO][  0].d[ 34] =        -0.000809259332;

  // Basis function   2 L = s
  InitBFNGauss(BAS[ATNO][  1]);
  BAS[ATNO][  1].l  = 0;
  BAS[ATNO][  1].ng = 35;
  BAS[ATNO][  1].a[  0] =   1702200.000000000000;     BAS[ATNO][  1].d[  0] =        -0.000002629452;
  BAS[ATNO][  1].a[  1] =    254910.000000000000;     BAS[ATNO][  1].d[  1] =        -0.000020440370;
  BAS[ATNO][  1].a[  2] =     58011.000000000000;     BAS[ATNO][  1].d[  2] =        -0.000107477168;
  BAS[ATNO][  1].a[  3] =     16431.000000000000;     BAS[ATNO][  1].d[  3] =        -0.000452789862;
  BAS[ATNO][  1].a[  4] =      5360.500000000000;     BAS[ATNO][  1].d[  4] =        -0.001637520094;
  BAS[ATNO][  1].a[  5] =      1935.400000000000;     BAS[ATNO][  1].d[  5] =        -0.005219965120;
  BAS[ATNO][  1].a[  6] =       755.090000000000;     BAS[ATNO][  1].d[  6] =        -0.014693111436;
  BAS[ATNO][  1].a[  7] =       313.080000000000;     BAS[ATNO][  1].d[  7] =        -0.035305746348;
  BAS[ATNO][  1].a[  8] =       135.880000000000;     BAS[ATNO][  1].d[  8] =        -0.067698734026;
  BAS[ATNO][  1].a[  9] =        61.092000000000;     BAS[ATNO][  1].d[  9] =        -0.086318629717;
  BAS[ATNO][  1].a[ 10] =        28.024000000000;     BAS[ATNO][  1].d[ 10] =        -0.054914853822;
  BAS[ATNO][  1].a[ 11] =        11.860000000000;     BAS[ATNO][  1].d[ 11] =        -0.008865685342;
  BAS[ATNO][  1].a[ 12] =     16431.000000000000;     BAS[ATNO][  1].d[ 12] =        -0.000005999472;
  BAS[ATNO][  1].a[ 13] =      5360.500000000000;     BAS[ATNO][  1].d[ 13] =        -0.000009978683;
  BAS[ATNO][  1].a[ 14] =      1935.400000000000;     BAS[ATNO][  1].d[ 14] =        -0.000246384106;
  BAS[ATNO][  1].a[ 15] =       755.090000000000;     BAS[ATNO][  1].d[ 15] =        -0.001118944427;
  BAS[ATNO][  1].a[ 16] =       313.080000000000;     BAS[ATNO][  1].d[ 16] =        -0.008300366443;
  BAS[ATNO][  1].a[ 17] =       135.880000000000;     BAS[ATNO][  1].d[ 17] =        -0.032793226515;
  BAS[ATNO][  1].a[ 18] =        61.092000000000;     BAS[ATNO][  1].d[ 18] =        -0.108335433747;
  BAS[ATNO][  1].a[ 19] =        28.024000000000;     BAS[ATNO][  1].d[ 19] =        -0.123872451645;
  BAS[ATNO][  1].a[ 20] =        11.860000000000;     BAS[ATNO][  1].d[ 20] =         0.217259051039;
  BAS[ATNO][  1].a[ 21] =         5.511700000000;     BAS[ATNO][  1].d[ 21] =         0.565054972372;
  BAS[ATNO][  1].a[ 22] =      5360.500000000000;     BAS[ATNO][  1].d[ 22] =        -0.000002676514;
  BAS[ATNO][  1].a[ 23] =      1935.400000000000;     BAS[ATNO][  1].d[ 23] =        -0.000023431236;
  BAS[ATNO][  1].a[ 24] =       755.090000000000;     BAS[ATNO][  1].d[ 24] =        -0.000171752195;
  BAS[ATNO][  1].a[ 25] =       313.080000000000;     BAS[ATNO][  1].d[ 25] =        -0.001022540787;
  BAS[ATNO][  1].a[ 26] =       135.880000000000;     BAS[ATNO][  1].d[ 26] =        -0.004746040092;
  BAS[ATNO][  1].a[ 27] =        61.092000000000;     BAS[ATNO][  1].d[ 27] =        -0.014857792051;
  BAS[ATNO][  1].a[ 28] =        28.024000000000;     BAS[ATNO][  1].d[ 28] =        -0.021785696131;
  BAS[ATNO][  1].a[ 29] =        11.860000000000;     BAS[ATNO][  1].d[ 29] =         0.043368788252;
  BAS[ATNO][  1].a[ 30] =         5.511700000000;     BAS[ATNO][  1].d[ 30] =         0.199391994301;
  BAS[ATNO][  1].a[ 31] =         2.482200000000;     BAS[ATNO][  1].d[ 31] =         0.249878277864;
  BAS[ATNO][  1].a[ 32] =         0.917610000000;     BAS[ATNO][  1].d[ 32] =        -0.148820502403;
  BAS[ATNO][  1].a[ 33] =         0.407030000000;     BAS[ATNO][  1].d[ 33] =         0.101376511795;
  BAS[ATNO][  1].a[ 34] =         0.162380000000;     BAS[ATNO][  1].d[ 34] =        -0.030173066091;

  // Basis function   3 L = s
  InitBFNGauss(BAS[ATNO][  2]);
  BAS[ATNO][  2].l  = 0;
  BAS[ATNO][  2].ng = 35;
  BAS[ATNO][  2].a[  0] =   1702200.000000000000;     BAS[ATNO][  2].d[  0] =         0.000000194093;
  BAS[ATNO][  2].a[  1] =    254910.000000000000;     BAS[ATNO][  2].d[  1] =         0.000001508808;
  BAS[ATNO][  2].a[  2] =     58011.000000000000;     BAS[ATNO][  2].d[  2] =         0.000007933436;
  BAS[ATNO][  2].a[  3] =     16431.000000000000;     BAS[ATNO][  2].d[  3] =         0.000033422722;
  BAS[ATNO][  2].a[  4] =      5360.500000000000;     BAS[ATNO][  2].d[  4] =         0.000120873684;
  BAS[ATNO][  2].a[  5] =      1935.400000000000;     BAS[ATNO][  2].d[  5] =         0.000385312165;
  BAS[ATNO][  2].a[  6] =       755.090000000000;     BAS[ATNO][  2].d[  6] =         0.001084573259;
  BAS[ATNO][  2].a[  7] =       313.080000000000;     BAS[ATNO][  2].d[  7] =         0.002606096642;
  BAS[ATNO][  2].a[  8] =       135.880000000000;     BAS[ATNO][  2].d[  8] =         0.004997187758;
  BAS[ATNO][  2].a[  9] =        61.092000000000;     BAS[ATNO][  2].d[  9] =         0.006371616928;
  BAS[ATNO][  2].a[ 10] =        28.024000000000;     BAS[ATNO][  2].d[ 10] =         0.004053544563;
  BAS[ATNO][  2].a[ 11] =        11.860000000000;     BAS[ATNO][  2].d[ 11] =         0.000654421311;
  BAS[ATNO][  2].a[ 12] =     16431.000000000000;     BAS[ATNO][  2].d[ 12] =         0.000005252093;
  BAS[ATNO][  2].a[ 13] =      5360.500000000000;     BAS[ATNO][  2].d[ 13] =         0.000008735597;
  BAS[ATNO][  2].a[ 14] =      1935.400000000000;     BAS[ATNO][  2].d[ 14] =         0.000215691012;
  BAS[ATNO][  2].a[ 15] =       755.090000000000;     BAS[ATNO][  2].d[ 15] =         0.000979552863;
  BAS[ATNO][  2].a[ 16] =       313.080000000000;     BAS[ATNO][  2].d[ 16] =         0.007266355256;
  BAS[ATNO][  2].a[ 17] =       135.880000000000;     BAS[ATNO][  2].d[ 17] =         0.028708037828;
  BAS[ATNO][  2].a[ 18] =        61.092000000000;     BAS[ATNO][  2].d[ 18] =         0.094839637956;
  BAS[ATNO][  2].a[ 19] =        28.024000000000;     BAS[ATNO][  2].d[ 19] =         0.108441144881;
  BAS[ATNO][  2].a[ 20] =        11.860000000000;     BAS[ATNO][  2].d[ 20] =        -0.190194186985;
  BAS[ATNO][  2].a[ 21] =         5.511700000000;     BAS[ATNO][  2].d[ 21] =        -0.494663723137;
  BAS[ATNO][  2].a[ 22] =      5360.500000000000;     BAS[ATNO][  2].d[ 22] =         0.000002180658;
  BAS[ATNO][  2].a[ 23] =      1935.400000000000;     BAS[ATNO][  2].d[ 23] =         0.000019090320;
  BAS[ATNO][  2].a[ 24] =       755.090000000000;     BAS[ATNO][  2].d[ 24] =         0.000139933052;
  BAS[ATNO][  2].a[ 25] =       313.080000000000;     BAS[ATNO][  2].d[ 25] =         0.000833102906;
  BAS[ATNO][  2].a[ 26] =       135.880000000000;     BAS[ATNO][  2].d[ 26] =         0.003866779539;
  BAS[ATNO][  2].a[ 27] =        61.092000000000;     BAS[ATNO][  2].d[ 27] =         0.012105208801;
  BAS[ATNO][  2].a[ 28] =        28.024000000000;     BAS[ATNO][  2].d[ 28] =         0.017749635990;
  BAS[ATNO][  2].a[ 29] =        11.860000000000;     BAS[ATNO][  2].d[ 29] =        -0.035334202782;
  BAS[ATNO][  2].a[ 30] =         5.511700000000;     BAS[ATNO][  2].d[ 30] =        -0.162452248347;
  BAS[ATNO][  2].a[ 31] =         2.482200000000;     BAS[ATNO][  2].d[ 31] =        -0.203585345512;
  BAS[ATNO][  2].a[ 32] =         0.917610000000;     BAS[ATNO][  2].d[ 32] =         1.895491390866;
  BAS[ATNO][  2].a[ 33] =         0.407030000000;     BAS[ATNO][  2].d[ 33] =        -0.717088714250;
  BAS[ATNO][  2].a[ 34] =         0.162380000000;     BAS[ATNO][  2].d[ 34] =         0.192536839740;

  // Basis function   4 L = s
  InitBFNGauss(BAS[ATNO][  3]);
  BAS[ATNO][  3].l  = 0;
  BAS[ATNO][  3].ng = 35;
  BAS[ATNO][  3].a[  0] =   1702200.000000000000;     BAS[ATNO][  3].d[  0] =         0.000000246431;
  BAS[ATNO][  3].a[  1] =    254910.000000000000;     BAS[ATNO][  3].d[  1] =         0.000001915660;
  BAS[ATNO][  3].a[  2] =     58011.000000000000;     BAS[ATNO][  3].d[  2] =         0.000010072700;
  BAS[ATNO][  3].a[  3] =     16431.000000000000;     BAS[ATNO][  3].d[  3] =         0.000042435211;
  BAS[ATNO][  3].a[  4] =      5360.500000000000;     BAS[ATNO][  3].d[  4] =         0.000153467461;
  BAS[ATNO][  3].a[  5] =      1935.400000000000;     BAS[ATNO][  3].d[  5] =         0.000489212190;
  BAS[ATNO][  3].a[  6] =       755.090000000000;     BAS[ATNO][  3].d[  6] =         0.001377030125;
  BAS[ATNO][  3].a[  7] =       313.080000000000;     BAS[ATNO][  3].d[  7] =         0.003308834655;
  BAS[ATNO][  3].a[  8] =       135.880000000000;     BAS[ATNO][  3].d[  8] =         0.006344687209;
  BAS[ATNO][  3].a[  9] =        61.092000000000;     BAS[ATNO][  3].d[  9] =         0.008089733343;
  BAS[ATNO][  3].a[ 10] =        28.024000000000;     BAS[ATNO][  3].d[ 10] =         0.005146589160;
  BAS[ATNO][  3].a[ 11] =        11.860000000000;     BAS[ATNO][  3].d[ 11] =         0.000830887035;
  BAS[ATNO][  3].a[ 12] =     16431.000000000000;     BAS[ATNO][  3].d[ 12] =        -0.000003745289;
  BAS[ATNO][  3].a[ 13] =      5360.500000000000;     BAS[ATNO][  3].d[ 13] =        -0.000006229390;
  BAS[ATNO][  3].a[ 14] =      1935.400000000000;     BAS[ATNO][  3].d[ 14] =        -0.000153810149;
  BAS[ATNO][  3].a[ 15] =       755.090000000000;     BAS[ATNO][  3].d[ 15] =        -0.000698523181;
  BAS[ATNO][  3].a[ 16] =       313.080000000000;     BAS[ATNO][  3].d[ 16] =        -0.005181667858;
  BAS[ATNO][  3].a[ 17] =       135.880000000000;     BAS[ATNO][  3].d[ 17] =        -0.020471820003;
  BAS[ATNO][  3].a[ 18] =        61.092000000000;     BAS[ATNO][  3].d[ 18] =        -0.067630536404;
  BAS[ATNO][  3].a[ 19] =        28.024000000000;     BAS[ATNO][  3].d[ 19] =        -0.077329827007;
  BAS[ATNO][  3].a[ 20] =        11.860000000000;     BAS[ATNO][  3].d[ 20] =         0.135628258015;
  BAS[ATNO][  3].a[ 21] =         5.511700000000;     BAS[ATNO][  3].d[ 21] =         0.352746738139;
  BAS[ATNO][  3].a[ 22] =      5360.500000000000;     BAS[ATNO][  3].d[ 22] =        -0.000000737220;
  BAS[ATNO][  3].a[ 23] =      1935.400000000000;     BAS[ATNO][  3].d[ 23] =        -0.000006453912;
  BAS[ATNO][  3].a[ 24] =       755.090000000000;     BAS[ATNO][  3].d[ 24] =        -0.000047307514;
  BAS[ATNO][  3].a[ 25] =       313.080000000000;     BAS[ATNO][  3].d[ 25] =        -0.000281649168;
  BAS[ATNO][  3].a[ 26] =       135.880000000000;     BAS[ATNO][  3].d[ 26] =        -0.001307251760;
  BAS[ATNO][  3].a[ 27] =        61.092000000000;     BAS[ATNO][  3].d[ 27] =        -0.004092437997;
  BAS[ATNO][  3].a[ 28] =        28.024000000000;     BAS[ATNO][  3].d[ 28] =        -0.006000663513;
  BAS[ATNO][  3].a[ 29] =        11.860000000000;     BAS[ATNO][  3].d[ 29] =         0.011945521672;
  BAS[ATNO][  3].a[ 30] =         5.511700000000;     BAS[ATNO][  3].d[ 30] =         0.054920634978;
  BAS[ATNO][  3].a[ 31] =         2.482200000000;     BAS[ATNO][  3].d[ 31] =         0.068826603273;
  BAS[ATNO][  3].a[ 32] =         0.917610000000;     BAS[ATNO][  3].d[ 32] =        -2.603085734964;
  BAS[ATNO][  3].a[ 33] =         0.407030000000;     BAS[ATNO][  3].d[ 33] =         2.982423025090;
  BAS[ATNO][  3].a[ 34] =         0.162380000000;     BAS[ATNO][  3].d[ 34] =        -0.396525167941;

  // Basis function   5 L = s
  InitBFNGauss(BAS[ATNO][  4]);
  BAS[ATNO][  4].l  = 0;
  BAS[ATNO][  4].ng = 35;
  BAS[ATNO][  4].a[  0] =   1702200.000000000000;     BAS[ATNO][  4].d[  0] =         0.000000265928;
  BAS[ATNO][  4].a[  1] =    254910.000000000000;     BAS[ATNO][  4].d[  1] =         0.000002067224;
  BAS[ATNO][  4].a[  2] =     58011.000000000000;     BAS[ATNO][  4].d[  2] =         0.000010869636;
  BAS[ATNO][  4].a[  3] =     16431.000000000000;     BAS[ATNO][  4].d[  3] =         0.000045792618;
  BAS[ATNO][  4].a[  4] =      5360.500000000000;     BAS[ATNO][  4].d[  4] =         0.000165609566;
  BAS[ATNO][  4].a[  5] =      1935.400000000000;     BAS[ATNO][  4].d[  5] =         0.000527917893;
  BAS[ATNO][  4].a[  6] =       755.090000000000;     BAS[ATNO][  4].d[  6] =         0.001485978596;
  BAS[ATNO][  4].a[  7] =       313.080000000000;     BAS[ATNO][  4].d[  7] =         0.003570624480;
  BAS[ATNO][  4].a[  8] =       135.880000000000;     BAS[ATNO][  4].d[  8] =         0.006846668941;
  BAS[ATNO][  4].a[  9] =        61.092000000000;     BAS[ATNO][  4].d[  9] =         0.008729780396;
  BAS[ATNO][  4].a[ 10] =        28.024000000000;     BAS[ATNO][  4].d[ 10] =         0.005553779247;
  BAS[ATNO][  4].a[ 11] =        11.860000000000;     BAS[ATNO][  4].d[ 11] =         0.000896625518;
  BAS[ATNO][  4].a[ 12] =     16431.000000000000;     BAS[ATNO][  4].d[ 12] =        -0.000002463431;
  BAS[ATNO][  4].a[ 13] =      5360.500000000000;     BAS[ATNO][  4].d[ 13] =        -0.000004097327;
  BAS[ATNO][  4].a[ 14] =      1935.400000000000;     BAS[ATNO][  4].d[ 14] =        -0.000101167282;
  BAS[ATNO][  4].a[ 15] =       755.090000000000;     BAS[ATNO][  4].d[ 15] =        -0.000459447520;
  BAS[ATNO][  4].a[ 16] =       313.080000000000;     BAS[ATNO][  4].d[ 16] =        -0.003408196768;
  BAS[ATNO][  4].a[ 17] =       135.880000000000;     BAS[ATNO][  4].d[ 17] =        -0.013465160772;
  BAS[ATNO][  4].a[ 18] =        61.092000000000;     BAS[ATNO][  4].d[ 18] =        -0.044483394521;
  BAS[ATNO][  4].a[ 19] =        28.024000000000;     BAS[ATNO][  4].d[ 19] =        -0.050863018185;
  BAS[ATNO][  4].a[ 20] =        11.860000000000;     BAS[ATNO][  4].d[ 20] =         0.089208301905;
  BAS[ATNO][  4].a[ 21] =         5.511700000000;     BAS[ATNO][  4].d[ 21] =         0.232016085530;
  BAS[ATNO][  4].a[ 22] =      5360.500000000000;     BAS[ATNO][  4].d[ 22] =         0.000000081617;
  BAS[ATNO][  4].a[ 23] =      1935.400000000000;     BAS[ATNO][  4].d[ 23] =         0.000000714503;
  BAS[ATNO][  4].a[ 24] =       755.090000000000;     BAS[ATNO][  4].d[ 24] =         0.000005237347;
  BAS[ATNO][  4].a[ 25] =       313.080000000000;     BAS[ATNO][  4].d[ 25] =         0.000031180978;
  BAS[ATNO][  4].a[ 26] =       135.880000000000;     BAS[ATNO][  4].d[ 26] =         0.000144723978;
  BAS[ATNO][  4].a[ 27] =        61.092000000000;     BAS[ATNO][  4].d[ 27] =         0.000453067973;
  BAS[ATNO][  4].a[ 28] =        28.024000000000;     BAS[ATNO][  4].d[ 28] =         0.000664324898;
  BAS[ATNO][  4].a[ 29] =        11.860000000000;     BAS[ATNO][  4].d[ 29] =        -0.001322471664;
  BAS[ATNO][  4].a[ 30] =         5.511700000000;     BAS[ATNO][  4].d[ 30] =        -0.006080185155;
  BAS[ATNO][  4].a[ 31] =         2.482200000000;     BAS[ATNO][  4].d[ 31] =        -0.007619695068;
  BAS[ATNO][  4].a[ 32] =         0.917610000000;     BAS[ATNO][  4].d[ 32] =        -1.959306307329;
  BAS[ATNO][  4].a[ 33] =         0.407030000000;     BAS[ATNO][  4].d[ 33] =         3.885270665369;
  BAS[ATNO][  4].a[ 34] =         0.162380000000;     BAS[ATNO][  4].d[ 34] =        -2.644688627789;

  // Basis function   6 L = s
  InitBFNGauss(BAS[ATNO][  5]);
  BAS[ATNO][  5].l  = 0;
  BAS[ATNO][  5].ng = 35;
  BAS[ATNO][  5].a[  0] =   1702200.000000000000;     BAS[ATNO][  5].d[  0] =         0.000011600306;
  BAS[ATNO][  5].a[  1] =    254910.000000000000;     BAS[ATNO][  5].d[  1] =         0.000090176414;
  BAS[ATNO][  5].a[  2] =     58011.000000000000;     BAS[ATNO][  5].d[  2] =         0.000474155099;
  BAS[ATNO][  5].a[  3] =     16431.000000000000;     BAS[ATNO][  5].d[  3] =         0.001997564929;
  BAS[ATNO][  5].a[  4] =      5360.500000000000;     BAS[ATNO][  5].d[  4] =         0.007224218081;
  BAS[ATNO][  5].a[  5] =      1935.400000000000;     BAS[ATNO][  5].d[  5] =         0.023028826668;
  BAS[ATNO][  5].a[  6] =       755.090000000000;     BAS[ATNO][  5].d[  6] =         0.064821336679;
  BAS[ATNO][  5].a[  7] =       313.080000000000;     BAS[ATNO][  5].d[  7] =         0.155757729104;
  BAS[ATNO][  5].a[  8] =       135.880000000000;     BAS[ATNO][  5].d[  8] =         0.298665292929;
  BAS[ATNO][  5].a[  9] =        61.092000000000;     BAS[ATNO][  5].d[  9] =         0.380810353408;
  BAS[ATNO][  5].a[ 10] =        28.024000000000;     BAS[ATNO][  5].d[ 10] =         0.242266877496;
  BAS[ATNO][  5].a[ 11] =        11.860000000000;     BAS[ATNO][  5].d[ 11] =         0.039112585306;
  BAS[ATNO][  5].a[ 12] =     16431.000000000000;     BAS[ATNO][  5].d[ 12] =        -0.000062676305;
  BAS[ATNO][  5].a[ 13] =      5360.500000000000;     BAS[ATNO][  5].d[ 13] =        -0.000104247005;
  BAS[ATNO][  5].a[ 14] =      1935.400000000000;     BAS[ATNO][  5].d[ 14] =        -0.002573967330;
  BAS[ATNO][  5].a[ 15] =       755.090000000000;     BAS[ATNO][  5].d[ 15] =        -0.011689578714;
  BAS[ATNO][  5].a[ 16] =       313.080000000000;     BAS[ATNO][  5].d[ 16] =        -0.086713678169;
  BAS[ATNO][  5].a[ 17] =       135.880000000000;     BAS[ATNO][  5].d[ 17] =        -0.342589849450;
  BAS[ATNO][  5].a[ 18] =        61.092000000000;     BAS[ATNO][  5].d[ 18] =        -1.131777012562;
  BAS[ATNO][  5].a[ 19] =        28.024000000000;     BAS[ATNO][  5].d[ 19] =        -1.294091770461;
  BAS[ATNO][  5].a[ 20] =        11.860000000000;     BAS[ATNO][  5].d[ 20] =         2.269698760907;
  BAS[ATNO][  5].a[ 21] =         5.511700000000;     BAS[ATNO][  5].d[ 21] =         5.903112273124;
  BAS[ATNO][  5].a[ 22] =      5360.500000000000;     BAS[ATNO][  5].d[ 22] =         0.000056116244;
  BAS[ATNO][  5].a[ 23] =      1935.400000000000;     BAS[ATNO][  5].d[ 23] =         0.000491263201;
  BAS[ATNO][  5].a[ 24] =       755.090000000000;     BAS[ATNO][  5].d[ 24] =         0.003600985163;
  BAS[ATNO][  5].a[ 25] =       313.080000000000;     BAS[ATNO][  5].d[ 25] =         0.021438760615;
  BAS[ATNO][  5].a[ 26] =       135.880000000000;     BAS[ATNO][  5].d[ 26] =         0.099506267858;
  BAS[ATNO][  5].a[ 27] =        61.092000000000;     BAS[ATNO][  5].d[ 27] =         0.311510945306;
  BAS[ATNO][  5].a[ 28] =        28.024000000000;     BAS[ATNO][  5].d[ 28] =         0.456762537291;
  BAS[ATNO][  5].a[ 29] =        11.860000000000;     BAS[ATNO][  5].d[ 29] =        -0.909277245148;
  BAS[ATNO][  5].a[ 30] =         5.511700000000;     BAS[ATNO][  5].d[ 30] =        -4.180485796085;
  BAS[ATNO][  5].a[ 31] =         2.482200000000;     BAS[ATNO][  5].d[ 31] =        -5.238989634582;
  BAS[ATNO][  5].a[ 32] =         0.917610000000;     BAS[ATNO][  5].d[ 32] =         5.851510121380;
  BAS[ATNO][  5].a[ 33] =         0.407030000000;     BAS[ATNO][  5].d[ 33] =        -4.020980295028;
  BAS[ATNO][  5].a[ 34] =         0.162380000000;     BAS[ATNO][  5].d[ 34] =         1.216705217074;

  // Basis function   7 L = p
  InitBFNGauss(BAS[ATNO][  6]);
  BAS[ATNO][  6].l  = 1;
  BAS[ATNO][  6].ng = 21;
  BAS[ATNO][  6].a[  0] =      4415.500000000000;     BAS[ATNO][  6].d[  0] =         0.000126016606;
  BAS[ATNO][  6].a[  1] =      1046.300000000000;     BAS[ATNO][  6].d[  1] =         0.001109360603;
  BAS[ATNO][  6].a[  2] =       339.540000000000;     BAS[ATNO][  6].d[  2] =         0.006230432435;
  BAS[ATNO][  6].a[  3] =       128.100000000000;     BAS[ATNO][  6].d[  3] =         0.026808392944;
  BAS[ATNO][  6].a[  4] =        53.823000000000;     BAS[ATNO][  6].d[  4] =         0.083430288365;
  BAS[ATNO][  6].a[  5] =        24.307000000000;     BAS[ATNO][  6].d[  5] =         0.201870322775;
  BAS[ATNO][  6].a[  6] =        11.440000000000;     BAS[ATNO][  6].d[  6] =         0.344421631325;
  BAS[ATNO][  6].a[  7] =         5.513200000000;     BAS[ATNO][  6].d[  7] =         0.393238161723;
  BAS[ATNO][  6].a[  8] =         2.633100000000;     BAS[ATNO][  6].d[  8] =         0.229827081148;
  BAS[ATNO][  6].a[  9] =      1046.300000000000;     BAS[ATNO][  6].d[  9] =        -0.000003233448;
  BAS[ATNO][  6].a[ 10] =       339.540000000000;     BAS[ATNO][  6].d[ 10] =         0.000009240516;
  BAS[ATNO][  6].a[ 11] =       128.100000000000;     BAS[ATNO][  6].d[ 11] =         0.000015180238;
  BAS[ATNO][  6].a[ 12] =        53.823000000000;     BAS[ATNO][  6].d[ 12] =         0.000816255411;
  BAS[ATNO][  6].a[ 13] =        24.307000000000;     BAS[ATNO][  6].d[ 13] =         0.002889287454;
  BAS[ATNO][  6].a[ 14] =        11.440000000000;     BAS[ATNO][  6].d[ 14] =         0.013104342040;
  BAS[ATNO][  6].a[ 15] =         5.513200000000;     BAS[ATNO][  6].d[ 15] =         0.011307447511;
  BAS[ATNO][  6].a[ 16] =         2.633100000000;     BAS[ATNO][  6].d[ 16] =        -0.030852009975;
  BAS[ATNO][  6].a[ 17] =         1.210900000000;     BAS[ATNO][  6].d[ 17] =        -0.290284397186;
  BAS[ATNO][  6].a[ 18] =         0.534110000000;     BAS[ATNO][  6].d[ 18] =         0.229201131420;
  BAS[ATNO][  6].a[ 19] =         0.223140000000;     BAS[ATNO][  6].d[ 19] =        -0.116818482907;
  BAS[ATNO][  6].a[ 20] =         0.088792000000;     BAS[ATNO][  6].d[ 20] =         0.036003595523;

  // Basis function   8 L = p
  InitBFNGauss(BAS[ATNO][  7]);
  BAS[ATNO][  7].l  = 1;
  BAS[ATNO][  7].ng = 21;
  BAS[ATNO][  7].a[  0] =      4415.500000000000;     BAS[ATNO][  7].d[  0] =        -0.000045092305;
  BAS[ATNO][  7].a[  1] =      1046.300000000000;     BAS[ATNO][  7].d[  1] =        -0.000396960590;
  BAS[ATNO][  7].a[  2] =       339.540000000000;     BAS[ATNO][  7].d[  2] =        -0.002229424883;
  BAS[ATNO][  7].a[  3] =       128.100000000000;     BAS[ATNO][  7].d[  3] =        -0.009592800968;
  BAS[ATNO][  7].a[  4] =        53.823000000000;     BAS[ATNO][  7].d[  4] =        -0.029853716059;
  BAS[ATNO][  7].a[  5] =        24.307000000000;     BAS[ATNO][  7].d[  5] =        -0.072234909108;
  BAS[ATNO][  7].a[  6] =        11.440000000000;     BAS[ATNO][  7].d[  6] =        -0.123243797759;
  BAS[ATNO][  7].a[  7] =         5.513200000000;     BAS[ATNO][  7].d[  7] =        -0.140711732559;
  BAS[ATNO][  7].a[  8] =         2.633100000000;     BAS[ATNO][  7].d[  8] =        -0.082238627694;
  BAS[ATNO][  7].a[  9] =      1046.300000000000;     BAS[ATNO][  7].d[  9] =         0.000015638892;
  BAS[ATNO][  7].a[ 10] =       339.540000000000;     BAS[ATNO][  7].d[ 10] =        -0.000044692672;
  BAS[ATNO][  7].a[ 11] =       128.100000000000;     BAS[ATNO][  7].d[ 11] =        -0.000073420729;
  BAS[ATNO][  7].a[ 12] =        53.823000000000;     BAS[ATNO][  7].d[ 12] =        -0.003947900244;
  BAS[ATNO][  7].a[ 13] =        24.307000000000;     BAS[ATNO][  7].d[ 13] =        -0.013974325314;
  BAS[ATNO][  7].a[ 14] =        11.440000000000;     BAS[ATNO][  7].d[ 14] =        -0.063380449880;
  BAS[ATNO][  7].a[ 15] =         5.513200000000;     BAS[ATNO][  7].d[ 15] =        -0.054689591289;
  BAS[ATNO][  7].a[ 16] =         2.633100000000;     BAS[ATNO][  7].d[ 16] =         0.149218805949;
  BAS[ATNO][  7].a[ 17] =         1.210900000000;     BAS[ATNO][  7].d[ 17] =         1.403989275530;
  BAS[ATNO][  7].a[ 18] =         0.534110000000;     BAS[ATNO][  7].d[ 18] =        -0.610576629018;
  BAS[ATNO][  7].a[ 19] =         0.223140000000;     BAS[ATNO][  7].d[ 19] =         0.300352178392;
  BAS[ATNO][  7].a[ 20] =         0.088792000000;     BAS[ATNO][  7].d[ 20] =        -0.090066202681;

  // Basis function   9 L = p
  InitBFNGauss(BAS[ATNO][  8]);
  BAS[ATNO][  8].l  = 1;
  BAS[ATNO][  8].ng = 21;
  BAS[ATNO][  8].a[  0] =      4415.500000000000;     BAS[ATNO][  8].d[  0] =         0.000016433986;
  BAS[ATNO][  8].a[  1] =      1046.300000000000;     BAS[ATNO][  8].d[  1] =         0.000144673125;
  BAS[ATNO][  8].a[  2] =       339.540000000000;     BAS[ATNO][  8].d[  2] =         0.000812518604;
  BAS[ATNO][  8].a[  3] =       128.100000000000;     BAS[ATNO][  8].d[  3] =         0.003496116559;
  BAS[ATNO][  8].a[  4] =        53.823000000000;     BAS[ATNO][  8].d[  4] =         0.010880249825;
  BAS[ATNO][  8].a[  5] =        24.307000000000;     BAS[ATNO][  8].d[  5] =         0.026326165078;
  BAS[ATNO][  8].a[  6] =        11.440000000000;     BAS[ATNO][  8].d[  6] =         0.044916462203;
  BAS[ATNO][  8].a[  7] =         5.513200000000;     BAS[ATNO][  8].d[  7] =         0.051282687908;
  BAS[ATNO][  8].a[  8] =         2.633100000000;     BAS[ATNO][  8].d[  8] =         0.029972041431;
  BAS[ATNO][  8].a[  9] =      1046.300000000000;     BAS[ATNO][  8].d[  9] =        -0.000015230837;
  BAS[ATNO][  8].a[ 10] =       339.540000000000;     BAS[ATNO][  8].d[ 10] =         0.000043526535;
  BAS[ATNO][  8].a[ 11] =       128.100000000000;     BAS[ATNO][  8].d[ 11] =         0.000071505010;
  BAS[ATNO][  8].a[ 12] =        53.823000000000;     BAS[ATNO][  8].d[ 12] =         0.003844890283;
  BAS[ATNO][  8].a[ 13] =        24.307000000000;     BAS[ATNO][  8].d[ 13] =         0.013609702445;
  BAS[ATNO][  8].a[ 14] =        11.440000000000;     BAS[ATNO][  8].d[ 14] =         0.061726705537;
  BAS[ATNO][  8].a[ 15] =         5.513200000000;     BAS[ATNO][  8].d[ 15] =         0.053262611795;
  BAS[ATNO][  8].a[ 16] =         2.633100000000;     BAS[ATNO][  8].d[ 16] =        -0.145325337903;
  BAS[ATNO][  8].a[ 17] =         1.210900000000;     BAS[ATNO][  8].d[ 17] =        -1.367355907869;
  BAS[ATNO][  8].a[ 18] =         0.534110000000;     BAS[ATNO][  8].d[ 18] =         2.081653859857;
  BAS[ATNO][  8].a[ 19] =         0.223140000000;     BAS[ATNO][  8].d[ 19] =        -0.374291216336;
  BAS[ATNO][  8].a[ 20] =         0.088792000000;     BAS[ATNO][  8].d[ 20] =         0.115252196216;

  // Basis function  10 L = p
  InitBFNGauss(BAS[ATNO][  9]);
  BAS[ATNO][  9].l  = 1;
  BAS[ATNO][  9].ng = 21;
  BAS[ATNO][  9].a[  0] =      4415.500000000000;     BAS[ATNO][  9].d[  0] =         0.000006622417;
  BAS[ATNO][  9].a[  1] =      1046.300000000000;     BAS[ATNO][  9].d[  1] =         0.000058299051;
  BAS[ATNO][  9].a[  2] =       339.540000000000;     BAS[ATNO][  9].d[  2] =         0.000327421307;
  BAS[ATNO][  9].a[  3] =       128.100000000000;     BAS[ATNO][  9].d[  3] =         0.001408833036;
  BAS[ATNO][  9].a[  4] =        53.823000000000;     BAS[ATNO][  9].d[  4] =         0.004384423442;
  BAS[ATNO][  9].a[  5] =        24.307000000000;     BAS[ATNO][  9].d[  5] =         0.010608676930;
  BAS[ATNO][  9].a[  6] =        11.440000000000;     BAS[ATNO][  9].d[  6] =         0.018100024631;
  BAS[ATNO][  9].a[  7] =         5.513200000000;     BAS[ATNO][  9].d[  7] =         0.020665427969;
  BAS[ATNO][  9].a[  8] =         2.633100000000;     BAS[ATNO][  9].d[  8] =         0.012077858797;
  BAS[ATNO][  9].a[  9] =      1046.300000000000;     BAS[ATNO][  9].d[  9] =        -0.000010969767;
  BAS[ATNO][  9].a[ 10] =       339.540000000000;     BAS[ATNO][  9].d[ 10] =         0.000031349292;
  BAS[ATNO][  9].a[ 11] =       128.100000000000;     BAS[ATNO][  9].d[ 11] =         0.000051500341;
  BAS[ATNO][  9].a[ 12] =        53.823000000000;     BAS[ATNO][  9].d[ 12] =         0.002769220814;
  BAS[ATNO][  9].a[ 13] =        24.307000000000;     BAS[ATNO][  9].d[ 13] =         0.009802170806;
  BAS[ATNO][  9].a[ 14] =        11.440000000000;     BAS[ATNO][  9].d[ 14] =         0.044457673735;
  BAS[ATNO][  9].a[ 15] =         5.513200000000;     BAS[ATNO][  9].d[ 15] =         0.038361545410;
  BAS[ATNO][  9].a[ 16] =         2.633100000000;     BAS[ATNO][  9].d[ 16] =        -0.104668253420;
  BAS[ATNO][  9].a[ 17] =         1.210900000000;     BAS[ATNO][  9].d[ 17] =        -0.984816252586;
  BAS[ATNO][  9].a[ 18] =         0.534110000000;     BAS[ATNO][  9].d[ 18] =         2.519979759654;
  BAS[ATNO][  9].a[ 19] =         0.223140000000;     BAS[ATNO][  9].d[ 19] =        -2.269764710227;
  BAS[ATNO][  9].a[ 20] =         0.088792000000;     BAS[ATNO][  9].d[ 20] =         0.214199993212;

  // Basis function  11 L = p
  InitBFNGauss(BAS[ATNO][ 10]);
  BAS[ATNO][ 10].l  = 1;
  BAS[ATNO][ 10].ng = 21;
  BAS[ATNO][ 10].a[  0] =      4415.500000000000;     BAS[ATNO][ 10].d[  0] =        -0.000002659291;
  BAS[ATNO][ 10].a[  1] =      1046.300000000000;     BAS[ATNO][ 10].d[  1] =        -0.000023410510;
  BAS[ATNO][ 10].a[  2] =       339.540000000000;     BAS[ATNO][ 10].d[  2] =        -0.000131478978;
  BAS[ATNO][ 10].a[  3] =       128.100000000000;     BAS[ATNO][ 10].d[  3] =        -0.000565729610;
  BAS[ATNO][ 10].a[  4] =        53.823000000000;     BAS[ATNO][ 10].d[  4] =        -0.001760604770;
  BAS[ATNO][ 10].a[  5] =        24.307000000000;     BAS[ATNO][ 10].d[  5] =        -0.004260009887;
  BAS[ATNO][ 10].a[  6] =        11.440000000000;     BAS[ATNO][ 10].d[  6] =        -0.007268228110;
  BAS[ATNO][ 10].a[  7] =         5.513200000000;     BAS[ATNO][ 10].d[  7] =        -0.008298388954;
  BAS[ATNO][ 10].a[  8] =         2.633100000000;     BAS[ATNO][ 10].d[  8] =        -0.004849973114;
  BAS[ATNO][ 10].a[  9] =      1046.300000000000;     BAS[ATNO][ 10].d[  9] =         0.000005868232;
  BAS[ATNO][ 10].a[ 10] =       339.540000000000;     BAS[ATNO][ 10].d[ 10] =        -0.000016770176;
  BAS[ATNO][ 10].a[ 11] =       128.100000000000;     BAS[ATNO][ 10].d[ 11] =        -0.000027549898;
  BAS[ATNO][ 10].a[ 12] =        53.823000000000;     BAS[ATNO][ 10].d[ 12] =        -0.001481383427;
  BAS[ATNO][ 10].a[ 13] =        24.307000000000;     BAS[ATNO][ 10].d[ 13] =        -0.005243631461;
  BAS[ATNO][ 10].a[ 14] =        11.440000000000;     BAS[ATNO][ 10].d[ 14] =        -0.023782452001;
  BAS[ATNO][ 10].a[ 15] =         5.513200000000;     BAS[ATNO][ 10].d[ 15] =        -0.020521352913;
  BAS[ATNO][ 10].a[ 16] =         2.633100000000;     BAS[ATNO][ 10].d[ 16] =         0.055991857061;
  BAS[ATNO][ 10].a[ 17] =         1.210900000000;     BAS[ATNO][ 10].d[ 17] =         0.526823454532;
  BAS[ATNO][ 10].a[ 18] =         0.534110000000;     BAS[ATNO][ 10].d[ 18] =        -1.682199341634;
  BAS[ATNO][ 10].a[ 19] =         0.223140000000;     BAS[ATNO][ 10].d[ 19] =         2.590606272765;
  BAS[ATNO][ 10].a[ 20] =         0.088792000000;     BAS[ATNO][ 10].d[ 20] =        -1.976968437008;

  // Basis function  12 L = d
  InitBFNGauss(BAS[ATNO][ 11]);
  BAS[ATNO][ 11].l  = 2;
  BAS[ATNO][ 11].ng = 4;
  BAS[ATNO][ 11].a[  0] =        10.860000000000;     BAS[ATNO][ 11].d[  0] =         0.320814825091;
  BAS[ATNO][ 11].a[  1] =         2.860000000000;     BAS[ATNO][ 11].d[  1] =         0.766329252728;
  BAS[ATNO][ 11].a[  2] =         0.840000000000;     BAS[ATNO][ 11].d[  2] =         0.077175397747;
  BAS[ATNO][ 11].a[  3] =         0.310000000000;     BAS[ATNO][ 11].d[  3] =        -0.006582690416;

  // Basis function  13 L = d
  InitBFNGauss(BAS[ATNO][ 12]);
  BAS[ATNO][ 12].l  = 2;
  BAS[ATNO][ 12].ng = 4;
  BAS[ATNO][ 12].a[  0] =        10.860000000000;     BAS[ATNO][ 12].d[  0] =        -0.264623340969;
  BAS[ATNO][ 12].a[  1] =         2.860000000000;     BAS[ATNO][ 12].d[  1] =        -0.390671390414;
  BAS[ATNO][ 12].a[  2] =         0.840000000000;     BAS[ATNO][ 12].d[  2] =         1.077529718771;
  BAS[ATNO][ 12].a[  3] =         0.310000000000;     BAS[ATNO][ 12].d[  3] =         0.019937472071;

  // Basis function  14 L = d
  InitBFNGauss(BAS[ATNO][ 13]);
  BAS[ATNO][ 13].l  = 2;
  BAS[ATNO][ 13].ng = 4;
  BAS[ATNO][ 13].a[  0] =        10.860000000000;     BAS[ATNO][ 13].d[  0] =         0.183421119177;
  BAS[ATNO][ 13].a[  1] =         2.860000000000;     BAS[ATNO][ 13].d[  1] =         0.148495882225;
  BAS[ATNO][ 13].a[  2] =         0.840000000000;     BAS[ATNO][ 13].d[  2] =        -0.978657063962;
  BAS[ATNO][ 13].a[  3] =         0.310000000000;     BAS[ATNO][ 13].d[  3] =         1.346400910501;

  // Basis function  15 L = d
  InitBFNGauss(BAS[ATNO][ 14]);
  BAS[ATNO][ 14].l  = 2;
  BAS[ATNO][ 14].ng = 4;
  BAS[ATNO][ 14].a[  0] =        10.860000000000;     BAS[ATNO][ 14].d[  0] =        -1.087575828459;
  BAS[ATNO][ 14].a[  1] =         2.860000000000;     BAS[ATNO][ 14].d[  1] =         1.168311581251;
  BAS[ATNO][ 14].a[  2] =         0.840000000000;     BAS[ATNO][ 14].d[  2] =        -0.838515559871;
  BAS[ATNO][ 14].a[  3] =         0.310000000000;     BAS[ATNO][ 14].d[  3] =         0.399196917809;

  // Basis function  16 L = f
  InitBFNGauss(BAS[ATNO][ 15]);
  BAS[ATNO][ 15].l  = 3;
  BAS[ATNO][ 15].ng = 2;
  BAS[ATNO][ 15].a[  0] =         1.910000000000;     BAS[ATNO][ 15].d[  0] =         0.786492091667;
  BAS[ATNO][ 15].a[  1] =         0.630000000000;     BAS[ATNO][ 15].d[  1] =         0.332721975757;

  // Basis function  17 L = f
  InitBFNGauss(BAS[ATNO][ 16]);
  BAS[ATNO][ 16].l  = 3;
  BAS[ATNO][ 16].ng = 2;
  BAS[ATNO][ 16].a[  0] =         1.910000000000;     BAS[ATNO][ 16].d[  0] =        -0.864153826102;
  BAS[ATNO][ 16].a[  1] =         0.630000000000;     BAS[ATNO][ 16].d[  1] =         1.120101661578;

  // Basis function  18 L = g
  InitBFNGauss(BAS[ATNO][ 17]);
  BAS[ATNO][ 17].l  = 4;
  BAS[ATNO][ 17].ng = 1;
  BAS[ATNO][ 17].a[  0] =         0.930000000000;     BAS[ATNO][ 17].d[  0] =         1.000000000000;

-------
TIMINGS
-------

Total SCF time: 0 days 0 hours 0 min 1 sec 

Total time                  ....       1.489 sec
Sum of individual times     ....       1.295 sec  ( 87.0%)

Fock matrix formation       ....       0.829 sec  ( 55.7%)
  XC integration            ....       0.017 sec  (  2.1% of F)
    Basis function eval.    ....       0.004 sec  ( 22.0% of XC)
    Density eval.           ....       0.001 sec  (  7.8% of XC)
    XC-Functional eval.     ....       0.001 sec  (  7.2% of XC)
    XC-Potential eval.      ....       0.002 sec  ( 13.0% of XC)
Diagonalization             ....       0.001 sec  (  0.1%)
Density matrix formation    ....       0.001 sec  (  0.0%)
Population analysis         ....       0.001 sec  (  0.1%)
Initial guess               ....       0.090 sec  (  6.0%)
Orbital Transformation      ....       0.000 sec  (  0.0%)
Orbital Orthonormalization  ....       0.000 sec  (  0.0%)
DIIS solution               ....       0.000 sec  (  0.0%)
SOSCF solution              ....       0.001 sec  (  0.1%)
Grid generation             ....       0.373 sec  ( 25.0%)

-------------------------   --------------------
FINAL SINGLE POINT ENERGY      -311.530529256655
-------------------------   --------------------


                            ***************************************
                            *     ORCA property calculations      *
                            ***************************************

                                    ---------------------
                                    Active property flags
                                    ---------------------
   (+) Dipole Moment


------------------------------------------------------------------------------
                       ORCA ELECTRIC PROPERTIES CALCULATION
------------------------------------------------------------------------------

Dipole Moment Calculation                       ... on
Quadrupole Moment Calculation                   ... off
Polarizability Calculation                      ... off
GBWName                                         ... Ar_pc-3_.gbw
Electron density file                           ... Ar_pc-3_.scfp
The origin for moment calculation is the CENTER OF MASS  = ( 0.000000,  0.000000  0.000000)

-------------
DIPOLE MOMENT
-------------
                                X             Y             Z
Electronic contribution:     -0.00000       0.00000       0.00000
Nuclear contribution   :      0.00000       0.00000       0.00000
                        -----------------------------------------
Total Dipole Moment    :     -0.00000       0.00000       0.00000
                        -----------------------------------------
Magnitude (a.u.)       :      0.00000
Magnitude (Debye)      :      0.00000



--------------------
Rotational spectrum 
--------------------
 
Rotational constants in cm-1:     0.000000     0.000000     0.000000 
Rotational constants in MHz :     0.000000     0.000000     0.000000 

 Dipole components along the rotational axes: 
x,y,z [a.u.] :    -0.000000     0.000000     0.000000 
x,y,z [Debye]:    -0.000000     0.000000     0.000000 

 

Timings for individual modules:

Sum of individual times         ...        2.306 sec (=   0.038 min)
GTO integral calculation        ...        0.572 sec (=   0.010 min)  24.8 %
SCF iterations                  ...        1.734 sec (=   0.029 min)  75.2 %
                             ****ORCA TERMINATED NORMALLY****
TOTAL RUN TIME: 0 days 0 hours 0 minutes 2 seconds 640 msec
