
                                 *****************
                                 * O   R   C   A *
                                 *****************

           --- An Ab Initio, DFT and Semiempirical electronic structure package ---

                  #######################################################
                  #                        -***-                        #
                  #          Department of theory and spectroscopy      #
                  #               Directorship: Frank Neese             #
                  #        Max Planck Institute fuer Kohlenforschung    #
                  #                Kaiser Wilhelm Platz 1               #
                  #                 D-45470 Muelheim/Ruhr               #
                  #                      Germany                        #
                  #                                                     #
                  #                  All rights reserved                #
                  #                        -***-                        #
                  #######################################################


                         Program Version 4.2.1 -  RELEASE  -


 With contributions from (in alphabetic order):
   Daniel Aravena         : Magnetic Suceptibility
   Michael Atanasov       : Ab Initio Ligand Field Theory (pilot matlab implementation)
   Alexander A. Auer      : GIAO ZORA, VPT2
   Ute Becker             : Parallelization
   Giovanni Bistoni       : ED, misc. LED, open-shell LED, HFLD
   Martin Brehm           : Molecular dynamics
   Dmytro Bykov           : SCF Hessian
   Vijay G. Chilkuri      : MRCI spin determinant printing, contributions to CSF-ICE
   Dipayan Datta          : RHF DLPNO-CCSD density
   Achintya Kumar Dutta   : EOM-CC, STEOM-CC
   Dmitry Ganyushin       : Spin-Orbit,Spin-Spin,Magnetic field MRCI
   Miquel Garcia          : C-PCM Hessian, Gaussian charge scheme
   Yang Guo               : DLPNO-NEVPT2, CIM, IAO-localization
   Andreas Hansen         : Spin unrestricted coupled pair/coupled cluster methods
   Benjamin Helmich-Paris : CASSCF linear response (MC-RPA)
   Lee Huntington         : MR-EOM, pCC
   Robert Izsak           : Overlap fitted RIJCOSX, COSX-SCS-MP3, EOM
   Christian Kollmar      : KDIIS, OOCD, Brueckner-CCSD(T), CCSD density
   Simone Kossmann        : Meta GGA functionals, TD-DFT gradient, OOMP2, MP2 Hessian
   Martin Krupicka        : AUTO-CI
   Lucas Lang             : DCDCAS
   Dagmar Lenk            : GEPOL surface, SMD
   Dimitrios Liakos       : Extrapolation schemes; Compound Job, initial MDCI parallelization
   Dimitrios Manganas     : Further ROCIS development; embedding schemes
   Dimitrios Pantazis     : SARC Basis sets
   Taras Petrenko         : DFT Hessian,TD-DFT gradient, ASA, ECA, R-Raman, ABS, FL, XAS/XES, NRVS
   Peter Pinski           : DLPNO-MP2, DLPNO-MP2 Gradient
   Christoph Reimann      : Effective Core Potentials
   Marius Retegan         : Local ZFS, SOC
   Christoph Riplinger    : Optimizer, TS searches, QM/MM, DLPNO-CCSD(T), (RO)-DLPNO pert. Triples
   Tobias Risthaus        : Range-separated hybrids, TD-DFT gradient, RPA, STAB
   Michael Roemelt        : Original ROCIS implementation
   Masaaki Saitow         : Open-shell DLPNO-CCSD energy and density
   Barbara Sandhoefer     : DKH picture change effects
   Avijit Sen             : IP-ROCIS
   Kantharuban Sivalingam : CASSCF convergence, NEVPT2, FIC-MRCI
   Bernardo de Souza      : ESD, SOC TD-DFT
   Georgi Stoychev        : AutoAux, RI-MP2 NMR
   Willem Van den Heuvel  : Paramagnetic NMR
   Boris Wezisla          : Elementary symmetry handling
   Frank Wennmohs         : Technical directorship


 We gratefully acknowledge several colleagues who have allowed us to
 interface, adapt or use parts of their codes:
   Stefan Grimme, W. Hujo, H. Kruse,             : VdW corrections, initial TS optimization,
                  C. Bannwarth                     DFT functionals, gCP, sTDA/sTD-DF
   Ed Valeev, F. Pavosevic, A. Kumar             : LibInt (2-el integral package), F12 methods
   Garnet Chan, S. Sharma, J. Yang, R. Olivares  : DMRG
   Ulf Ekstrom                                   : XCFun DFT Library
   Mihaly Kallay                                 : mrcc  (arbitrary order and MRCC methods)
   Andreas Klamt, Michael Diedenhofen            : otool_cosmo (COSMO solvation model)
   Jiri Pittner, Ondrej Demel                    : Mk-CCSD
   Frank Weinhold                                : gennbo (NPA and NBO analysis)
   Christopher J. Cramer and Donald G. Truhlar   : smd solvation model
   Lars Goerigk                                  : TD-DFT with DH, B97 family of functionals
   V. Asgeirsson, H. Jonsson                     : NEB implementation
   FAccTs GmbH                                   : IRC, NEB, NEB-TS, Multilevel, MM, QM/MM, CI optimization
   S Lehtola, MJT Oliveira, MAL Marques          : LibXC Library


 Your calculation uses the libint2 library for the computation of 2-el integrals
 For citations please refer to: http://libint.valeyev.net

 Your ORCA version has been built with support for libXC version: 4.2.3
 For citations please refer to: https://tddft.org/programs/libxc/

 This ORCA versions uses:
   CBLAS   interface :  Fast vector & matrix operations
   LAPACKE interface :  Fast linear algebra routines
   SCALAPACK package :  Parallel linear algebra routines


----- Orbital basis set information -----
Your calculation utilizes the basis: pc-2
   H, C-F              : F. Jensen, J. Chem. Phys. 115, 9113 (2001).
                         F. Jensen, J. Chem. Phys. 116, 7372 (2002).
                         F. Jensen, J. Chem. Phys. 117, 9234 (2002).
   Si-Cl               : F. Jensen, T. Helgaker, J. Chem. Phys. 121, 3463 (2004).
   He-B, Ne-Mg, Al, Ar : F. Jensen, J. Phys. Chem. A 111, 11198 (2007).
   K, Ca, Ga-Kr        : F. Jensen, J. Chem. Phys. 136, 094110 (2012).
   Sc-Zn               : F. Jensen, J. Chem. Phys. 138, 014107 (2013).

================================================================================
                                        WARNINGS
                       Please study these warnings very carefully!
================================================================================


INFO   : the flag for use of LIBINT has been found!

================================================================================
                                       INPUT FILE
================================================================================
NAME = Ar_pc-2_.inp
|  1> ! LDA pc-2 nori grid5 finalgrid6 verytightscf
|  2> %Pal NProcs 18 End
|  3> 
|  4> *xyz 16 1
|  5> Ar 0.0 0.0 0.0
|  6> **                         ****END OF INPUT****
================================================================================

                       ****************************
                       * Single Point Calculation *
                       ****************************

---------------------------------
CARTESIAN COORDINATES (ANGSTROEM)
---------------------------------
  Ar     0.000000    0.000000    0.000000

----------------------------
CARTESIAN COORDINATES (A.U.)
----------------------------
  NO LB      ZA    FRAG     MASS         X           Y           Z
   0 Ar   18.0000    0    39.948    0.000000    0.000000    0.000000

--------------------------------
INTERNAL COORDINATES (ANGSTROEM)
--------------------------------
 Ar     0   0   0     0.000000000000     0.00000000     0.00000000

---------------------------
INTERNAL COORDINATES (A.U.)
---------------------------
 Ar     0   0   0     0.000000000000     0.00000000     0.00000000

---------------------
BASIS SET INFORMATION
---------------------
There are 1 groups of distinct atoms

 Group   1 Type Ar  : 29s16p2d1f contracted to 5s4p2d1f pattern {99911/7711/11/1}

Atom   0Ar   basis set group =>   1


           ************************************************************
           *        Program running with 18 parallel MPI-processes    *
           *              working on a common directory               *
           ************************************************************
------------------------------------------------------------------------------
                           ORCA GTO INTEGRAL CALCULATION
------------------------------------------------------------------------------

                         BASIS SET STATISTICS AND STARTUP INFO

 # of primitive gaussian shells          ...   48
 # of primitive gaussian functions       ...   94
 # of contracted shells                  ...   12
 # of contracted basis functions         ...   34
 Highest angular momentum                ...    3
 Maximum contraction depth               ...    9
 Integral package used                   ... LIBINT
 Integral threshhold            Thresh   ...  1.000e-12
 Primitive cut-off              TCut     ...  1.000e-14


------------------------------ INTEGRAL EVALUATION ----------------------------


 * One electron integrals 
 Pre-screening matrix                    ... done
 Shell pair data                         ... done (   0.000 sec)



           ************************************************************
           *        Program running with 18 parallel MPI-processes    *
           *              working on a common directory               *
           ************************************************************
-------------------------------------------------------------------------------
                                 ORCA SCF
-------------------------------------------------------------------------------

------------
SCF SETTINGS
------------
Hamiltonian:
 Density Functional     Method          .... DFT(GTOs)
 Exchange Functional    Exchange        .... Slater
   X-Alpha parameter    XAlpha          ....  0.666667
 Correlation Functional Correlation     .... VWN-5
 Gradients option       PostSCFGGA      .... off
   Density functional embedding theory  .... OFF


General Settings:
 Integral files         IntName         .... Ar_pc-2_
 Hartree-Fock type      HFTyp           .... RHF
 Total Charge           Charge          ....   16
 Multiplicity           Mult            ....    1
 Number of Electrons    NEL             ....    2
 Basis Dimension        Dim             ....   34
 Nuclear Repulsion      ENuc            ....      0.0000000000 Eh

Convergence Acceleration:
 DIIS                   CNVDIIS         .... on
   Start iteration      DIISMaxIt       ....    12
   Startup error        DIISStart       ....  0.200000
   # of expansion vecs  DIISMaxEq       ....     5
   Bias factor          DIISBfac        ....   1.050
   Max. coefficient     DIISMaxC        ....  10.000
 Newton-Raphson         CNVNR           .... off
 SOSCF                  CNVSOSCF        .... on
   Start iteration      SOSCFMaxIt      ....   150
   Startup grad/error   SOSCFStart      ....  0.003300
 Level Shifting         CNVShift        .... on
   Level shift para.    LevelShift      ....    0.2500
   Turn off err/grad.   ShiftErr        ....    0.0010
 Zerner damping         CNVZerner       .... off
 Static damping         CNVDamp         .... on
   Fraction old density DampFac         ....    0.7000
   Max. Damping (<1)    DampMax         ....    0.9800
   Min. Damping (>=0)   DampMin         ....    0.0000
   Turn off err/grad.   DampErr         ....    0.1000
 Fernandez-Rico         CNVRico         .... off

SCF Procedure:
 Maximum # iterations   MaxIter         ....   125
 SCF integral mode      SCFMode         .... Direct
   Integral package                     .... LIBINT
 Reset frequency        DirectResetFreq ....    20
 Integral Threshold     Thresh          ....  1.000e-12 Eh
 Primitive CutOff       TCut            ....  1.000e-14 Eh

Convergence Tolerance:
 Convergence Check Mode ConvCheckMode   .... Total+1el-Energy
 Convergence forced     ConvForced      .... 0
 Energy Change          TolE            ....  1.000e-09 Eh
 1-El. energy change                    ....  1.000e-06 Eh
 Orbital Gradient       TolG            ....  2.000e-06
 Orbital Rotation angle TolX            ....  2.000e-06
 DIIS Error             TolErr          ....  1.000e-08


Diagonalization of the overlap matrix:
Smallest eigenvalue                        ... 1.862e-02
Time for diagonalization                   ...    0.001 sec
Threshold for overlap eigenvalues          ... 1.000e-08
Number of eigenvalues below threshold      ... 0
Time for construction of square roots      ...    0.001 sec
Total time needed                          ...    0.002 sec

-------------------
DFT GRID GENERATION
-------------------

General Integration Accuracy     IntAcc      ...  5.010
Radial Grid Type                 RadialGrid  ... Gauss-Chebyshev
Angular Grid (max. acc.)         AngularGrid ... Lebedev-434
Angular grid pruning method      GridPruning ... 3 (G Style)
Weight generation scheme         WeightScheme... Becke
Basis function cutoff            BFCut       ...    1.0000e-12
Integration weight cutoff        WCut        ...    1.0000e-14
Grids for H and He will be reduced by one unit

# of grid points (after initial pruning)     ...  11992 (   0.0 sec)
# of grid points (after weights+screening)   ...  11992 (   0.0 sec)
Grid point division into batches done        ...    0.1 sec
Reduced shell lists constructed in    0.1 sec

Total number of grid points                  ...    11992
Total number of batches                      ...      188
Average number of points per batch           ...       63
Average number of grid points per atom       ...    11992
Average number of shells per batch           ...     0.00 ( 0.00%)
Average number of basis functions per batch  ...     0.00 ( 0.00%)
Average number of large shells per batch     ...     0.00 ( -nan%)
Average number of large basis fcns per batch ...     0.00 ( -nan%)
Maximum spatial batch extension              ...  18.71, 18.71, 18.71 au
Average spatial batch extension              ...   0.97,  0.98,  0.97 au

Time for grid setup =    0.155 sec

------------------------------
INITIAL GUESS: MODEL POTENTIAL
------------------------------
Loading Hartree-Fock densities                     ... done
Calculating cut-offs                               ... done
Setting up the integral package                    ... done
Initializing the effective Hamiltonian             ... done
Starting the Coulomb interaction                   ... done (   0.0 sec)
Reading the grid                                   ... done
Mapping shells                                     ... done
Starting the XC term evaluation                    ... done (   0.0 sec)
  promolecular density results
     # of electrons  =     17.999998971
     EX              =    -27.869847309
     EC              =     -1.431662733
     EX+EC           =    -29.301510042
Transforming the Hamiltonian                       ... done (   0.0 sec)
Diagonalizing the Hamiltonian                      ... done (   0.0 sec)
Back transforming the eigenvectors                 ... done (   0.0 sec)
Now organizing SCF variables                       ... done
                      ------------------
                      INITIAL GUESS DONE (   0.2 sec)
                      ------------------
--------------
SCF ITERATIONS
--------------
ITER       Energy         Delta-E        Max-DP      RMS-DP      [F,P]     Damp
               ***  Starting incremental Fock matrix formation  ***
  0   -311.5081954525   0.000000000000 0.00964078  0.00031208  2.1030537 0.7000
                      *** Initiating the SOSCF procedure ***
                      *** Re-Reading the Fockian *** 
                      *** Removing any level shift *** 
ITER      Energy       Delta-E        Grad      Rot      Max-DP    RMS-DP
  1   -311.51447158  -0.0062761267  0.000520  0.000520  0.022524  0.000729
               *** Restarting incremental Fock matrix formation ***
  2   -311.52902544  -0.0145538645  0.004566  0.000041  0.000063  0.000003
  3   -311.52902584  -0.0000004005  0.000028  0.000000  0.000000  0.000000
                 **** Energy Check signals convergence ****
              ***Rediagonalizing the Fockian in SOSCF/NRSCF***

               *****************************************************
               *                     SUCCESS                       *
               *           SCF CONVERGED AFTER   4 CYCLES          *
               *****************************************************

Setting up the final grid:

General Integration Accuracy     IntAcc      ...  5.340
Radial Grid Type                 RadialGrid  ... Gauss-Chebyshev
Angular Grid (max. acc.)         AngularGrid ... Lebedev-590
Angular grid pruning method      GridPruning ... 3 (G Style)
Weight generation scheme         WeightScheme... Becke
Basis function cutoff            BFCut       ...    1.0000e-12
Integration weight cutoff        WCut        ...    1.0000e-14
Grids for H and He will be reduced by one unit

# of grid points (after initial pruning)     ...  18110 (   0.0 sec)
# of grid points (after weights+screening)   ...  18110 (   0.0 sec)
Grid point division into batches done        ...    0.2 sec
Reduced shell lists constructed in    0.2 sec

Total number of grid points                  ...    18110
Total number of batches                      ...      283
Average number of points per batch           ...       63
Average number of grid points per atom       ...    18110
Average number of shells per batch           ...     0.00 ( 0.00%)
Average number of basis functions per batch  ...     0.00 ( 0.00%)
Average number of large shells per batch     ...     0.00 ( -nan%)
Average number of large basis fcns per batch ...     0.00 ( -nan%)
Maximum spatial batch extension              ...  19.03, 19.03, 19.03 au
Average spatial batch extension              ...   0.84,  0.84,  0.80 au

Final grid set up in    0.2 sec
Final integration                            ... done (   0.0 sec)
Change in XC energy                          ...    -0.000000505
Integrated number of electrons               ...     2.000000068
Previous integrated no of electrons          ...     2.000000012

----------------
TOTAL SCF ENERGY
----------------

Total Energy       :         -311.52902635 Eh           -8477.13578 eV

Components:
Nuclear Repulsion  :            0.00000000 Eh               0.00000 eV
Electronic Energy  :         -311.52902635 Eh           -8477.13578 eV
One Electron Energy:         -323.80569220 Eh           -8811.20084 eV
Two Electron Energy:           12.27666586 Eh             334.06506 eV

Virial components:
Potential Energy   :         -621.12659014 Eh          -16901.71378 eV
Kinetic Energy     :          309.59756379 Eh            8424.57801 eV
Virial Ratio       :            2.00623862


DFT components:
N(Alpha)           :        1.000000034112 electrons
N(Beta)            :        1.000000034112 electrons
N(Total)           :        2.000000068225 electrons
E(X)               :       -9.404392329059 Eh       
E(C)               :       -0.236728561104 Eh       
E(XC)              :       -9.641120890162 Eh       
DFET-embed. en.    :        0.000000000000 Eh       

---------------
SCF CONVERGENCE
---------------

  Last Energy change         ...   -1.5064e-11  Tolerance :   1.0000e-09
  Last MAX-Density change    ...    0.0000e+00  Tolerance :   1.0000e-08
  Last RMS-Density change    ...    0.0000e+00  Tolerance :   1.0000e-09
  Last Orbital Gradient      ...    1.1144e-10  Tolerance :   2.0000e-06
  Last Orbital Rotation      ...    0.0000e+00  Tolerance :   2.0000e-06

================================================================================
                                        WARNING
Number of found core electrons (2) does not match given number of chemical core electrons (10)
================================================================================
             **** THE GBW FILE WAS UPDATED (Ar_pc-2_.gbw) ****
             **** DENSITY FILE WAS UPDATED (Ar_pc-2_.scfp) ****
             **** ENERGY FILE WAS UPDATED (Ar_pc-2_.en.tmp) ****
             **** THE GBW FILE WAS UPDATED (Ar_pc-2_.gbw) ****
             **** DENSITY FILE WAS UPDATED (Ar_pc-2_.scfp) ****
----------------
ORBITAL ENERGIES
----------------

  NO   OCC          E(Eh)            E(eV) 
   0   2.0000    -146.382567     -3983.2722 
   1   0.0000     -33.830984      -920.5879 
   2   0.0000     -32.698159      -889.7621 
   3   0.0000     -32.698159      -889.7621 
   4   0.0000     -32.698159      -889.7621 
   5   0.0000     -13.581682      -369.5764 
   6   0.0000     -13.242324      -360.3419 
   7   0.0000     -13.242324      -360.3419 
   8   0.0000     -13.242324      -360.3419 
   9   0.0000     -12.848993      -349.6389 
  10   0.0000     -12.848993      -349.6389 
  11   0.0000     -12.848993      -349.6389 
  12   0.0000     -12.848993      -349.6389 
  13   0.0000     -12.848993      -349.6389 
  14   0.0000      -6.991192      -190.2400 
  15   0.0000      -6.991192      -190.2400 
  16   0.0000      -6.991192      -190.2400 
  17   0.0000      -6.991192      -190.2400 
  18   0.0000      -6.991192      -190.2400 
  19   0.0000      -6.952842      -189.1964 
  20   0.0000      -6.952842      -189.1964 
  21   0.0000      -6.952842      -189.1964 
  22   0.0000      -6.802106      -185.0947 
  23   0.0000      -6.802106      -185.0947 
  24   0.0000      -6.802106      -185.0947 
  25   0.0000      -6.802106      -185.0947 
  26   0.0000      -6.802106      -185.0947 
  27   0.0000      -6.802106      -185.0947 
  28   0.0000      -6.802106      -185.0947 
  29   0.0000      -6.658201      -181.1788 
  30   0.0000      -4.060256      -110.4852 
  31   0.0000      -4.060256      -110.4852 
  32   0.0000      -4.060256      -110.4852 
  33   0.0000      12.162022       330.9454 

                    ********************************
                    * MULLIKEN POPULATION ANALYSIS *
                    ********************************

-----------------------
MULLIKEN ATOMIC CHARGES
-----------------------
   0 Ar:   16.000000
Sum of atomic charges:   16.0000000

--------------------------------
MULLIKEN REDUCED ORBITAL CHARGES
--------------------------------
  0 Ars       :     2.000000  s :     2.000000
      pz      :     0.000000  p :     0.000000
      px      :     0.000000
      py      :     0.000000
      dz2     :     0.000000  d :     0.000000
      dxz     :     0.000000
      dyz     :     0.000000
      dx2y2   :     0.000000
      dxy     :     0.000000
      f0      :     0.000000  f :     0.000000
      f+1     :     0.000000
      f-1     :     0.000000
      f+2     :     0.000000
      f-2     :     0.000000
      f+3     :     0.000000
      f-3     :     0.000000


                     *******************************
                     * LOEWDIN POPULATION ANALYSIS *
                     *******************************

----------------------
LOEWDIN ATOMIC CHARGES
----------------------
   0 Ar:   16.000000

-------------------------------
LOEWDIN REDUCED ORBITAL CHARGES
-------------------------------
  0 Ars       :     2.000000  s :     2.000000
      pz      :     0.000000  p :     0.000000
      px      :     0.000000
      py      :     0.000000
      dz2     :     0.000000  d :     0.000000
      dxz     :     0.000000
      dyz     :     0.000000
      dx2y2   :     0.000000
      dxy     :     0.000000
      f0      :     0.000000  f :     0.000000
      f+1     :     0.000000
      f-1     :     0.000000
      f+2     :     0.000000
      f-2     :     0.000000
      f+3     :     0.000000
      f-3     :     0.000000


                      *****************************
                      * MAYER POPULATION ANALYSIS *
                      *****************************

  NA   - Mulliken gross atomic population
  ZA   - Total nuclear charge
  QA   - Mulliken gross atomic charge
  VA   - Mayer's total valence
  BVA  - Mayer's bonded valence
  FA   - Mayer's free valence

  ATOM       NA         ZA         QA         VA         BVA        FA
  0 Ar     2.0000    18.0000    16.0000     0.0000     0.0000     0.0000

  Mayer bond orders larger than 0.100000


--------------------------
ATOM BASIS FOR ELEMENT Ar
--------------------------
 NewGTO Ar
 S 29
    1     232510.000000000000         0.000132337469
    2      34844.000000000000         0.001026854713
    3       7930.300000000000         0.005364962354
    4       2245.700000000000         0.022094193649
    5        732.220000000000         0.074715204848
    6        263.770000000000         0.199586745885
    7        102.190000000000         0.375253760877
    8         41.525000000000         0.368043487954
    9         17.202000000000         0.103424474376
   10      34844.000000000000         0.000000161540
   11       7930.300000000000         0.000000055414
   12       2245.700000000000         0.000010879591
   13        732.220000000000         0.000052085435
   14        263.770000000000         0.000561020365
   15        102.190000000000         0.002246048590
   16         41.525000000000         0.006967064586
   17         17.202000000000        -0.002731105787
   18          6.596700000000        -0.019024645025
   19       7930.300000000000        -0.000000039844
   20       2245.700000000000        -0.000000502556
   21        732.220000000000        -0.000005869172
   22        263.770000000000        -0.000043854188
   23        102.190000000000        -0.000230778206
   24         41.525000000000        -0.000640779185
   25         17.202000000000         0.000047235429
   26          6.596700000000         0.005293171645
   27          2.647700000000         0.006831721336
   28          0.661930000000        -0.001963894383
   29          0.229010000000         0.000664084023
 S 29
    1     232510.000000000000         0.000028673285
    2      34844.000000000000         0.000222486483
    3       7930.300000000000         0.001162415276
    4       2245.700000000000         0.004787103153
    5        732.220000000000         0.016188388604
    6        263.770000000000         0.043244046633
    7        102.190000000000         0.081305454742
    8         41.525000000000         0.079743219849
    9         17.202000000000         0.022408766540
   10      34844.000000000000         0.000004154530
   11       7930.300000000000         0.000001425140
   12       2245.700000000000         0.000279804103
   13        732.220000000000         0.001339546554
   14        263.770000000000         0.014428465296
   15        102.190000000000         0.057764452289
   16         41.525000000000         0.179180749564
   17         17.202000000000        -0.070239277383
   18          6.596700000000        -0.489280688253
   19       7930.300000000000         0.000002181016
   20       2245.700000000000         0.000027509162
   21        732.220000000000         0.000321269629
   22        263.770000000000         0.002400512156
   23        102.190000000000         0.012632451079
   24         41.525000000000         0.035075286593
   25         17.202000000000        -0.002585596201
   26          6.596700000000        -0.289740236156
   27          2.647700000000        -0.373958126803
   28          0.661930000000         0.095354309481
   29          0.229010000000        -0.037835784043
 S 29
    1     232510.000000000000        -0.000004299973
    2      34844.000000000000        -0.000033365058
    3       7930.300000000000        -0.000174320942
    4       2245.700000000000        -0.000717895186
    5        732.220000000000        -0.002427682437
    6        263.770000000000        -0.006485068716
    7        102.190000000000        -0.012192926011
    8         41.525000000000        -0.011958646349
    9         17.202000000000        -0.003360517856
   10      34844.000000000000         0.000004330024
   11       7930.300000000000         0.000001485340
   12       2245.700000000000         0.000291623482
   13        732.220000000000         0.001396131171
   14        263.770000000000         0.015037947054
   15        102.190000000000         0.060204516372
   16         41.525000000000         0.186749634823
   17         17.202000000000        -0.073206298295
   18          6.596700000000        -0.509948697498
   19       7930.300000000000         0.000000645204
   20       2245.700000000000         0.000008137963
   21        732.220000000000         0.000095040347
   22        263.770000000000         0.000710137181
   23        102.190000000000         0.003737024691
   24         41.525000000000         0.010376229538
   25         17.202000000000        -0.000764890106
   26          6.596700000000        -0.085713090005
   27          2.647700000000        -0.110627046509
   28          0.661930000000         1.456546402367
   29          0.229010000000        -0.351572368538
 S 29
    1     232510.000000000000        -0.000007023164
    2      34844.000000000000        -0.000054495289
    3       7930.300000000000        -0.000284719126
    4       2245.700000000000        -0.001172541219
    5        732.220000000000        -0.003965143910
    6        263.770000000000        -0.010592089945
    7        102.190000000000        -0.019914757213
    8         41.525000000000        -0.019532107258
    9         17.202000000000        -0.005488747914
   10      34844.000000000000         0.000002836652
   11       7930.300000000000         0.000000973064
   12       2245.700000000000         0.000191046108
   13        732.220000000000         0.000914622599
   14        263.770000000000         0.009851542962
   15        102.190000000000         0.039440714706
   16         41.525000000000         0.122341968880
   17         17.202000000000        -0.047958340997
   18          6.596700000000        -0.334073626109
   19       7930.300000000000        -0.000000302051
   20       2245.700000000000        -0.000003809768
   21        732.220000000000        -0.000044492916
   22        263.770000000000        -0.000332449059
   23        102.190000000000        -0.001749479364
   24         41.525000000000        -0.004857607577
   25         17.202000000000         0.000358081513
   26          6.596700000000         0.040126382508
   27          2.647700000000         0.051789792944
   28          0.661930000000         1.356960388016
   29          0.229010000000        -1.760228870553
 S 29
    1     232510.000000000000        -0.000138828155
    2      34844.000000000000        -0.001077218313
    3       7930.300000000000        -0.005628094825
    4       2245.700000000000        -0.023177835880
    5        732.220000000000        -0.078379721985
    6        263.770000000000        -0.209375771453
    7        102.190000000000        -0.393658633622
    8         41.525000000000        -0.386094722256
    9         17.202000000000        -0.108497079871
   10      34844.000000000000         0.000038117953
   11       7930.300000000000         0.000013075705
   12       2245.700000000000         0.002567212243
   13        732.220000000000         0.012290385582
   14        263.770000000000         0.132381664031
   15        102.190000000000         0.529990831242
   16         41.525000000000         1.643989523676
   17         17.202000000000        -0.644447779398
   18          6.596700000000        -4.489167098484
   19       7930.300000000000        -0.000018692341
   20       2245.700000000000        -0.000235766614
   21        732.220000000000        -0.002753433617
   22        263.770000000000        -0.020573531633
   23        102.190000000000        -0.108266117792
   24         41.525000000000        -0.300611899150
   25         17.202000000000         0.022159789980
   26          6.596700000000         2.483211717145
   27          2.647700000000         3.204999121005
   28          0.661930000000        -2.186416918240
   29          0.229010000000         0.973396150672
 P 16
    1       1297.700000000000         0.001037610154
    2        307.860000000000         0.008661775954
    3         99.096000000000         0.044310884703
    4         36.837000000000         0.150936315513
    5         15.027000000000         0.337784833625
    6          6.366200000000         0.456123021098
    7          2.711000000000         0.273794874743
    8        307.860000000000         0.000007639701
    9         99.096000000000         0.000113662638
   10         36.837000000000         0.001076328690
   11         15.027000000000         0.004961503604
   12          6.366200000000         0.011347284156
   13          2.711000000000        -0.025690358074
   14          1.018200000000        -0.216632270804
   15          0.382740000000         0.127820710528
   16          0.129460000000        -0.041336291577
 P 16
    1       1297.700000000000         0.000344832383
    2        307.860000000000         0.002878596388
    3         99.096000000000         0.014725981521
    4         36.837000000000         0.050161160357
    5         15.027000000000         0.112257140689
    6          6.366200000000         0.151584858330
    7          2.711000000000         0.090991147957
    8        307.860000000000         0.000044721623
    9         99.096000000000         0.000665363426
   10         36.837000000000         0.006300660956
   11         15.027000000000         0.029043871395
   12          6.366200000000         0.066425238804
   13          2.711000000000        -0.150387365527
   14          1.018200000000        -1.268131662471
   15          0.382740000000         0.411840554604
   16          0.129460000000        -0.123088035476
 P 16
    1       1297.700000000000         0.000120831686
    2        307.860000000000         0.001008680372
    3         99.096000000000         0.005160087248
    4         36.837000000000         0.017576822539
    5         15.027000000000         0.039335689737
    6          6.366200000000         0.053116397937
    7          2.711000000000         0.031883936673
    8        307.860000000000         0.000035043237
    9         99.096000000000         0.000521369450
   10         36.837000000000         0.004937109574
   11         15.027000000000         0.022758370356
   12          6.366200000000         0.052049885676
   13          2.711000000000        -0.117841430812
   14          1.018200000000        -0.993690188274
   15          0.382740000000         1.701845905866
   16          0.129460000000        -0.229375312610
 P 16
    1       1297.700000000000         0.000044502738
    2        307.860000000000         0.000371500555
    3         99.096000000000         0.001900478419
    4         36.837000000000         0.006473606027
    5         15.027000000000         0.014487473921
    6          6.366200000000         0.019562957585
    7          2.711000000000         0.011742966862
    8        307.860000000000         0.000017394322
    9         99.096000000000         0.000258790827
   10         36.837000000000         0.002450620517
   11         15.027000000000         0.011296514387
   12          6.366200000000         0.025835869318
   13          2.711000000000        -0.058492651178
   14          1.018200000000        -0.493235470417
   15          0.382740000000         1.397975772223
   16          0.129460000000        -1.548770910435
 D 2
    1          2.520000000000         0.967811792202
    2          0.570000000000         0.072912966014
 D 2
    1          2.520000000000         0.516481958907
    2          0.570000000000        -1.094576163813
 F 1
    1          0.780000000000         1.000000000000
 end
  // -----------------------------------------------
  // The basis set
  // -----------------------------------------------
  BAS[ATNO] = new BFNGauss[NSH];
  // Basis function   1 L = s
  InitBFNGauss(BAS[ATNO][  0]);
  BAS[ATNO][  0].l  = 0;
  BAS[ATNO][  0].ng = 29;
  BAS[ATNO][  0].a[  0] =    232510.000000000000;     BAS[ATNO][  0].d[  0] =         0.000132337469;
  BAS[ATNO][  0].a[  1] =     34844.000000000000;     BAS[ATNO][  0].d[  1] =         0.001026854713;
  BAS[ATNO][  0].a[  2] =      7930.300000000000;     BAS[ATNO][  0].d[  2] =         0.005364962354;
  BAS[ATNO][  0].a[  3] =      2245.700000000000;     BAS[ATNO][  0].d[  3] =         0.022094193649;
  BAS[ATNO][  0].a[  4] =       732.220000000000;     BAS[ATNO][  0].d[  4] =         0.074715204848;
  BAS[ATNO][  0].a[  5] =       263.770000000000;     BAS[ATNO][  0].d[  5] =         0.199586745885;
  BAS[ATNO][  0].a[  6] =       102.190000000000;     BAS[ATNO][  0].d[  6] =         0.375253760877;
  BAS[ATNO][  0].a[  7] =        41.525000000000;     BAS[ATNO][  0].d[  7] =         0.368043487954;
  BAS[ATNO][  0].a[  8] =        17.202000000000;     BAS[ATNO][  0].d[  8] =         0.103424474376;
  BAS[ATNO][  0].a[  9] =     34844.000000000000;     BAS[ATNO][  0].d[  9] =         0.000000161540;
  BAS[ATNO][  0].a[ 10] =      7930.300000000000;     BAS[ATNO][  0].d[ 10] =         0.000000055414;
  BAS[ATNO][  0].a[ 11] =      2245.700000000000;     BAS[ATNO][  0].d[ 11] =         0.000010879591;
  BAS[ATNO][  0].a[ 12] =       732.220000000000;     BAS[ATNO][  0].d[ 12] =         0.000052085435;
  BAS[ATNO][  0].a[ 13] =       263.770000000000;     BAS[ATNO][  0].d[ 13] =         0.000561020365;
  BAS[ATNO][  0].a[ 14] =       102.190000000000;     BAS[ATNO][  0].d[ 14] =         0.002246048590;
  BAS[ATNO][  0].a[ 15] =        41.525000000000;     BAS[ATNO][  0].d[ 15] =         0.006967064586;
  BAS[ATNO][  0].a[ 16] =        17.202000000000;     BAS[ATNO][  0].d[ 16] =        -0.002731105787;
  BAS[ATNO][  0].a[ 17] =         6.596700000000;     BAS[ATNO][  0].d[ 17] =        -0.019024645025;
  BAS[ATNO][  0].a[ 18] =      7930.300000000000;     BAS[ATNO][  0].d[ 18] =        -0.000000039844;
  BAS[ATNO][  0].a[ 19] =      2245.700000000000;     BAS[ATNO][  0].d[ 19] =        -0.000000502556;
  BAS[ATNO][  0].a[ 20] =       732.220000000000;     BAS[ATNO][  0].d[ 20] =        -0.000005869172;
  BAS[ATNO][  0].a[ 21] =       263.770000000000;     BAS[ATNO][  0].d[ 21] =        -0.000043854188;
  BAS[ATNO][  0].a[ 22] =       102.190000000000;     BAS[ATNO][  0].d[ 22] =        -0.000230778206;
  BAS[ATNO][  0].a[ 23] =        41.525000000000;     BAS[ATNO][  0].d[ 23] =        -0.000640779185;
  BAS[ATNO][  0].a[ 24] =        17.202000000000;     BAS[ATNO][  0].d[ 24] =         0.000047235429;
  BAS[ATNO][  0].a[ 25] =         6.596700000000;     BAS[ATNO][  0].d[ 25] =         0.005293171645;
  BAS[ATNO][  0].a[ 26] =         2.647700000000;     BAS[ATNO][  0].d[ 26] =         0.006831721336;
  BAS[ATNO][  0].a[ 27] =         0.661930000000;     BAS[ATNO][  0].d[ 27] =        -0.001963894383;
  BAS[ATNO][  0].a[ 28] =         0.229010000000;     BAS[ATNO][  0].d[ 28] =         0.000664084023;

  // Basis function   2 L = s
  InitBFNGauss(BAS[ATNO][  1]);
  BAS[ATNO][  1].l  = 0;
  BAS[ATNO][  1].ng = 29;
  BAS[ATNO][  1].a[  0] =    232510.000000000000;     BAS[ATNO][  1].d[  0] =        -0.000028673285;
  BAS[ATNO][  1].a[  1] =     34844.000000000000;     BAS[ATNO][  1].d[  1] =        -0.000222486483;
  BAS[ATNO][  1].a[  2] =      7930.300000000000;     BAS[ATNO][  1].d[  2] =        -0.001162415276;
  BAS[ATNO][  1].a[  3] =      2245.700000000000;     BAS[ATNO][  1].d[  3] =        -0.004787103153;
  BAS[ATNO][  1].a[  4] =       732.220000000000;     BAS[ATNO][  1].d[  4] =        -0.016188388604;
  BAS[ATNO][  1].a[  5] =       263.770000000000;     BAS[ATNO][  1].d[  5] =        -0.043244046633;
  BAS[ATNO][  1].a[  6] =       102.190000000000;     BAS[ATNO][  1].d[  6] =        -0.081305454742;
  BAS[ATNO][  1].a[  7] =        41.525000000000;     BAS[ATNO][  1].d[  7] =        -0.079743219849;
  BAS[ATNO][  1].a[  8] =        17.202000000000;     BAS[ATNO][  1].d[  8] =        -0.022408766540;
  BAS[ATNO][  1].a[  9] =     34844.000000000000;     BAS[ATNO][  1].d[  9] =        -0.000004154530;
  BAS[ATNO][  1].a[ 10] =      7930.300000000000;     BAS[ATNO][  1].d[ 10] =        -0.000001425140;
  BAS[ATNO][  1].a[ 11] =      2245.700000000000;     BAS[ATNO][  1].d[ 11] =        -0.000279804103;
  BAS[ATNO][  1].a[ 12] =       732.220000000000;     BAS[ATNO][  1].d[ 12] =        -0.001339546554;
  BAS[ATNO][  1].a[ 13] =       263.770000000000;     BAS[ATNO][  1].d[ 13] =        -0.014428465296;
  BAS[ATNO][  1].a[ 14] =       102.190000000000;     BAS[ATNO][  1].d[ 14] =        -0.057764452289;
  BAS[ATNO][  1].a[ 15] =        41.525000000000;     BAS[ATNO][  1].d[ 15] =        -0.179180749564;
  BAS[ATNO][  1].a[ 16] =        17.202000000000;     BAS[ATNO][  1].d[ 16] =         0.070239277383;
  BAS[ATNO][  1].a[ 17] =         6.596700000000;     BAS[ATNO][  1].d[ 17] =         0.489280688253;
  BAS[ATNO][  1].a[ 18] =      7930.300000000000;     BAS[ATNO][  1].d[ 18] =        -0.000002181016;
  BAS[ATNO][  1].a[ 19] =      2245.700000000000;     BAS[ATNO][  1].d[ 19] =        -0.000027509162;
  BAS[ATNO][  1].a[ 20] =       732.220000000000;     BAS[ATNO][  1].d[ 20] =        -0.000321269629;
  BAS[ATNO][  1].a[ 21] =       263.770000000000;     BAS[ATNO][  1].d[ 21] =        -0.002400512156;
  BAS[ATNO][  1].a[ 22] =       102.190000000000;     BAS[ATNO][  1].d[ 22] =        -0.012632451079;
  BAS[ATNO][  1].a[ 23] =        41.525000000000;     BAS[ATNO][  1].d[ 23] =        -0.035075286593;
  BAS[ATNO][  1].a[ 24] =        17.202000000000;     BAS[ATNO][  1].d[ 24] =         0.002585596201;
  BAS[ATNO][  1].a[ 25] =         6.596700000000;     BAS[ATNO][  1].d[ 25] =         0.289740236156;
  BAS[ATNO][  1].a[ 26] =         2.647700000000;     BAS[ATNO][  1].d[ 26] =         0.373958126803;
  BAS[ATNO][  1].a[ 27] =         0.661930000000;     BAS[ATNO][  1].d[ 27] =        -0.095354309481;
  BAS[ATNO][  1].a[ 28] =         0.229010000000;     BAS[ATNO][  1].d[ 28] =         0.037835784043;

  // Basis function   3 L = s
  InitBFNGauss(BAS[ATNO][  2]);
  BAS[ATNO][  2].l  = 0;
  BAS[ATNO][  2].ng = 29;
  BAS[ATNO][  2].a[  0] =    232510.000000000000;     BAS[ATNO][  2].d[  0] =        -0.000004299973;
  BAS[ATNO][  2].a[  1] =     34844.000000000000;     BAS[ATNO][  2].d[  1] =        -0.000033365058;
  BAS[ATNO][  2].a[  2] =      7930.300000000000;     BAS[ATNO][  2].d[  2] =        -0.000174320942;
  BAS[ATNO][  2].a[  3] =      2245.700000000000;     BAS[ATNO][  2].d[  3] =        -0.000717895186;
  BAS[ATNO][  2].a[  4] =       732.220000000000;     BAS[ATNO][  2].d[  4] =        -0.002427682437;
  BAS[ATNO][  2].a[  5] =       263.770000000000;     BAS[ATNO][  2].d[  5] =        -0.006485068716;
  BAS[ATNO][  2].a[  6] =       102.190000000000;     BAS[ATNO][  2].d[  6] =        -0.012192926011;
  BAS[ATNO][  2].a[  7] =        41.525000000000;     BAS[ATNO][  2].d[  7] =        -0.011958646349;
  BAS[ATNO][  2].a[  8] =        17.202000000000;     BAS[ATNO][  2].d[  8] =        -0.003360517856;
  BAS[ATNO][  2].a[  9] =     34844.000000000000;     BAS[ATNO][  2].d[  9] =         0.000004330024;
  BAS[ATNO][  2].a[ 10] =      7930.300000000000;     BAS[ATNO][  2].d[ 10] =         0.000001485340;
  BAS[ATNO][  2].a[ 11] =      2245.700000000000;     BAS[ATNO][  2].d[ 11] =         0.000291623482;
  BAS[ATNO][  2].a[ 12] =       732.220000000000;     BAS[ATNO][  2].d[ 12] =         0.001396131171;
  BAS[ATNO][  2].a[ 13] =       263.770000000000;     BAS[ATNO][  2].d[ 13] =         0.015037947054;
  BAS[ATNO][  2].a[ 14] =       102.190000000000;     BAS[ATNO][  2].d[ 14] =         0.060204516372;
  BAS[ATNO][  2].a[ 15] =        41.525000000000;     BAS[ATNO][  2].d[ 15] =         0.186749634823;
  BAS[ATNO][  2].a[ 16] =        17.202000000000;     BAS[ATNO][  2].d[ 16] =        -0.073206298295;
  BAS[ATNO][  2].a[ 17] =         6.596700000000;     BAS[ATNO][  2].d[ 17] =        -0.509948697498;
  BAS[ATNO][  2].a[ 18] =      7930.300000000000;     BAS[ATNO][  2].d[ 18] =         0.000000645204;
  BAS[ATNO][  2].a[ 19] =      2245.700000000000;     BAS[ATNO][  2].d[ 19] =         0.000008137963;
  BAS[ATNO][  2].a[ 20] =       732.220000000000;     BAS[ATNO][  2].d[ 20] =         0.000095040347;
  BAS[ATNO][  2].a[ 21] =       263.770000000000;     BAS[ATNO][  2].d[ 21] =         0.000710137181;
  BAS[ATNO][  2].a[ 22] =       102.190000000000;     BAS[ATNO][  2].d[ 22] =         0.003737024691;
  BAS[ATNO][  2].a[ 23] =        41.525000000000;     BAS[ATNO][  2].d[ 23] =         0.010376229538;
  BAS[ATNO][  2].a[ 24] =        17.202000000000;     BAS[ATNO][  2].d[ 24] =        -0.000764890106;
  BAS[ATNO][  2].a[ 25] =         6.596700000000;     BAS[ATNO][  2].d[ 25] =        -0.085713090005;
  BAS[ATNO][  2].a[ 26] =         2.647700000000;     BAS[ATNO][  2].d[ 26] =        -0.110627046509;
  BAS[ATNO][  2].a[ 27] =         0.661930000000;     BAS[ATNO][  2].d[ 27] =         1.456546402367;
  BAS[ATNO][  2].a[ 28] =         0.229010000000;     BAS[ATNO][  2].d[ 28] =        -0.351572368538;

  // Basis function   4 L = s
  InitBFNGauss(BAS[ATNO][  3]);
  BAS[ATNO][  3].l  = 0;
  BAS[ATNO][  3].ng = 29;
  BAS[ATNO][  3].a[  0] =    232510.000000000000;     BAS[ATNO][  3].d[  0] =         0.000007023164;
  BAS[ATNO][  3].a[  1] =     34844.000000000000;     BAS[ATNO][  3].d[  1] =         0.000054495289;
  BAS[ATNO][  3].a[  2] =      7930.300000000000;     BAS[ATNO][  3].d[  2] =         0.000284719126;
  BAS[ATNO][  3].a[  3] =      2245.700000000000;     BAS[ATNO][  3].d[  3] =         0.001172541219;
  BAS[ATNO][  3].a[  4] =       732.220000000000;     BAS[ATNO][  3].d[  4] =         0.003965143910;
  BAS[ATNO][  3].a[  5] =       263.770000000000;     BAS[ATNO][  3].d[  5] =         0.010592089945;
  BAS[ATNO][  3].a[  6] =       102.190000000000;     BAS[ATNO][  3].d[  6] =         0.019914757213;
  BAS[ATNO][  3].a[  7] =        41.525000000000;     BAS[ATNO][  3].d[  7] =         0.019532107258;
  BAS[ATNO][  3].a[  8] =        17.202000000000;     BAS[ATNO][  3].d[  8] =         0.005488747914;
  BAS[ATNO][  3].a[  9] =     34844.000000000000;     BAS[ATNO][  3].d[  9] =        -0.000002836652;
  BAS[ATNO][  3].a[ 10] =      7930.300000000000;     BAS[ATNO][  3].d[ 10] =        -0.000000973064;
  BAS[ATNO][  3].a[ 11] =      2245.700000000000;     BAS[ATNO][  3].d[ 11] =        -0.000191046108;
  BAS[ATNO][  3].a[ 12] =       732.220000000000;     BAS[ATNO][  3].d[ 12] =        -0.000914622599;
  BAS[ATNO][  3].a[ 13] =       263.770000000000;     BAS[ATNO][  3].d[ 13] =        -0.009851542962;
  BAS[ATNO][  3].a[ 14] =       102.190000000000;     BAS[ATNO][  3].d[ 14] =        -0.039440714706;
  BAS[ATNO][  3].a[ 15] =        41.525000000000;     BAS[ATNO][  3].d[ 15] =        -0.122341968880;
  BAS[ATNO][  3].a[ 16] =        17.202000000000;     BAS[ATNO][  3].d[ 16] =         0.047958340997;
  BAS[ATNO][  3].a[ 17] =         6.596700000000;     BAS[ATNO][  3].d[ 17] =         0.334073626109;
  BAS[ATNO][  3].a[ 18] =      7930.300000000000;     BAS[ATNO][  3].d[ 18] =         0.000000302051;
  BAS[ATNO][  3].a[ 19] =      2245.700000000000;     BAS[ATNO][  3].d[ 19] =         0.000003809768;
  BAS[ATNO][  3].a[ 20] =       732.220000000000;     BAS[ATNO][  3].d[ 20] =         0.000044492916;
  BAS[ATNO][  3].a[ 21] =       263.770000000000;     BAS[ATNO][  3].d[ 21] =         0.000332449059;
  BAS[ATNO][  3].a[ 22] =       102.190000000000;     BAS[ATNO][  3].d[ 22] =         0.001749479364;
  BAS[ATNO][  3].a[ 23] =        41.525000000000;     BAS[ATNO][  3].d[ 23] =         0.004857607577;
  BAS[ATNO][  3].a[ 24] =        17.202000000000;     BAS[ATNO][  3].d[ 24] =        -0.000358081513;
  BAS[ATNO][  3].a[ 25] =         6.596700000000;     BAS[ATNO][  3].d[ 25] =        -0.040126382508;
  BAS[ATNO][  3].a[ 26] =         2.647700000000;     BAS[ATNO][  3].d[ 26] =        -0.051789792944;
  BAS[ATNO][  3].a[ 27] =         0.661930000000;     BAS[ATNO][  3].d[ 27] =        -1.356960388016;
  BAS[ATNO][  3].a[ 28] =         0.229010000000;     BAS[ATNO][  3].d[ 28] =         1.760228870553;

  // Basis function   5 L = s
  InitBFNGauss(BAS[ATNO][  4]);
  BAS[ATNO][  4].l  = 0;
  BAS[ATNO][  4].ng = 29;
  BAS[ATNO][  4].a[  0] =    232510.000000000000;     BAS[ATNO][  4].d[  0] =         0.000138828155;
  BAS[ATNO][  4].a[  1] =     34844.000000000000;     BAS[ATNO][  4].d[  1] =         0.001077218313;
  BAS[ATNO][  4].a[  2] =      7930.300000000000;     BAS[ATNO][  4].d[  2] =         0.005628094825;
  BAS[ATNO][  4].a[  3] =      2245.700000000000;     BAS[ATNO][  4].d[  3] =         0.023177835880;
  BAS[ATNO][  4].a[  4] =       732.220000000000;     BAS[ATNO][  4].d[  4] =         0.078379721985;
  BAS[ATNO][  4].a[  5] =       263.770000000000;     BAS[ATNO][  4].d[  5] =         0.209375771453;
  BAS[ATNO][  4].a[  6] =       102.190000000000;     BAS[ATNO][  4].d[  6] =         0.393658633622;
  BAS[ATNO][  4].a[  7] =        41.525000000000;     BAS[ATNO][  4].d[  7] =         0.386094722256;
  BAS[ATNO][  4].a[  8] =        17.202000000000;     BAS[ATNO][  4].d[  8] =         0.108497079871;
  BAS[ATNO][  4].a[  9] =     34844.000000000000;     BAS[ATNO][  4].d[  9] =        -0.000038117953;
  BAS[ATNO][  4].a[ 10] =      7930.300000000000;     BAS[ATNO][  4].d[ 10] =        -0.000013075705;
  BAS[ATNO][  4].a[ 11] =      2245.700000000000;     BAS[ATNO][  4].d[ 11] =        -0.002567212243;
  BAS[ATNO][  4].a[ 12] =       732.220000000000;     BAS[ATNO][  4].d[ 12] =        -0.012290385582;
  BAS[ATNO][  4].a[ 13] =       263.770000000000;     BAS[ATNO][  4].d[ 13] =        -0.132381664031;
  BAS[ATNO][  4].a[ 14] =       102.190000000000;     BAS[ATNO][  4].d[ 14] =        -0.529990831242;
  BAS[ATNO][  4].a[ 15] =        41.525000000000;     BAS[ATNO][  4].d[ 15] =        -1.643989523676;
  BAS[ATNO][  4].a[ 16] =        17.202000000000;     BAS[ATNO][  4].d[ 16] =         0.644447779398;
  BAS[ATNO][  4].a[ 17] =         6.596700000000;     BAS[ATNO][  4].d[ 17] =         4.489167098484;
  BAS[ATNO][  4].a[ 18] =      7930.300000000000;     BAS[ATNO][  4].d[ 18] =         0.000018692341;
  BAS[ATNO][  4].a[ 19] =      2245.700000000000;     BAS[ATNO][  4].d[ 19] =         0.000235766614;
  BAS[ATNO][  4].a[ 20] =       732.220000000000;     BAS[ATNO][  4].d[ 20] =         0.002753433617;
  BAS[ATNO][  4].a[ 21] =       263.770000000000;     BAS[ATNO][  4].d[ 21] =         0.020573531633;
  BAS[ATNO][  4].a[ 22] =       102.190000000000;     BAS[ATNO][  4].d[ 22] =         0.108266117792;
  BAS[ATNO][  4].a[ 23] =        41.525000000000;     BAS[ATNO][  4].d[ 23] =         0.300611899150;
  BAS[ATNO][  4].a[ 24] =        17.202000000000;     BAS[ATNO][  4].d[ 24] =        -0.022159789980;
  BAS[ATNO][  4].a[ 25] =         6.596700000000;     BAS[ATNO][  4].d[ 25] =        -2.483211717145;
  BAS[ATNO][  4].a[ 26] =         2.647700000000;     BAS[ATNO][  4].d[ 26] =        -3.204999121005;
  BAS[ATNO][  4].a[ 27] =         0.661930000000;     BAS[ATNO][  4].d[ 27] =         2.186416918240;
  BAS[ATNO][  4].a[ 28] =         0.229010000000;     BAS[ATNO][  4].d[ 28] =        -0.973396150672;

  // Basis function   6 L = p
  InitBFNGauss(BAS[ATNO][  5]);
  BAS[ATNO][  5].l  = 1;
  BAS[ATNO][  5].ng = 16;
  BAS[ATNO][  5].a[  0] =      1297.700000000000;     BAS[ATNO][  5].d[  0] =         0.001037610154;
  BAS[ATNO][  5].a[  1] =       307.860000000000;     BAS[ATNO][  5].d[  1] =         0.008661775954;
  BAS[ATNO][  5].a[  2] =        99.096000000000;     BAS[ATNO][  5].d[  2] =         0.044310884703;
  BAS[ATNO][  5].a[  3] =        36.837000000000;     BAS[ATNO][  5].d[  3] =         0.150936315513;
  BAS[ATNO][  5].a[  4] =        15.027000000000;     BAS[ATNO][  5].d[  4] =         0.337784833625;
  BAS[ATNO][  5].a[  5] =         6.366200000000;     BAS[ATNO][  5].d[  5] =         0.456123021098;
  BAS[ATNO][  5].a[  6] =         2.711000000000;     BAS[ATNO][  5].d[  6] =         0.273794874743;
  BAS[ATNO][  5].a[  7] =       307.860000000000;     BAS[ATNO][  5].d[  7] =         0.000007639701;
  BAS[ATNO][  5].a[  8] =        99.096000000000;     BAS[ATNO][  5].d[  8] =         0.000113662638;
  BAS[ATNO][  5].a[  9] =        36.837000000000;     BAS[ATNO][  5].d[  9] =         0.001076328690;
  BAS[ATNO][  5].a[ 10] =        15.027000000000;     BAS[ATNO][  5].d[ 10] =         0.004961503604;
  BAS[ATNO][  5].a[ 11] =         6.366200000000;     BAS[ATNO][  5].d[ 11] =         0.011347284156;
  BAS[ATNO][  5].a[ 12] =         2.711000000000;     BAS[ATNO][  5].d[ 12] =        -0.025690358074;
  BAS[ATNO][  5].a[ 13] =         1.018200000000;     BAS[ATNO][  5].d[ 13] =        -0.216632270804;
  BAS[ATNO][  5].a[ 14] =         0.382740000000;     BAS[ATNO][  5].d[ 14] =         0.127820710528;
  BAS[ATNO][  5].a[ 15] =         0.129460000000;     BAS[ATNO][  5].d[ 15] =        -0.041336291577;

  // Basis function   7 L = p
  InitBFNGauss(BAS[ATNO][  6]);
  BAS[ATNO][  6].l  = 1;
  BAS[ATNO][  6].ng = 16;
  BAS[ATNO][  6].a[  0] =      1297.700000000000;     BAS[ATNO][  6].d[  0] =        -0.000344832383;
  BAS[ATNO][  6].a[  1] =       307.860000000000;     BAS[ATNO][  6].d[  1] =        -0.002878596388;
  BAS[ATNO][  6].a[  2] =        99.096000000000;     BAS[ATNO][  6].d[  2] =        -0.014725981521;
  BAS[ATNO][  6].a[  3] =        36.837000000000;     BAS[ATNO][  6].d[  3] =        -0.050161160357;
  BAS[ATNO][  6].a[  4] =        15.027000000000;     BAS[ATNO][  6].d[  4] =        -0.112257140689;
  BAS[ATNO][  6].a[  5] =         6.366200000000;     BAS[ATNO][  6].d[  5] =        -0.151584858330;
  BAS[ATNO][  6].a[  6] =         2.711000000000;     BAS[ATNO][  6].d[  6] =        -0.090991147957;
  BAS[ATNO][  6].a[  7] =       307.860000000000;     BAS[ATNO][  6].d[  7] =        -0.000044721623;
  BAS[ATNO][  6].a[  8] =        99.096000000000;     BAS[ATNO][  6].d[  8] =        -0.000665363426;
  BAS[ATNO][  6].a[  9] =        36.837000000000;     BAS[ATNO][  6].d[  9] =        -0.006300660956;
  BAS[ATNO][  6].a[ 10] =        15.027000000000;     BAS[ATNO][  6].d[ 10] =        -0.029043871395;
  BAS[ATNO][  6].a[ 11] =         6.366200000000;     BAS[ATNO][  6].d[ 11] =        -0.066425238804;
  BAS[ATNO][  6].a[ 12] =         2.711000000000;     BAS[ATNO][  6].d[ 12] =         0.150387365527;
  BAS[ATNO][  6].a[ 13] =         1.018200000000;     BAS[ATNO][  6].d[ 13] =         1.268131662471;
  BAS[ATNO][  6].a[ 14] =         0.382740000000;     BAS[ATNO][  6].d[ 14] =        -0.411840554604;
  BAS[ATNO][  6].a[ 15] =         0.129460000000;     BAS[ATNO][  6].d[ 15] =         0.123088035476;

  // Basis function   8 L = p
  InitBFNGauss(BAS[ATNO][  7]);
  BAS[ATNO][  7].l  = 1;
  BAS[ATNO][  7].ng = 16;
  BAS[ATNO][  7].a[  0] =      1297.700000000000;     BAS[ATNO][  7].d[  0] =         0.000120831686;
  BAS[ATNO][  7].a[  1] =       307.860000000000;     BAS[ATNO][  7].d[  1] =         0.001008680372;
  BAS[ATNO][  7].a[  2] =        99.096000000000;     BAS[ATNO][  7].d[  2] =         0.005160087248;
  BAS[ATNO][  7].a[  3] =        36.837000000000;     BAS[ATNO][  7].d[  3] =         0.017576822539;
  BAS[ATNO][  7].a[  4] =        15.027000000000;     BAS[ATNO][  7].d[  4] =         0.039335689737;
  BAS[ATNO][  7].a[  5] =         6.366200000000;     BAS[ATNO][  7].d[  5] =         0.053116397937;
  BAS[ATNO][  7].a[  6] =         2.711000000000;     BAS[ATNO][  7].d[  6] =         0.031883936673;
  BAS[ATNO][  7].a[  7] =       307.860000000000;     BAS[ATNO][  7].d[  7] =         0.000035043237;
  BAS[ATNO][  7].a[  8] =        99.096000000000;     BAS[ATNO][  7].d[  8] =         0.000521369450;
  BAS[ATNO][  7].a[  9] =        36.837000000000;     BAS[ATNO][  7].d[  9] =         0.004937109574;
  BAS[ATNO][  7].a[ 10] =        15.027000000000;     BAS[ATNO][  7].d[ 10] =         0.022758370356;
  BAS[ATNO][  7].a[ 11] =         6.366200000000;     BAS[ATNO][  7].d[ 11] =         0.052049885676;
  BAS[ATNO][  7].a[ 12] =         2.711000000000;     BAS[ATNO][  7].d[ 12] =        -0.117841430812;
  BAS[ATNO][  7].a[ 13] =         1.018200000000;     BAS[ATNO][  7].d[ 13] =        -0.993690188274;
  BAS[ATNO][  7].a[ 14] =         0.382740000000;     BAS[ATNO][  7].d[ 14] =         1.701845905866;
  BAS[ATNO][  7].a[ 15] =         0.129460000000;     BAS[ATNO][  7].d[ 15] =        -0.229375312610;

  // Basis function   9 L = p
  InitBFNGauss(BAS[ATNO][  8]);
  BAS[ATNO][  8].l  = 1;
  BAS[ATNO][  8].ng = 16;
  BAS[ATNO][  8].a[  0] =      1297.700000000000;     BAS[ATNO][  8].d[  0] =        -0.000044502738;
  BAS[ATNO][  8].a[  1] =       307.860000000000;     BAS[ATNO][  8].d[  1] =        -0.000371500555;
  BAS[ATNO][  8].a[  2] =        99.096000000000;     BAS[ATNO][  8].d[  2] =        -0.001900478419;
  BAS[ATNO][  8].a[  3] =        36.837000000000;     BAS[ATNO][  8].d[  3] =        -0.006473606027;
  BAS[ATNO][  8].a[  4] =        15.027000000000;     BAS[ATNO][  8].d[  4] =        -0.014487473921;
  BAS[ATNO][  8].a[  5] =         6.366200000000;     BAS[ATNO][  8].d[  5] =        -0.019562957585;
  BAS[ATNO][  8].a[  6] =         2.711000000000;     BAS[ATNO][  8].d[  6] =        -0.011742966862;
  BAS[ATNO][  8].a[  7] =       307.860000000000;     BAS[ATNO][  8].d[  7] =        -0.000017394322;
  BAS[ATNO][  8].a[  8] =        99.096000000000;     BAS[ATNO][  8].d[  8] =        -0.000258790827;
  BAS[ATNO][  8].a[  9] =        36.837000000000;     BAS[ATNO][  8].d[  9] =        -0.002450620517;
  BAS[ATNO][  8].a[ 10] =        15.027000000000;     BAS[ATNO][  8].d[ 10] =        -0.011296514387;
  BAS[ATNO][  8].a[ 11] =         6.366200000000;     BAS[ATNO][  8].d[ 11] =        -0.025835869318;
  BAS[ATNO][  8].a[ 12] =         2.711000000000;     BAS[ATNO][  8].d[ 12] =         0.058492651178;
  BAS[ATNO][  8].a[ 13] =         1.018200000000;     BAS[ATNO][  8].d[ 13] =         0.493235470417;
  BAS[ATNO][  8].a[ 14] =         0.382740000000;     BAS[ATNO][  8].d[ 14] =        -1.397975772223;
  BAS[ATNO][  8].a[ 15] =         0.129460000000;     BAS[ATNO][  8].d[ 15] =         1.548770910435;

  // Basis function  10 L = d
  InitBFNGauss(BAS[ATNO][  9]);
  BAS[ATNO][  9].l  = 2;
  BAS[ATNO][  9].ng = 2;
  BAS[ATNO][  9].a[  0] =         2.520000000000;     BAS[ATNO][  9].d[  0] =         0.967811792202;
  BAS[ATNO][  9].a[  1] =         0.570000000000;     BAS[ATNO][  9].d[  1] =         0.072912966014;

  // Basis function  11 L = d
  InitBFNGauss(BAS[ATNO][ 10]);
  BAS[ATNO][ 10].l  = 2;
  BAS[ATNO][ 10].ng = 2;
  BAS[ATNO][ 10].a[  0] =         2.520000000000;     BAS[ATNO][ 10].d[  0] =        -0.516481958907;
  BAS[ATNO][ 10].a[  1] =         0.570000000000;     BAS[ATNO][ 10].d[  1] =         1.094576163813;

  // Basis function  12 L = f
  InitBFNGauss(BAS[ATNO][ 11]);
  BAS[ATNO][ 11].l  = 3;
  BAS[ATNO][ 11].ng = 1;
  BAS[ATNO][ 11].a[  0] =         0.780000000000;     BAS[ATNO][ 11].d[  0] =         1.000000000000;

-------
TIMINGS
-------

Total SCF time: 0 days 0 hours 0 min 1 sec 

Total time                  ....       1.286 sec
Sum of individual times     ....       1.114 sec  ( 86.6%)

Fock matrix formation       ....       0.649 sec  ( 50.5%)
  XC integration            ....       0.013 sec  (  2.0% of F)
    Basis function eval.    ....       0.003 sec  ( 20.1% of XC)
    Density eval.           ....       0.001 sec  (  5.9% of XC)
    XC-Functional eval.     ....       0.001 sec  (  8.6% of XC)
    XC-Potential eval.      ....       0.001 sec  (  4.9% of XC)
Diagonalization             ....       0.000 sec  (  0.0%)
Density matrix formation    ....       0.000 sec  (  0.0%)
Population analysis         ....       0.001 sec  (  0.1%)
Initial guess               ....       0.085 sec  (  6.6%)
Orbital Transformation      ....       0.000 sec  (  0.0%)
Orbital Orthonormalization  ....       0.000 sec  (  0.0%)
DIIS solution               ....       0.000 sec  (  0.0%)
SOSCF solution              ....       0.001 sec  (  0.0%)
Grid generation             ....       0.378 sec  ( 29.4%)

-------------------------   --------------------
FINAL SINGLE POINT ENERGY      -311.529026349741
-------------------------   --------------------


                            ***************************************
                            *     ORCA property calculations      *
                            ***************************************

                                    ---------------------
                                    Active property flags
                                    ---------------------
   (+) Dipole Moment


------------------------------------------------------------------------------
                       ORCA ELECTRIC PROPERTIES CALCULATION
------------------------------------------------------------------------------

Dipole Moment Calculation                       ... on
Quadrupole Moment Calculation                   ... off
Polarizability Calculation                      ... off
GBWName                                         ... Ar_pc-2_.gbw
Electron density file                           ... Ar_pc-2_.scfp
The origin for moment calculation is the CENTER OF MASS  = ( 0.000000,  0.000000  0.000000)

-------------
DIPOLE MOMENT
-------------
                                X             Y             Z
Electronic contribution:      0.00000      -0.00000       0.00000
Nuclear contribution   :      0.00000       0.00000       0.00000
                        -----------------------------------------
Total Dipole Moment    :      0.00000      -0.00000       0.00000
                        -----------------------------------------
Magnitude (a.u.)       :      0.00000
Magnitude (Debye)      :      0.00000



--------------------
Rotational spectrum 
--------------------
 
Rotational constants in cm-1:     0.000000     0.000000     0.000000 
Rotational constants in MHz :     0.000000     0.000000     0.000000 

 Dipole components along the rotational axes: 
x,y,z [a.u.] :     0.000000    -0.000000     0.000000 
x,y,z [Debye]:     0.000000    -0.000000     0.000000 

 

Timings for individual modules:

Sum of individual times         ...        2.041 sec (=   0.034 min)
GTO integral calculation        ...        0.494 sec (=   0.008 min)  24.2 %
SCF iterations                  ...        1.546 sec (=   0.026 min)  75.8 %
                             ****ORCA TERMINATED NORMALLY****
TOTAL RUN TIME: 0 days 0 hours 0 minutes 2 seconds 361 msec
