
                                 *****************
                                 * O   R   C   A *
                                 *****************

           --- An Ab Initio, DFT and Semiempirical electronic structure package ---

                  #######################################################
                  #                        -***-                        #
                  #          Department of theory and spectroscopy      #
                  #               Directorship: Frank Neese             #
                  #        Max Planck Institute fuer Kohlenforschung    #
                  #                Kaiser Wilhelm Platz 1               #
                  #                 D-45470 Muelheim/Ruhr               #
                  #                      Germany                        #
                  #                                                     #
                  #                  All rights reserved                #
                  #                        -***-                        #
                  #######################################################


                         Program Version 4.2.1 -  RELEASE  -


 With contributions from (in alphabetic order):
   Daniel Aravena         : Magnetic Suceptibility
   Michael Atanasov       : Ab Initio Ligand Field Theory (pilot matlab implementation)
   Alexander A. Auer      : GIAO ZORA, VPT2
   Ute Becker             : Parallelization
   Giovanni Bistoni       : ED, misc. LED, open-shell LED, HFLD
   Martin Brehm           : Molecular dynamics
   Dmytro Bykov           : SCF Hessian
   Vijay G. Chilkuri      : MRCI spin determinant printing, contributions to CSF-ICE
   Dipayan Datta          : RHF DLPNO-CCSD density
   Achintya Kumar Dutta   : EOM-CC, STEOM-CC
   Dmitry Ganyushin       : Spin-Orbit,Spin-Spin,Magnetic field MRCI
   Miquel Garcia          : C-PCM Hessian, Gaussian charge scheme
   Yang Guo               : DLPNO-NEVPT2, CIM, IAO-localization
   Andreas Hansen         : Spin unrestricted coupled pair/coupled cluster methods
   Benjamin Helmich-Paris : CASSCF linear response (MC-RPA)
   Lee Huntington         : MR-EOM, pCC
   Robert Izsak           : Overlap fitted RIJCOSX, COSX-SCS-MP3, EOM
   Christian Kollmar      : KDIIS, OOCD, Brueckner-CCSD(T), CCSD density
   Simone Kossmann        : Meta GGA functionals, TD-DFT gradient, OOMP2, MP2 Hessian
   Martin Krupicka        : AUTO-CI
   Lucas Lang             : DCDCAS
   Dagmar Lenk            : GEPOL surface, SMD
   Dimitrios Liakos       : Extrapolation schemes; Compound Job, initial MDCI parallelization
   Dimitrios Manganas     : Further ROCIS development; embedding schemes
   Dimitrios Pantazis     : SARC Basis sets
   Taras Petrenko         : DFT Hessian,TD-DFT gradient, ASA, ECA, R-Raman, ABS, FL, XAS/XES, NRVS
   Peter Pinski           : DLPNO-MP2, DLPNO-MP2 Gradient
   Christoph Reimann      : Effective Core Potentials
   Marius Retegan         : Local ZFS, SOC
   Christoph Riplinger    : Optimizer, TS searches, QM/MM, DLPNO-CCSD(T), (RO)-DLPNO pert. Triples
   Tobias Risthaus        : Range-separated hybrids, TD-DFT gradient, RPA, STAB
   Michael Roemelt        : Original ROCIS implementation
   Masaaki Saitow         : Open-shell DLPNO-CCSD energy and density
   Barbara Sandhoefer     : DKH picture change effects
   Avijit Sen             : IP-ROCIS
   Kantharuban Sivalingam : CASSCF convergence, NEVPT2, FIC-MRCI
   Bernardo de Souza      : ESD, SOC TD-DFT
   Georgi Stoychev        : AutoAux, RI-MP2 NMR
   Willem Van den Heuvel  : Paramagnetic NMR
   Boris Wezisla          : Elementary symmetry handling
   Frank Wennmohs         : Technical directorship


 We gratefully acknowledge several colleagues who have allowed us to
 interface, adapt or use parts of their codes:
   Stefan Grimme, W. Hujo, H. Kruse,             : VdW corrections, initial TS optimization,
                  C. Bannwarth                     DFT functionals, gCP, sTDA/sTD-DF
   Ed Valeev, F. Pavosevic, A. Kumar             : LibInt (2-el integral package), F12 methods
   Garnet Chan, S. Sharma, J. Yang, R. Olivares  : DMRG
   Ulf Ekstrom                                   : XCFun DFT Library
   Mihaly Kallay                                 : mrcc  (arbitrary order and MRCC methods)
   Andreas Klamt, Michael Diedenhofen            : otool_cosmo (COSMO solvation model)
   Jiri Pittner, Ondrej Demel                    : Mk-CCSD
   Frank Weinhold                                : gennbo (NPA and NBO analysis)
   Christopher J. Cramer and Donald G. Truhlar   : smd solvation model
   Lars Goerigk                                  : TD-DFT with DH, B97 family of functionals
   V. Asgeirsson, H. Jonsson                     : NEB implementation
   FAccTs GmbH                                   : IRC, NEB, NEB-TS, Multilevel, MM, QM/MM, CI optimization
   S Lehtola, MJT Oliveira, MAL Marques          : LibXC Library


 Your calculation uses the libint2 library for the computation of 2-el integrals
 For citations please refer to: http://libint.valeyev.net

 Your ORCA version has been built with support for libXC version: 4.2.3
 For citations please refer to: https://tddft.org/programs/libxc/

 This ORCA versions uses:
   CBLAS   interface :  Fast vector & matrix operations
   LAPACKE interface :  Fast linear algebra routines
   SCALAPACK package :  Parallel linear algebra routines


----- Orbital basis set information -----
Your calculation utilizes the basis: pc-4
   H, C-F              : F. Jensen, J. Chem. Phys. 115, 9113 (2001).
                         F. Jensen, J. Chem. Phys. 116, 7372 (2002).
                         F. Jensen, J. Chem. Phys. 117, 9234 (2002).
   Si-Cl               : F. Jensen, T. Helgaker, J. Chem. Phys. 121, 3463 (2004).
   He-B, Ne-Mg, Al, Ar : F. Jensen, J. Phys. Chem. A 111, 11198 (2007).
   K, Ca, Ga-Kr        : F. Jensen, J. Chem. Phys. 136, 094110 (2012).
   Sc-Zn               : F. Jensen, J. Chem. Phys. 138, 014107 (2013).

================================================================================
                                        WARNINGS
                       Please study these warnings very carefully!
================================================================================


INFO   : the flag for use of LIBINT has been found!

================================================================================
                                       INPUT FILE
================================================================================
NAME = Ar_pc-4_.inp
|  1> ! LDA pc-4 nori grid5 finalgrid6 verytightscf
|  2> %Pal NProcs 18 End
|  3> 
|  4> *xyz 16 1
|  5> Ar 0.0 0.0 0.0
|  6> **                         ****END OF INPUT****
================================================================================

                       ****************************
                       * Single Point Calculation *
                       ****************************

---------------------------------
CARTESIAN COORDINATES (ANGSTROEM)
---------------------------------
  Ar     0.000000    0.000000    0.000000

----------------------------
CARTESIAN COORDINATES (A.U.)
----------------------------
  NO LB      ZA    FRAG     MASS         X           Y           Z
   0 Ar   18.0000    0    39.948    0.000000    0.000000    0.000000

--------------------------------
INTERNAL COORDINATES (ANGSTROEM)
--------------------------------
 Ar     0   0   0     0.000000000000     0.00000000     0.00000000

---------------------------
INTERNAL COORDINATES (A.U.)
---------------------------
 Ar     0   0   0     0.000000000000     0.00000000     0.00000000

---------------------
BASIS SET INFORMATION
---------------------
There are 1 groups of distinct atoms

 Group   1 Type Ar  : 43s26p6d3f2g1h contracted to 7s6p6d3f2g1h pattern {1512121111/11111111/111111/111/11/1}

Atom   0Ar   basis set group =>   1


           ************************************************************
           *        Program running with 18 parallel MPI-processes    *
           *              working on a common directory               *
           ************************************************************
------------------------------------------------------------------------------
                           ORCA GTO INTEGRAL CALCULATION
------------------------------------------------------------------------------

                         BASIS SET STATISTICS AND STARTUP INFO

 # of primitive gaussian shells          ...   81
 # of primitive gaussian functions       ...  201
 # of contracted shells                  ...   25
 # of contracted basis functions         ...  105
 Highest angular momentum                ...    5
 Maximum contraction depth               ...   15
 Integral package used                   ... LIBINT
 Integral threshhold            Thresh   ...  1.000e-12
 Primitive cut-off              TCut     ...  1.000e-14


------------------------------ INTEGRAL EVALUATION ----------------------------


 * One electron integrals 
 Pre-screening matrix                    ... done
 Shell pair data                         ... done (   0.000 sec)



           ************************************************************
           *        Program running with 18 parallel MPI-processes    *
           *              working on a common directory               *
           ************************************************************
-------------------------------------------------------------------------------
                                 ORCA SCF
-------------------------------------------------------------------------------

------------
SCF SETTINGS
------------
Hamiltonian:
 Density Functional     Method          .... DFT(GTOs)
 Exchange Functional    Exchange        .... Slater
   X-Alpha parameter    XAlpha          ....  0.666667
 Correlation Functional Correlation     .... VWN-5
 Gradients option       PostSCFGGA      .... off
   Density functional embedding theory  .... OFF


General Settings:
 Integral files         IntName         .... Ar_pc-4_
 Hartree-Fock type      HFTyp           .... RHF
 Total Charge           Charge          ....   16
 Multiplicity           Mult            ....    1
 Number of Electrons    NEL             ....    2
 Basis Dimension        Dim             ....  105
 Nuclear Repulsion      ENuc            ....      0.0000000000 Eh

Convergence Acceleration:
 DIIS                   CNVDIIS         .... on
   Start iteration      DIISMaxIt       ....    12
   Startup error        DIISStart       ....  0.200000
   # of expansion vecs  DIISMaxEq       ....     5
   Bias factor          DIISBfac        ....   1.050
   Max. coefficient     DIISMaxC        ....  10.000
 Newton-Raphson         CNVNR           .... off
 SOSCF                  CNVSOSCF        .... on
   Start iteration      SOSCFMaxIt      ....   150
   Startup grad/error   SOSCFStart      ....  0.003300
 Level Shifting         CNVShift        .... on
   Level shift para.    LevelShift      ....    0.2500
   Turn off err/grad.   ShiftErr        ....    0.0010
 Zerner damping         CNVZerner       .... off
 Static damping         CNVDamp         .... on
   Fraction old density DampFac         ....    0.7000
   Max. Damping (<1)    DampMax         ....    0.9800
   Min. Damping (>=0)   DampMin         ....    0.0000
   Turn off err/grad.   DampErr         ....    0.1000
 Fernandez-Rico         CNVRico         .... off

SCF Procedure:
 Maximum # iterations   MaxIter         ....   125
 SCF integral mode      SCFMode         .... Direct
   Integral package                     .... LIBINT
 Reset frequency        DirectResetFreq ....    20
 Integral Threshold     Thresh          ....  1.000e-12 Eh
 Primitive CutOff       TCut            ....  1.000e-14 Eh

Convergence Tolerance:
 Convergence Check Mode ConvCheckMode   .... Total+1el-Energy
 Convergence forced     ConvForced      .... 0
 Energy Change          TolE            ....  1.000e-09 Eh
 1-El. energy change                    ....  1.000e-06 Eh
 Orbital Gradient       TolG            ....  2.000e-06
 Orbital Rotation angle TolX            ....  2.000e-06
 DIIS Error             TolErr          ....  1.000e-08


Diagonalization of the overlap matrix:
Smallest eigenvalue                        ... 6.886e-04
Time for diagonalization                   ...    0.002 sec
Threshold for overlap eigenvalues          ... 1.000e-08
Number of eigenvalues below threshold      ... 0
Time for construction of square roots      ...    0.002 sec
Total time needed                          ...    0.003 sec

-------------------
DFT GRID GENERATION
-------------------

General Integration Accuracy     IntAcc      ...  5.010
Radial Grid Type                 RadialGrid  ... Gauss-Chebyshev
Angular Grid (max. acc.)         AngularGrid ... Lebedev-434
Angular grid pruning method      GridPruning ... 3 (G Style)
Weight generation scheme         WeightScheme... Becke
Basis function cutoff            BFCut       ...    1.0000e-12
Integration weight cutoff        WCut        ...    1.0000e-14
Grids for H and He will be reduced by one unit

# of grid points (after initial pruning)     ...  11992 (   0.0 sec)
# of grid points (after weights+screening)   ...  11992 (   0.0 sec)
Grid point division into batches done        ...    0.1 sec
Reduced shell lists constructed in    0.1 sec

Total number of grid points                  ...    11992
Total number of batches                      ...      188
Average number of points per batch           ...       63
Average number of grid points per atom       ...    11992
Average number of shells per batch           ...     1.75 ( 7.00%)
Average number of basis functions per batch  ...     5.25 ( 5.00%)
Average number of large shells per batch     ...     0.92 (52.38%)
Average number of large basis fcns per batch ...     2.75 (52.38%)
Maximum spatial batch extension              ...  18.71, 18.71, 18.71 au
Average spatial batch extension              ...   0.97,  0.98,  0.97 au

Time for grid setup =    0.156 sec

------------------------------
INITIAL GUESS: MODEL POTENTIAL
------------------------------
Loading Hartree-Fock densities                     ... done
Calculating cut-offs                               ... done
Setting up the integral package                    ... done
Initializing the effective Hamiltonian             ... done
Starting the Coulomb interaction                   ... done (   0.0 sec)
Reading the grid                                   ... done
Mapping shells                                     ... done
Starting the XC term evaluation                    ... done (   0.0 sec)
  promolecular density results
     # of electrons  =     17.999998971
     EX              =    -27.869847309
     EC              =     -1.431662733
     EX+EC           =    -29.301510042
Transforming the Hamiltonian                       ... done (   0.0 sec)
Diagonalizing the Hamiltonian                      ... done (   0.0 sec)
Back transforming the eigenvectors                 ... done (   0.0 sec)
Now organizing SCF variables                       ... done
                      ------------------
                      INITIAL GUESS DONE (   0.2 sec)
                      ------------------
--------------
SCF ITERATIONS
--------------
ITER       Energy         Delta-E        Max-DP      RMS-DP      [F,P]     Damp
               ***  Starting incremental Fock matrix formation  ***
  0   -311.5092009841   0.000000000000 0.02077370  0.00025301  1.9967338 0.7000
                      *** Initiating the SOSCF procedure ***
                      *** Re-Reading the Fockian *** 
                      *** Removing any level shift *** 
ITER      Energy       Delta-E        Grad      Rot      Max-DP    RMS-DP
  1   -311.51568100  -0.0064800147  0.000908  0.000908  0.048680  0.000593
               *** Restarting incremental Fock matrix formation ***
  2   -311.53069483  -0.0150138328  0.005120  0.000046  0.000506  0.000008
  3   -311.53069541  -0.0000005744  0.000039  0.000000  0.000004  0.000000
                 **** Energy Check signals convergence ****
              ***Rediagonalizing the Fockian in SOSCF/NRSCF***

               *****************************************************
               *                     SUCCESS                       *
               *           SCF CONVERGED AFTER   4 CYCLES          *
               *****************************************************

Setting up the final grid:

General Integration Accuracy     IntAcc      ...  5.340
Radial Grid Type                 RadialGrid  ... Gauss-Chebyshev
Angular Grid (max. acc.)         AngularGrid ... Lebedev-590
Angular grid pruning method      GridPruning ... 3 (G Style)
Weight generation scheme         WeightScheme... Becke
Basis function cutoff            BFCut       ...    1.0000e-12
Integration weight cutoff        WCut        ...    1.0000e-14
Grids for H and He will be reduced by one unit

# of grid points (after initial pruning)     ...  18110 (   0.0 sec)
# of grid points (after weights+screening)   ...  18110 (   0.0 sec)
Grid point division into batches done        ...    0.2 sec
Reduced shell lists constructed in    0.2 sec

Total number of grid points                  ...    18110
Total number of batches                      ...      283
Average number of points per batch           ...       63
Average number of grid points per atom       ...    18110
Average number of shells per batch           ...     0.59 ( 2.35%)
Average number of basis functions per batch  ...     1.76 ( 1.68%)
Average number of large shells per batch     ...     0.59 (100.00%)
Average number of large basis fcns per batch ...     1.76 (100.00%)
Maximum spatial batch extension              ...  19.03, 19.03, 19.03 au
Average spatial batch extension              ...   0.84,  0.84,  0.80 au

Final grid set up in    0.3 sec
Final integration                            ... done (   0.0 sec)
Change in XC energy                          ...    -0.000009165
Integrated number of electrons               ...     1.999999894
Previous integrated no of electrons          ...     1.999999729

----------------
TOTAL SCF ENERGY
----------------

Total Energy       :         -311.53070457 Eh           -8477.18144 eV

Components:
Nuclear Repulsion  :            0.00000000 Eh               0.00000 eV
Electronic Energy  :         -311.53070457 Eh           -8477.18144 eV
One Electron Energy:         -323.80944518 Eh           -8811.30296 eV
Two Electron Energy:           12.27874061 Eh             334.12152 eV

Virial components:
Potential Energy   :         -621.23986703 Eh          -16904.79621 eV
Kinetic Energy     :          309.70916246 Eh            8427.61476 eV
Virial Ratio       :            2.00588146


DFT components:
N(Alpha)           :        0.999999946956 electrons
N(Beta)            :        0.999999946956 electrons
N(Total)           :        1.999999893913 electrons
E(X)               :       -9.405985545400 Eh       
E(C)               :       -0.236737798070 Eh       
E(XC)              :       -9.642723343471 Eh       
DFET-embed. en.    :        0.000000000000 Eh       

---------------
SCF CONVERGENCE
---------------

  Last Energy change         ...   -3.2969e-11  Tolerance :   1.0000e-09
  Last MAX-Density change    ...    0.0000e+00  Tolerance :   1.0000e-08
  Last RMS-Density change    ...    0.0000e+00  Tolerance :   1.0000e-09
  Last Orbital Gradient      ...    2.7639e-10  Tolerance :   2.0000e-06
  Last Orbital Rotation      ...    0.0000e+00  Tolerance :   2.0000e-06

================================================================================
                                        WARNING
Number of found core electrons (2) does not match given number of chemical core electrons (10)
================================================================================
             **** THE GBW FILE WAS UPDATED (Ar_pc-4_.gbw) ****
             **** DENSITY FILE WAS UPDATED (Ar_pc-4_.scfp) ****
             **** ENERGY FILE WAS UPDATED (Ar_pc-4_.en.tmp) ****
             **** THE GBW FILE WAS UPDATED (Ar_pc-4_.gbw) ****
             **** DENSITY FILE WAS UPDATED (Ar_pc-4_.scfp) ****
----------------
ORBITAL ENERGIES
----------------

  NO   OCC          E(Eh)            E(eV) 
   0   2.0000    -146.381828     -3983.2520 
   1   0.0000     -33.937388      -923.4833 
   2   0.0000     -32.946921      -896.5313 
   3   0.0000     -32.946921      -896.5313 
   4   0.0000     -32.946921      -896.5313 
   5   0.0000     -14.475643      -393.9023 
   6   0.0000     -14.315469      -389.5437 
   7   0.0000     -14.315469      -389.5437 
   8   0.0000     -14.315469      -389.5437 
   9   0.0000     -14.315469      -389.5437 
  10   0.0000     -14.315469      -389.5437 
  11   0.0000     -14.005043      -381.0966 
  12   0.0000     -14.005043      -381.0966 
  13   0.0000     -14.005043      -381.0966 
  14   0.0000      -8.019597      -218.2243 
  15   0.0000      -8.019597      -218.2243 
  16   0.0000      -8.019597      -218.2243 
  17   0.0000      -8.019597      -218.2243 
  18   0.0000      -8.019597      -218.2243 
  19   0.0000      -7.980530      -217.1613 
  20   0.0000      -7.798026      -212.1951 
  21   0.0000      -7.798026      -212.1951 
  22   0.0000      -7.798026      -212.1951 
  23   0.0000      -7.798026      -212.1951 
  24   0.0000      -7.798026      -212.1951 
  25   0.0000      -7.798026      -212.1951 
  26   0.0000      -7.798026      -212.1951 
  27   0.0000      -7.730659      -210.3619 
  28   0.0000      -7.730659      -210.3619 
  29   0.0000      -7.730659      -210.3619 
  30   0.0000      -5.105456      -138.9265 
  31   0.0000      -5.105456      -138.9265 
  32   0.0000      -5.105456      -138.9265 
  33   0.0000      -5.105456      -138.9265 
  34   0.0000      -5.105456      -138.9265 
  35   0.0000      -5.089212      -138.4845 
  36   0.0000      -5.089212      -138.4845 
  37   0.0000      -5.089212      -138.4845 
  38   0.0000      -5.089212      -138.4845 
  39   0.0000      -5.089212      -138.4845 
  40   0.0000      -5.089212      -138.4845 
  41   0.0000      -5.089212      -138.4845 
  42   0.0000      -5.089212      -138.4845 
  43   0.0000      -5.089212      -138.4845 
  44   0.0000      -5.062937      -137.7695 
  45   0.0000      -4.931567      -134.1948 
  46   0.0000      -4.931567      -134.1948 
  47   0.0000      -4.931567      -134.1948 
  48   0.0000      -4.931567      -134.1948 
  49   0.0000      -4.931567      -134.1948 
  50   0.0000      -4.931567      -134.1948 
  51   0.0000      -4.931567      -134.1948 
  52   0.0000      -4.926305      -134.0516 
  53   0.0000      -4.926305      -134.0516 
  54   0.0000      -4.926305      -134.0516 
  55   0.0000      -3.500188       -95.2450 
  56   0.0000      -3.500188       -95.2450 
  57   0.0000      -3.500188       -95.2450 
  58   0.0000      -3.500188       -95.2450 
  59   0.0000      -3.500188       -95.2449 
  60   0.0000      -3.479139       -94.6722 
  61   0.0000      -3.419808       -93.0577 
  62   0.0000      -3.419808       -93.0577 
  63   0.0000      -3.419808       -93.0577 
  64   0.0000      -2.704527       -73.5939 
  65   0.0000      -2.704527       -73.5939 
  66   0.0000      -2.704527       -73.5939 
  67   0.0000      -2.704527       -73.5939 
  68   0.0000      -2.704527       -73.5939 
  69   0.0000      -2.704527       -73.5939 
  70   0.0000      -2.704527       -73.5939 
  71   0.0000      -2.704527       -73.5939 
  72   0.0000      -2.704527       -73.5939 
  73   0.0000      -2.704527       -73.5939 
  74   0.0000      -2.704527       -73.5939 
  75   0.0000      -2.482219       -67.5446 
  76   0.0000      -2.482219       -67.5446 
  77   0.0000      -2.482219       -67.5446 
  78   0.0000      -1.831781       -49.8453 
  79   0.0000      -1.831781       -49.8453 
  80   0.0000      -1.831781       -49.8453 
  81   0.0000      -1.831781       -49.8453 
  82   0.0000      -1.831781       -49.8453 
  83   0.0000      -1.831781       -49.8453 
  84   0.0000      -1.831781       -49.8453 
  85   0.0000      -1.831781       -49.8453 
  86   0.0000      -1.831781       -49.8453 
  87   0.0000      -1.542148       -41.9640 
  88   0.0000      -1.542148       -41.9640 
  89   0.0000      -1.542148       -41.9640 
  90   0.0000      -1.542148       -41.9640 
  91   0.0000      -1.542148       -41.9640 
  92   0.0000      -1.542148       -41.9640 
  93   0.0000      -1.542148       -41.9640 
  94   0.0000       0.658737        17.9251 
  95   0.0000       0.658737        17.9251 
  96   0.0000       0.658737        17.9251 
  97   0.0000       0.658737        17.9251 
  98   0.0000       0.658737        17.9251 
  99   0.0000      30.697434       835.3196 
 100   0.0000      43.499956      1183.6940 
 101   0.0000      43.499956      1183.6940 
 102   0.0000      43.499956      1183.6940 
 103   0.0000      43.499956      1183.6940 
 104   0.0000      43.499956      1183.6940 

                    ********************************
                    * MULLIKEN POPULATION ANALYSIS *
                    ********************************

-----------------------
MULLIKEN ATOMIC CHARGES
-----------------------
   0 Ar:   16.000000
Sum of atomic charges:   16.0000000

--------------------------------
MULLIKEN REDUCED ORBITAL CHARGES
--------------------------------
  0 Ars       :     2.000000  s :     2.000000
      pz      :     0.000000  p :     0.000000
      px      :     0.000000
      py      :     0.000000
      dz2     :     0.000000  d :     0.000000
      dxz     :     0.000000
      dyz     :     0.000000
      dx2y2   :     0.000000
      dxy     :     0.000000
      f0      :     0.000000  f :     0.000000
      f+1     :     0.000000
      f-1     :     0.000000
      f+2     :     0.000000
      f-2     :     0.000000
      f+3     :     0.000000
      f-3     :     0.000000
      g0      :     0.000000  g :     0.000000
      g+1     :     0.000000
      g-1     :     0.000000
      g+2     :     0.000000
      g-2     :     0.000000
      g+3     :     0.000000
      g-3     :     0.000000
      g+4     :     0.000000
      g-4     :     0.000000
      h0      :     0.000000  h :     0.000000
      h+1     :     0.000000
      h-1     :     0.000000
      h+2     :     0.000000
      h-2     :     0.000000
      h+3     :     0.000000
      h-3     :     0.000000
      h+4     :     0.000000
      h-4     :     0.000000
      h+5     :     0.000000
      h-5     :     0.000000


                     *******************************
                     * LOEWDIN POPULATION ANALYSIS *
                     *******************************

----------------------
LOEWDIN ATOMIC CHARGES
----------------------
   0 Ar:   16.000000

-------------------------------
LOEWDIN REDUCED ORBITAL CHARGES
-------------------------------
  0 Ars       :     2.000000  s :     2.000000
      pz      :     0.000000  p :     0.000000
      px      :     0.000000
      py      :     0.000000
      dz2     :     0.000000  d :     0.000000
      dxz     :     0.000000
      dyz     :     0.000000
      dx2y2   :     0.000000
      dxy     :     0.000000
      f0      :     0.000000  f :     0.000000
      f+1     :     0.000000
      f-1     :     0.000000
      f+2     :     0.000000
      f-2     :     0.000000
      f+3     :     0.000000
      f-3     :     0.000000
      g0      :     0.000000  g :     0.000000
      g+1     :     0.000000
      g-1     :     0.000000
      g+2     :     0.000000
      g-2     :     0.000000
      g+3     :     0.000000
      g-3     :     0.000000
      g+4     :     0.000000
      g-4     :     0.000000
      h0      :     0.000000  h :     0.000000
      h+1     :     0.000000
      h-1     :     0.000000
      h+2     :     0.000000
      h-2     :     0.000000
      h+3     :     0.000000
      h-3     :     0.000000
      h+4     :     0.000000
      h-4     :     0.000000
      h+5     :     0.000000
      h-5     :     0.000000


                      *****************************
                      * MAYER POPULATION ANALYSIS *
                      *****************************

  NA   - Mulliken gross atomic population
  ZA   - Total nuclear charge
  QA   - Mulliken gross atomic charge
  VA   - Mayer's total valence
  BVA  - Mayer's bonded valence
  FA   - Mayer's free valence

  ATOM       NA         ZA         QA         VA         BVA        FA
  0 Ar     2.0000    18.0000    16.0000    -0.0000     0.0000    -0.0000

  Mayer bond orders larger than 0.100000


--------------------------
ATOM BASIS FOR ELEMENT Ar
--------------------------
 NewGTO Ar
 S 43
    1    9445100.000000000000         0.000001293141
    2    1414100.000000000000         0.000010058962
    3     321810.000000000000         0.000052920657
    4      91158.000000000000         0.000223616854
    5      29743.000000000000         0.000815152375
    6      10740.000000000000         0.002659621722
    7       4190.000000000000         0.007925109192
    8       1738.900000000000         0.021708220575
    9        759.290000000000         0.054273548983
   10        345.500000000000         0.120928956999
   11        162.360000000000         0.226834218676
   12         78.888000000000         0.316280960179
   13         39.321000000000         0.277772499304
   14         19.918000000000         0.111198926070
   15          9.576400000000         0.010266991149
   16      29743.000000000000         0.000000052251
   17      10740.000000000000         0.000000037545
   18       4190.000000000000         0.000002196545
   19       1738.900000000000         0.000009532070
   20        759.290000000000         0.000072315425
   21        345.500000000000         0.000313248314
   22        162.360000000000         0.001437377117
   23         78.888000000000         0.003870297111
   24         39.321000000000         0.008302287257
   25         19.918000000000         0.000986165853
   26          9.576400000000        -0.018660278177
   27          4.916100000000        -0.034093374557
   28      10740.000000000000        -0.000000108321
   29       4190.000000000000        -0.000000812494
   30       1738.900000000000        -0.000005429136
   31        759.290000000000        -0.000031322230
   32        345.500000000000        -0.000154228870
   33        162.360000000000        -0.000651677665
   34         78.888000000000        -0.001884420729
   35         39.321000000000        -0.003847411453
   36         19.918000000000        -0.000933748981
   37          9.576400000000         0.010960514209
   38          4.916100000000         0.022307330891
   39          2.464800000000         0.015349101681
   40          1.183000000000        -0.010273106581
   41          0.575210000000         0.005113021669
   42          0.270410000000        -0.001874899157
   43          0.123120000000         0.000420600605
 S 43
    1    9445100.000000000000         0.000000332709
    2    1414100.000000000000         0.000002588048
    3     321810.000000000000         0.000013615838
    4      91158.000000000000         0.000057533884
    5      29743.000000000000         0.000209728746
    6      10740.000000000000         0.000684288170
    7       4190.000000000000         0.002039033755
    8       1738.900000000000         0.005585259893
    9        759.290000000000         0.013963920964
   10        345.500000000000         0.031113542960
   11        162.360000000000         0.058361672693
   12         78.888000000000         0.081375226299
   13         39.321000000000         0.071467469865
   14         19.918000000000         0.028610124897
   15          9.576400000000         0.002641571366
   16      29743.000000000000         0.000000522224
   17      10740.000000000000         0.000000375244
   18       4190.000000000000         0.000021953283
   19       1738.900000000000         0.000095267915
   20        759.290000000000         0.000722753789
   21        345.500000000000         0.003130748463
   22        162.360000000000         0.014365811413
   23         78.888000000000         0.038681538584
   24         39.321000000000         0.082976897027
   25         19.918000000000         0.009856197444
   26          9.576400000000        -0.186499446830
   27          4.916100000000        -0.340744946838
   28      10740.000000000000         0.000001731764
   29       4190.000000000000         0.000012989641
   30       1738.900000000000         0.000086797570
   31        759.290000000000         0.000500759854
   32        345.500000000000         0.002465712857
   33        162.360000000000         0.010418607098
   34         78.888000000000         0.030126917426
   35         39.321000000000         0.061509961838
   36         19.918000000000         0.014928183499
   37          9.576400000000        -0.175229714559
   38          4.916100000000        -0.356635386799
   39          2.464800000000        -0.245391653618
   40          1.183000000000         0.298939364604
   41          0.575210000000        -0.267824482843
   42          0.270410000000         0.141288200220
   43          0.123120000000        -0.038944288182
 S 43
    1    9445100.000000000000         0.000000087818
    2    1414100.000000000000         0.000000683108
    3     321810.000000000000         0.000003593864
    4      91158.000000000000         0.000015185912
    5      29743.000000000000         0.000055357332
    6      10740.000000000000         0.000180616003
    7       4190.000000000000         0.000538197419
    8       1738.900000000000         0.001474214172
    9        759.290000000000         0.003685738994
   10        345.500000000000         0.008212335118
   11        162.360000000000         0.015404404919
   12         78.888000000000         0.021478769858
   13         39.321000000000         0.018863644470
   14         19.918000000000         0.007551564723
   15          9.576400000000         0.000697235584
   16      29743.000000000000        -0.000000105184
   17      10740.000000000000        -0.000000075580
   18       4190.000000000000        -0.000004421723
   19       1738.900000000000        -0.000019188398
   20        759.290000000000        -0.000145573540
   21        345.500000000000        -0.000630580073
   22        162.360000000000        -0.002893491610
   23         78.888000000000        -0.007791046683
   24         39.321000000000        -0.016712801560
   25         19.918000000000        -0.001985187178
   26          9.576400000000         0.037563808211
   27          4.916100000000         0.068631183896
   28      10740.000000000000         0.000003487892
   29       4190.000000000000         0.000026162029
   30       1738.900000000000         0.000174816260
   31        759.290000000000         0.001008564705
   32        345.500000000000         0.004966114873
   33        162.360000000000         0.020983789546
   34         78.888000000000         0.060677678790
   35         39.321000000000         0.123885283516
   36         19.918000000000         0.030066385833
   37          9.576400000000        -0.352924668134
   38          4.916100000000        -0.718288138789
   39          2.464800000000        -0.494235627411
   40          1.183000000000         2.406809103278
   41          0.575210000000        -1.079868533308
   42          0.270410000000         0.548793762216
   43          0.123120000000        -0.146692155997
 S 43
    1    9445100.000000000000         0.000000032621
    2    1414100.000000000000         0.000000253748
    3     321810.000000000000         0.000001334980
    4      91158.000000000000         0.000005640974
    5      29743.000000000000         0.000020563089
    6      10740.000000000000         0.000067091799
    7       4190.000000000000         0.000199919345
    8       1738.900000000000         0.000547613051
    9        759.290000000000         0.001369108245
   10        345.500000000000         0.003050562110
   11        162.360000000000         0.005722135458
   12         78.888000000000         0.007978525054
   13         39.321000000000         0.007007107996
   14         19.918000000000         0.002805111687
   15          9.576400000000         0.000258995818
   16      29743.000000000000        -0.000000261426
   17      10740.000000000000        -0.000000187848
   18       4190.000000000000        -0.000010989836
   19       1738.900000000000        -0.000047691214
   20        759.290000000000        -0.000361811273
   21        345.500000000000        -0.001567255826
   22        162.360000000000        -0.007191539626
   23         78.888000000000        -0.019364017076
   24         39.321000000000        -0.041538318014
   25         19.918000000000        -0.004934022342
   26          9.576400000000         0.093361810449
   27          4.916100000000         0.170577262716
   28      10740.000000000000         0.000003125803
   29       4190.000000000000         0.000023446064
   30       1738.900000000000         0.000156668019
   31        759.290000000000         0.000903862338
   32        345.500000000000         0.004450566412
   33        162.360000000000         0.018805394423
   34         78.888000000000         0.054378532526
   35         39.321000000000         0.111024351187
   36         19.918000000000         0.026945096987
   37          9.576400000000        -0.316286415830
   38          4.916100000000        -0.643720321824
   39          2.464800000000        -0.442927426966
   40          1.183000000000         3.756817847466
   41          0.575210000000        -3.633027461477
   42          0.270410000000         0.574461668847
   43          0.123120000000        -0.188157690182
 S 43
    1    9445100.000000000000         0.000000016762
    2    1414100.000000000000         0.000000130390
    3     321810.000000000000         0.000000685989
    4      91158.000000000000         0.000002898654
    5      29743.000000000000         0.000010566488
    6      10740.000000000000         0.000034475591
    7       4190.000000000000         0.000102729956
    8       1738.900000000000         0.000281394804
    9        759.290000000000         0.000703525865
   10        345.500000000000         0.001567552715
   11        162.360000000000         0.002940359400
   12         78.888000000000         0.004099821004
   13         39.321000000000         0.003600651542
   14         19.918000000000         0.001441426295
   15          9.576400000000         0.000133086816
   16      29743.000000000000        -0.000000271148
   17      10740.000000000000        -0.000000194833
   18       4190.000000000000        -0.000011398525
   19       1738.900000000000        -0.000049464751
   20        759.290000000000        -0.000375266281
   21        345.500000000000        -0.001625538805
   22        162.360000000000        -0.007458978003
   23         78.888000000000        -0.020084124532
   24         39.321000000000        -0.043083041527
   25         19.918000000000        -0.005117508355
   26          9.576400000000         0.096833741687
   27          4.916100000000         0.176920675766
   28      10740.000000000000         0.000002506943
   29       4190.000000000000         0.000018804112
   30       1738.900000000000         0.000125650213
   31        759.290000000000         0.000724911799
   32        345.500000000000         0.003569424200
   33        162.360000000000         0.015082221843
   34         78.888000000000         0.043612437611
   35         39.321000000000         0.089043274332
   36         19.918000000000         0.021610391209
   37          9.576400000000        -0.253666675744
   38          4.916100000000        -0.516273813776
   39          2.464800000000        -0.355234756762
   40          1.183000000000         4.058510884141
   41          0.575210000000        -6.705441766966
   42          0.270410000000         3.890395438356
   43          0.123120000000        -0.089958035155
 S 43
    1    9445100.000000000000        -0.000000007574
    2    1414100.000000000000        -0.000000058917
    3     321810.000000000000        -0.000000309966
    4      91158.000000000000        -0.000001309766
    5      29743.000000000000        -0.000004774499
    6      10740.000000000000        -0.000015577900
    7       4190.000000000000        -0.000046418842
    8       1738.900000000000        -0.000127149094
    9        759.290000000000        -0.000317890291
   10        345.500000000000        -0.000708303439
   11        162.360000000000        -0.001328610294
   12         78.888000000000        -0.001852516530
   13         39.321000000000        -0.001626965297
   14         19.918000000000        -0.000651312834
   15          9.576400000000        -0.000060135681
   16      29743.000000000000         0.000000188039
   17      10740.000000000000         0.000000135116
   18       4190.000000000000         0.000007904797
   19       1738.900000000000         0.000034303456
   20        759.290000000000         0.000260244520
   21        345.500000000000         0.001127299703
   22        162.360000000000         0.005172748668
   23         78.888000000000         0.013928198792
   24         39.321000000000         0.029877785612
   25         19.918000000000         0.003548955971
   26          9.576400000000        -0.067153517290
   27          4.916100000000        -0.122693241551
   28      10740.000000000000        -0.000001700275
   29       4190.000000000000        -0.000012753445
   30       1738.900000000000        -0.000085219289
   31        759.290000000000        -0.000491654303
   32        345.500000000000        -0.002420877645
   33        162.360000000000        -0.010229160687
   34         78.888000000000        -0.029579105579
   35         39.321000000000        -0.060391497400
   36         19.918000000000        -0.014656737348
   37          9.576400000000         0.172043430608
   38          4.916100000000         0.350150518567
   39          2.464800000000         0.240929582276
   40          1.183000000000        -3.344510341522
   41          0.575210000000         7.393486515492
   42          0.270410000000        -8.041047187505
   43          0.123120000000         3.893007528410
 S 43
    1    9445100.000000000000        -0.000001871805
    2    1414100.000000000000        -0.000014560220
    3     321810.000000000000        -0.000076601981
    4      91158.000000000000        -0.000323682566
    5      29743.000000000000        -0.001179922748
    6      10740.000000000000        -0.003849768785
    7       4190.000000000000        -0.011471495265
    8       1738.900000000000        -0.031422374569
    9        759.290000000000        -0.078560275330
   10        345.500000000000        -0.175043134922
   11        162.360000000000        -0.328339660987
   12         78.888000000000        -0.457812687379
   13         39.321000000000        -0.402072177581
   14         19.918000000000        -0.160959038284
   15          9.576400000000        -0.014861339761
   16      29743.000000000000         0.000023106659
   17      10740.000000000000         0.000016603292
   18       4190.000000000000         0.000971358299
   19       1738.900000000000         0.004215281987
   20        759.290000000000         0.031979402866
   21        345.500000000000         0.138524996816
   22        162.360000000000         0.635638411591
   23         78.888000000000         1.711526835293
   24         39.321000000000         3.671446151539
   25         19.918000000000         0.436103294660
   26          9.576400000000        -8.251967726761
   27          4.916100000000       -15.076807744768
   28      10740.000000000000        -0.000064633918
   29       4190.000000000000        -0.000484806974
   30       1738.900000000000        -0.003239509530
   31        759.290000000000        -0.018689651437
   32        345.500000000000        -0.092026773806
   33        162.360000000000        -0.388849332596
   34         78.888000000000        -1.124414388985
   35         39.321000000000        -2.295710682201
   36         19.918000000000        -0.557158374037
   37          9.576400000000         6.540025640275
   38          4.916100000000        13.310553976355
   39          2.464800000000         9.158650464121
   40          1.183000000000       -12.601179458063
   41          0.575210000000        10.138278796099
   42          0.270410000000        -5.132074161876
   43          0.123120000000         1.392040414067
 P 26
    1      13006.000000000000         0.000019209019
    2       3078.100000000000         0.000171501842
    3        999.560000000000         0.000999895227
    4        380.970000000000         0.004551004927
    5        160.280000000000         0.016765906570
    6         74.494000000000         0.048221427295
    7         36.065000000000         0.120060791301
    8         18.164000000000         0.230743352493
    9          9.466500000000         0.323619651145
   10          5.163000000000         0.318780272272
   11          2.808500000000         0.208555131823
   12       3078.100000000000        -0.000001233563
   13        999.560000000000         0.000000817662
   14        380.970000000000        -0.000020315355
   15        160.280000000000         0.000114339315
   16         74.494000000000         0.000245978767
   17         36.065000000000         0.003738458406
   18         18.164000000000         0.007385448939
   19          9.466500000000         0.034252122680
   20          5.163000000000        -0.000743109338
   21          2.808500000000        -0.000537664621
   22          1.523500000000        -0.381126575802
   23          0.743790000000         0.352302588503
   24          0.356800000000        -0.222879574520
   25          0.162210000000         0.101116537790
   26          0.069956000000        -0.028389203079
 P 26
    1      13006.000000000000         0.000006634517
    2       3078.100000000000         0.000059234249
    3        999.560000000000         0.000345349308
    4        380.970000000000         0.001571851089
    5        160.280000000000         0.005790700938
    6         74.494000000000         0.016654981532
    7         36.065000000000         0.041467255824
    8         18.164000000000         0.079695407001
    9          9.466500000000         0.111773533377
   10          5.163000000000         0.110102082110
   11          2.808500000000         0.072031917423
   12       3078.100000000000        -0.000005054184
   13        999.560000000000         0.000003350143
   14        380.970000000000        -0.000083236543
   15        160.280000000000         0.000468473703
   16         74.494000000000         0.001007829928
   17         36.065000000000         0.015317298768
   18         18.164000000000         0.030259833241
   19          9.466500000000         0.140338594036
   20          5.163000000000        -0.003044684869
   21          2.808500000000        -0.002202931995
   22          1.523500000000        -1.561560674587
   23          0.743790000000         0.712774223901
   24          0.356800000000        -0.478084112821
   25          0.162210000000         0.214459542336
   26          0.069956000000        -0.059629557747
 P 26
    1      13006.000000000000        -0.000001783902
    2       3078.100000000000        -0.000015927023
    3        999.560000000000        -0.000092858212
    4        380.970000000000        -0.000422642460
    5        160.280000000000        -0.001557015232
    6         74.494000000000        -0.004478224693
    7         36.065000000000        -0.011149798553
    8         18.164000000000        -0.021428660180
    9          9.466500000000        -0.030053890858
   10          5.163000000000        -0.029604467704
   11          2.808500000000        -0.019368085799
   12       3078.100000000000         0.000005721598
   13        999.560000000000        -0.000003792536
   14        380.970000000000         0.000094228079
   15        160.280000000000        -0.000530336500
   16         74.494000000000        -0.001140915688
   17         36.065000000000        -0.017339975695
   18         18.164000000000        -0.034255698796
   19          9.466500000000        -0.158870558483
   20          5.163000000000         0.003446740997
   21          2.808500000000         0.002493833138
   22          1.523500000000         1.767767577991
   23          0.743790000000        -2.086607201320
   24          0.356800000000         0.179240529582
   25          0.162210000000        -0.187514552529
   26          0.069956000000         0.053704601435
 P 26
    1      13006.000000000000        -0.000000037013
    2       3078.100000000000        -0.000000330460
    3        999.560000000000        -0.000001926656
    4        380.970000000000        -0.000008769138
    5        160.280000000000        -0.000032305513
    6         74.494000000000        -0.000092915819
    7         36.065000000000        -0.000231340037
    8         18.164000000000        -0.000444609562
    9          9.466500000000        -0.000623568955
   10          5.163000000000        -0.000614244162
   11          2.808500000000        -0.000401856022
   12       3078.100000000000         0.000005406297
   13        999.560000000000        -0.000003583540
   14        380.970000000000         0.000089035440
   15        160.280000000000        -0.000501111178
   16         74.494000000000        -0.001078043098
   17         36.065000000000        -0.016384419394
   18         18.164000000000        -0.032367965535
   19          9.466500000000        -0.150115657902
   20          5.163000000000         0.003256800992
   21          2.808500000000         0.002356405150
   22          1.523500000000         1.670350979574
   23          0.743790000000        -3.320353496378
   24          0.356800000000         2.015734025702
   25          0.162210000000         0.293031592350
   26          0.069956000000        -0.007386231316
 P 26
    1      13006.000000000000        -0.000000578848
    2       3078.100000000000        -0.000005168069
    3        999.560000000000        -0.000030131030
    4        380.970000000000        -0.000137140834
    5        160.280000000000        -0.000505226964
    6         74.494000000000        -0.001453113508
    7         36.065000000000        -0.003617934339
    8         18.164000000000        -0.006953263338
    9          9.466500000000        -0.009752015091
   10          5.163000000000        -0.009606184343
   11          2.808500000000        -0.006284639346
   12       3078.100000000000        -0.000004740159
   13        999.560000000000         0.000003141993
   14        380.970000000000        -0.000078064911
   15        160.280000000000         0.000439366613
   16         74.494000000000         0.000945211693
   17         36.065000000000         0.014365608212
   18         18.164000000000         0.028379736890
   19          9.466500000000         0.131619111794
   20          5.163000000000        -0.002855513274
   21          2.808500000000        -0.002066059978
   22          1.523500000000        -1.464538179349
   23          0.743790000000         3.838775915454
   24          0.356800000000        -4.523958245865
   25          0.162210000000         2.375196333127
   26          0.069956000000         0.104326531928
 P 26
    1      13006.000000000000        -0.000000535558
    2       3078.100000000000        -0.000004781563
    3        999.560000000000        -0.000027877614
    4        380.970000000000        -0.000126884451
    5        160.280000000000        -0.000467442439
    6         74.494000000000        -0.001344439175
    7         36.065000000000        -0.003347359052
    8         18.164000000000        -0.006433248035
    9          9.466500000000        -0.009022688898
   10          5.163000000000        -0.008887764427
   11          2.808500000000        -0.005814628580
   12       3078.100000000000        -0.000003071715
   13        999.560000000000         0.000002036072
   14        380.970000000000        -0.000050587571
   15        160.280000000000         0.000284718054
   16         74.494000000000         0.000612515440
   17         36.065000000000         0.009309191693
   18         18.164000000000         0.018390617857
   19          9.466500000000         0.085291727581
   20          5.163000000000        -0.001850427776
   21          2.808500000000        -0.001338846786
   22          1.523500000000        -0.949049037958
   23          0.743790000000         2.828346188913
   24          0.356800000000        -4.352298278295
   25          0.162210000000         4.345423905188
   26          0.069956000000        -2.410286928326
 D 6
    1         26.330000000000         0.064375427521
    2          7.530000000000         0.412978198605
    3          2.600000000000         0.628258958236
    4          0.930000000000         0.066067260155
    5          0.410000000000        -0.000846180879
    6          0.170000000000        -0.000985521640
 D 6
    1         26.330000000000         0.049172204737
    2          7.530000000000         0.366647158381
    3          2.600000000000         0.262221634879
    4          0.930000000000        -1.012573826720
    5          0.410000000000        -0.074422019287
    6          0.170000000000        -0.012577433145
 D 6
    1         26.330000000000         0.036234849021
    2          7.530000000000         0.296788813898
    3          2.600000000000         0.044817873756
    4          0.930000000000        -1.188660626195
    5          0.410000000000         1.412352790403
    6          0.170000000000         0.087835236870
 D 6
    1         26.330000000000         0.024548890231
    2          7.530000000000         0.219350919926
    3          2.600000000000        -0.066585712972
    4          0.930000000000        -0.822667839729
    5          0.410000000000         1.822957217420
    6          0.170000000000        -1.617855651941
 D 6
    1         26.330000000000         0.097750200044
    2          7.530000000000         1.109244999169
    3          2.600000000000        -1.866836971314
    4          0.930000000000         1.951814265879
    5          0.410000000000        -1.437192036434
    6          0.170000000000         0.546372908942
 D 6
    1         26.330000000000         1.235299184189
    2          7.530000000000        -1.134082181128
    3          2.600000000000         0.765726828513
    4          0.930000000000        -0.503262928799
    5          0.410000000000         0.302419602654
    6          0.170000000000        -0.101309079832
 F 3
    1          4.530000000000         0.340513037093
    2          1.060000000000         0.858223062747
    3          0.440000000000        -0.042224159974
 F 3
    1          4.530000000000         0.328408530696
    2          1.060000000000         0.452237936152
    3          0.440000000000        -1.154491279034
 F 3
    1          4.530000000000         0.973775666928
    2          1.060000000000        -1.050649434665
    3          0.440000000000         0.701933444149
 G 2
    1          2.180000000000         0.303456989293
    2          0.730000000000         0.824414498352
 G 2
    1          2.180000000000         1.081996276681
    2          0.730000000000        -0.763637886703
 H 1
    1          1.120000000000         1.000000000000
 end
  // -----------------------------------------------
  // The basis set
  // -----------------------------------------------
  BAS[ATNO] = new BFNGauss[NSH];
  // Basis function   1 L = s
  InitBFNGauss(BAS[ATNO][  0]);
  BAS[ATNO][  0].l  = 0;
  BAS[ATNO][  0].ng = 43;
  BAS[ATNO][  0].a[  0] =   9445100.000000000000;     BAS[ATNO][  0].d[  0] =         0.000001293141;
  BAS[ATNO][  0].a[  1] =   1414100.000000000000;     BAS[ATNO][  0].d[  1] =         0.000010058962;
  BAS[ATNO][  0].a[  2] =    321810.000000000000;     BAS[ATNO][  0].d[  2] =         0.000052920657;
  BAS[ATNO][  0].a[  3] =     91158.000000000000;     BAS[ATNO][  0].d[  3] =         0.000223616854;
  BAS[ATNO][  0].a[  4] =     29743.000000000000;     BAS[ATNO][  0].d[  4] =         0.000815152375;
  BAS[ATNO][  0].a[  5] =     10740.000000000000;     BAS[ATNO][  0].d[  5] =         0.002659621722;
  BAS[ATNO][  0].a[  6] =      4190.000000000000;     BAS[ATNO][  0].d[  6] =         0.007925109192;
  BAS[ATNO][  0].a[  7] =      1738.900000000000;     BAS[ATNO][  0].d[  7] =         0.021708220575;
  BAS[ATNO][  0].a[  8] =       759.290000000000;     BAS[ATNO][  0].d[  8] =         0.054273548983;
  BAS[ATNO][  0].a[  9] =       345.500000000000;     BAS[ATNO][  0].d[  9] =         0.120928956999;
  BAS[ATNO][  0].a[ 10] =       162.360000000000;     BAS[ATNO][  0].d[ 10] =         0.226834218676;
  BAS[ATNO][  0].a[ 11] =        78.888000000000;     BAS[ATNO][  0].d[ 11] =         0.316280960179;
  BAS[ATNO][  0].a[ 12] =        39.321000000000;     BAS[ATNO][  0].d[ 12] =         0.277772499304;
  BAS[ATNO][  0].a[ 13] =        19.918000000000;     BAS[ATNO][  0].d[ 13] =         0.111198926070;
  BAS[ATNO][  0].a[ 14] =         9.576400000000;     BAS[ATNO][  0].d[ 14] =         0.010266991149;
  BAS[ATNO][  0].a[ 15] =     29743.000000000000;     BAS[ATNO][  0].d[ 15] =         0.000000052251;
  BAS[ATNO][  0].a[ 16] =     10740.000000000000;     BAS[ATNO][  0].d[ 16] =         0.000000037545;
  BAS[ATNO][  0].a[ 17] =      4190.000000000000;     BAS[ATNO][  0].d[ 17] =         0.000002196545;
  BAS[ATNO][  0].a[ 18] =      1738.900000000000;     BAS[ATNO][  0].d[ 18] =         0.000009532070;
  BAS[ATNO][  0].a[ 19] =       759.290000000000;     BAS[ATNO][  0].d[ 19] =         0.000072315425;
  BAS[ATNO][  0].a[ 20] =       345.500000000000;     BAS[ATNO][  0].d[ 20] =         0.000313248314;
  BAS[ATNO][  0].a[ 21] =       162.360000000000;     BAS[ATNO][  0].d[ 21] =         0.001437377117;
  BAS[ATNO][  0].a[ 22] =        78.888000000000;     BAS[ATNO][  0].d[ 22] =         0.003870297111;
  BAS[ATNO][  0].a[ 23] =        39.321000000000;     BAS[ATNO][  0].d[ 23] =         0.008302287257;
  BAS[ATNO][  0].a[ 24] =        19.918000000000;     BAS[ATNO][  0].d[ 24] =         0.000986165853;
  BAS[ATNO][  0].a[ 25] =         9.576400000000;     BAS[ATNO][  0].d[ 25] =        -0.018660278177;
  BAS[ATNO][  0].a[ 26] =         4.916100000000;     BAS[ATNO][  0].d[ 26] =        -0.034093374557;
  BAS[ATNO][  0].a[ 27] =     10740.000000000000;     BAS[ATNO][  0].d[ 27] =        -0.000000108321;
  BAS[ATNO][  0].a[ 28] =      4190.000000000000;     BAS[ATNO][  0].d[ 28] =        -0.000000812494;
  BAS[ATNO][  0].a[ 29] =      1738.900000000000;     BAS[ATNO][  0].d[ 29] =        -0.000005429136;
  BAS[ATNO][  0].a[ 30] =       759.290000000000;     BAS[ATNO][  0].d[ 30] =        -0.000031322230;
  BAS[ATNO][  0].a[ 31] =       345.500000000000;     BAS[ATNO][  0].d[ 31] =        -0.000154228870;
  BAS[ATNO][  0].a[ 32] =       162.360000000000;     BAS[ATNO][  0].d[ 32] =        -0.000651677665;
  BAS[ATNO][  0].a[ 33] =        78.888000000000;     BAS[ATNO][  0].d[ 33] =        -0.001884420729;
  BAS[ATNO][  0].a[ 34] =        39.321000000000;     BAS[ATNO][  0].d[ 34] =        -0.003847411453;
  BAS[ATNO][  0].a[ 35] =        19.918000000000;     BAS[ATNO][  0].d[ 35] =        -0.000933748981;
  BAS[ATNO][  0].a[ 36] =         9.576400000000;     BAS[ATNO][  0].d[ 36] =         0.010960514209;
  BAS[ATNO][  0].a[ 37] =         4.916100000000;     BAS[ATNO][  0].d[ 37] =         0.022307330891;
  BAS[ATNO][  0].a[ 38] =         2.464800000000;     BAS[ATNO][  0].d[ 38] =         0.015349101681;
  BAS[ATNO][  0].a[ 39] =         1.183000000000;     BAS[ATNO][  0].d[ 39] =        -0.010273106581;
  BAS[ATNO][  0].a[ 40] =         0.575210000000;     BAS[ATNO][  0].d[ 40] =         0.005113021669;
  BAS[ATNO][  0].a[ 41] =         0.270410000000;     BAS[ATNO][  0].d[ 41] =        -0.001874899157;
  BAS[ATNO][  0].a[ 42] =         0.123120000000;     BAS[ATNO][  0].d[ 42] =         0.000420600605;

  // Basis function   2 L = s
  InitBFNGauss(BAS[ATNO][  1]);
  BAS[ATNO][  1].l  = 0;
  BAS[ATNO][  1].ng = 43;
  BAS[ATNO][  1].a[  0] =   9445100.000000000000;     BAS[ATNO][  1].d[  0] =        -0.000000332709;
  BAS[ATNO][  1].a[  1] =   1414100.000000000000;     BAS[ATNO][  1].d[  1] =        -0.000002588048;
  BAS[ATNO][  1].a[  2] =    321810.000000000000;     BAS[ATNO][  1].d[  2] =        -0.000013615838;
  BAS[ATNO][  1].a[  3] =     91158.000000000000;     BAS[ATNO][  1].d[  3] =        -0.000057533884;
  BAS[ATNO][  1].a[  4] =     29743.000000000000;     BAS[ATNO][  1].d[  4] =        -0.000209728746;
  BAS[ATNO][  1].a[  5] =     10740.000000000000;     BAS[ATNO][  1].d[  5] =        -0.000684288170;
  BAS[ATNO][  1].a[  6] =      4190.000000000000;     BAS[ATNO][  1].d[  6] =        -0.002039033755;
  BAS[ATNO][  1].a[  7] =      1738.900000000000;     BAS[ATNO][  1].d[  7] =        -0.005585259893;
  BAS[ATNO][  1].a[  8] =       759.290000000000;     BAS[ATNO][  1].d[  8] =        -0.013963920964;
  BAS[ATNO][  1].a[  9] =       345.500000000000;     BAS[ATNO][  1].d[  9] =        -0.031113542960;
  BAS[ATNO][  1].a[ 10] =       162.360000000000;     BAS[ATNO][  1].d[ 10] =        -0.058361672693;
  BAS[ATNO][  1].a[ 11] =        78.888000000000;     BAS[ATNO][  1].d[ 11] =        -0.081375226299;
  BAS[ATNO][  1].a[ 12] =        39.321000000000;     BAS[ATNO][  1].d[ 12] =        -0.071467469865;
  BAS[ATNO][  1].a[ 13] =        19.918000000000;     BAS[ATNO][  1].d[ 13] =        -0.028610124897;
  BAS[ATNO][  1].a[ 14] =         9.576400000000;     BAS[ATNO][  1].d[ 14] =        -0.002641571366;
  BAS[ATNO][  1].a[ 15] =     29743.000000000000;     BAS[ATNO][  1].d[ 15] =        -0.000000522224;
  BAS[ATNO][  1].a[ 16] =     10740.000000000000;     BAS[ATNO][  1].d[ 16] =        -0.000000375244;
  BAS[ATNO][  1].a[ 17] =      4190.000000000000;     BAS[ATNO][  1].d[ 17] =        -0.000021953283;
  BAS[ATNO][  1].a[ 18] =      1738.900000000000;     BAS[ATNO][  1].d[ 18] =        -0.000095267915;
  BAS[ATNO][  1].a[ 19] =       759.290000000000;     BAS[ATNO][  1].d[ 19] =        -0.000722753789;
  BAS[ATNO][  1].a[ 20] =       345.500000000000;     BAS[ATNO][  1].d[ 20] =        -0.003130748463;
  BAS[ATNO][  1].a[ 21] =       162.360000000000;     BAS[ATNO][  1].d[ 21] =        -0.014365811413;
  BAS[ATNO][  1].a[ 22] =        78.888000000000;     BAS[ATNO][  1].d[ 22] =        -0.038681538584;
  BAS[ATNO][  1].a[ 23] =        39.321000000000;     BAS[ATNO][  1].d[ 23] =        -0.082976897027;
  BAS[ATNO][  1].a[ 24] =        19.918000000000;     BAS[ATNO][  1].d[ 24] =        -0.009856197444;
  BAS[ATNO][  1].a[ 25] =         9.576400000000;     BAS[ATNO][  1].d[ 25] =         0.186499446830;
  BAS[ATNO][  1].a[ 26] =         4.916100000000;     BAS[ATNO][  1].d[ 26] =         0.340744946838;
  BAS[ATNO][  1].a[ 27] =     10740.000000000000;     BAS[ATNO][  1].d[ 27] =        -0.000001731764;
  BAS[ATNO][  1].a[ 28] =      4190.000000000000;     BAS[ATNO][  1].d[ 28] =        -0.000012989641;
  BAS[ATNO][  1].a[ 29] =      1738.900000000000;     BAS[ATNO][  1].d[ 29] =        -0.000086797570;
  BAS[ATNO][  1].a[ 30] =       759.290000000000;     BAS[ATNO][  1].d[ 30] =        -0.000500759854;
  BAS[ATNO][  1].a[ 31] =       345.500000000000;     BAS[ATNO][  1].d[ 31] =        -0.002465712857;
  BAS[ATNO][  1].a[ 32] =       162.360000000000;     BAS[ATNO][  1].d[ 32] =        -0.010418607098;
  BAS[ATNO][  1].a[ 33] =        78.888000000000;     BAS[ATNO][  1].d[ 33] =        -0.030126917426;
  BAS[ATNO][  1].a[ 34] =        39.321000000000;     BAS[ATNO][  1].d[ 34] =        -0.061509961838;
  BAS[ATNO][  1].a[ 35] =        19.918000000000;     BAS[ATNO][  1].d[ 35] =        -0.014928183499;
  BAS[ATNO][  1].a[ 36] =         9.576400000000;     BAS[ATNO][  1].d[ 36] =         0.175229714559;
  BAS[ATNO][  1].a[ 37] =         4.916100000000;     BAS[ATNO][  1].d[ 37] =         0.356635386799;
  BAS[ATNO][  1].a[ 38] =         2.464800000000;     BAS[ATNO][  1].d[ 38] =         0.245391653618;
  BAS[ATNO][  1].a[ 39] =         1.183000000000;     BAS[ATNO][  1].d[ 39] =        -0.298939364604;
  BAS[ATNO][  1].a[ 40] =         0.575210000000;     BAS[ATNO][  1].d[ 40] =         0.267824482843;
  BAS[ATNO][  1].a[ 41] =         0.270410000000;     BAS[ATNO][  1].d[ 41] =        -0.141288200220;
  BAS[ATNO][  1].a[ 42] =         0.123120000000;     BAS[ATNO][  1].d[ 42] =         0.038944288182;

  // Basis function   3 L = s
  InitBFNGauss(BAS[ATNO][  2]);
  BAS[ATNO][  2].l  = 0;
  BAS[ATNO][  2].ng = 43;
  BAS[ATNO][  2].a[  0] =   9445100.000000000000;     BAS[ATNO][  2].d[  0] =         0.000000087818;
  BAS[ATNO][  2].a[  1] =   1414100.000000000000;     BAS[ATNO][  2].d[  1] =         0.000000683108;
  BAS[ATNO][  2].a[  2] =    321810.000000000000;     BAS[ATNO][  2].d[  2] =         0.000003593864;
  BAS[ATNO][  2].a[  3] =     91158.000000000000;     BAS[ATNO][  2].d[  3] =         0.000015185912;
  BAS[ATNO][  2].a[  4] =     29743.000000000000;     BAS[ATNO][  2].d[  4] =         0.000055357332;
  BAS[ATNO][  2].a[  5] =     10740.000000000000;     BAS[ATNO][  2].d[  5] =         0.000180616003;
  BAS[ATNO][  2].a[  6] =      4190.000000000000;     BAS[ATNO][  2].d[  6] =         0.000538197419;
  BAS[ATNO][  2].a[  7] =      1738.900000000000;     BAS[ATNO][  2].d[  7] =         0.001474214172;
  BAS[ATNO][  2].a[  8] =       759.290000000000;     BAS[ATNO][  2].d[  8] =         0.003685738994;
  BAS[ATNO][  2].a[  9] =       345.500000000000;     BAS[ATNO][  2].d[  9] =         0.008212335118;
  BAS[ATNO][  2].a[ 10] =       162.360000000000;     BAS[ATNO][  2].d[ 10] =         0.015404404919;
  BAS[ATNO][  2].a[ 11] =        78.888000000000;     BAS[ATNO][  2].d[ 11] =         0.021478769858;
  BAS[ATNO][  2].a[ 12] =        39.321000000000;     BAS[ATNO][  2].d[ 12] =         0.018863644470;
  BAS[ATNO][  2].a[ 13] =        19.918000000000;     BAS[ATNO][  2].d[ 13] =         0.007551564723;
  BAS[ATNO][  2].a[ 14] =         9.576400000000;     BAS[ATNO][  2].d[ 14] =         0.000697235584;
  BAS[ATNO][  2].a[ 15] =     29743.000000000000;     BAS[ATNO][  2].d[ 15] =        -0.000000105184;
  BAS[ATNO][  2].a[ 16] =     10740.000000000000;     BAS[ATNO][  2].d[ 16] =        -0.000000075580;
  BAS[ATNO][  2].a[ 17] =      4190.000000000000;     BAS[ATNO][  2].d[ 17] =        -0.000004421723;
  BAS[ATNO][  2].a[ 18] =      1738.900000000000;     BAS[ATNO][  2].d[ 18] =        -0.000019188398;
  BAS[ATNO][  2].a[ 19] =       759.290000000000;     BAS[ATNO][  2].d[ 19] =        -0.000145573540;
  BAS[ATNO][  2].a[ 20] =       345.500000000000;     BAS[ATNO][  2].d[ 20] =        -0.000630580073;
  BAS[ATNO][  2].a[ 21] =       162.360000000000;     BAS[ATNO][  2].d[ 21] =        -0.002893491610;
  BAS[ATNO][  2].a[ 22] =        78.888000000000;     BAS[ATNO][  2].d[ 22] =        -0.007791046683;
  BAS[ATNO][  2].a[ 23] =        39.321000000000;     BAS[ATNO][  2].d[ 23] =        -0.016712801560;
  BAS[ATNO][  2].a[ 24] =        19.918000000000;     BAS[ATNO][  2].d[ 24] =        -0.001985187178;
  BAS[ATNO][  2].a[ 25] =         9.576400000000;     BAS[ATNO][  2].d[ 25] =         0.037563808211;
  BAS[ATNO][  2].a[ 26] =         4.916100000000;     BAS[ATNO][  2].d[ 26] =         0.068631183896;
  BAS[ATNO][  2].a[ 27] =     10740.000000000000;     BAS[ATNO][  2].d[ 27] =         0.000003487892;
  BAS[ATNO][  2].a[ 28] =      4190.000000000000;     BAS[ATNO][  2].d[ 28] =         0.000026162029;
  BAS[ATNO][  2].a[ 29] =      1738.900000000000;     BAS[ATNO][  2].d[ 29] =         0.000174816260;
  BAS[ATNO][  2].a[ 30] =       759.290000000000;     BAS[ATNO][  2].d[ 30] =         0.001008564705;
  BAS[ATNO][  2].a[ 31] =       345.500000000000;     BAS[ATNO][  2].d[ 31] =         0.004966114873;
  BAS[ATNO][  2].a[ 32] =       162.360000000000;     BAS[ATNO][  2].d[ 32] =         0.020983789546;
  BAS[ATNO][  2].a[ 33] =        78.888000000000;     BAS[ATNO][  2].d[ 33] =         0.060677678790;
  BAS[ATNO][  2].a[ 34] =        39.321000000000;     BAS[ATNO][  2].d[ 34] =         0.123885283516;
  BAS[ATNO][  2].a[ 35] =        19.918000000000;     BAS[ATNO][  2].d[ 35] =         0.030066385833;
  BAS[ATNO][  2].a[ 36] =         9.576400000000;     BAS[ATNO][  2].d[ 36] =        -0.352924668134;
  BAS[ATNO][  2].a[ 37] =         4.916100000000;     BAS[ATNO][  2].d[ 37] =        -0.718288138789;
  BAS[ATNO][  2].a[ 38] =         2.464800000000;     BAS[ATNO][  2].d[ 38] =        -0.494235627411;
  BAS[ATNO][  2].a[ 39] =         1.183000000000;     BAS[ATNO][  2].d[ 39] =         2.406809103278;
  BAS[ATNO][  2].a[ 40] =         0.575210000000;     BAS[ATNO][  2].d[ 40] =        -1.079868533308;
  BAS[ATNO][  2].a[ 41] =         0.270410000000;     BAS[ATNO][  2].d[ 41] =         0.548793762216;
  BAS[ATNO][  2].a[ 42] =         0.123120000000;     BAS[ATNO][  2].d[ 42] =        -0.146692155997;

  // Basis function   4 L = s
  InitBFNGauss(BAS[ATNO][  3]);
  BAS[ATNO][  3].l  = 0;
  BAS[ATNO][  3].ng = 43;
  BAS[ATNO][  3].a[  0] =   9445100.000000000000;     BAS[ATNO][  3].d[  0] =         0.000000032621;
  BAS[ATNO][  3].a[  1] =   1414100.000000000000;     BAS[ATNO][  3].d[  1] =         0.000000253748;
  BAS[ATNO][  3].a[  2] =    321810.000000000000;     BAS[ATNO][  3].d[  2] =         0.000001334980;
  BAS[ATNO][  3].a[  3] =     91158.000000000000;     BAS[ATNO][  3].d[  3] =         0.000005640974;
  BAS[ATNO][  3].a[  4] =     29743.000000000000;     BAS[ATNO][  3].d[  4] =         0.000020563089;
  BAS[ATNO][  3].a[  5] =     10740.000000000000;     BAS[ATNO][  3].d[  5] =         0.000067091799;
  BAS[ATNO][  3].a[  6] =      4190.000000000000;     BAS[ATNO][  3].d[  6] =         0.000199919345;
  BAS[ATNO][  3].a[  7] =      1738.900000000000;     BAS[ATNO][  3].d[  7] =         0.000547613051;
  BAS[ATNO][  3].a[  8] =       759.290000000000;     BAS[ATNO][  3].d[  8] =         0.001369108245;
  BAS[ATNO][  3].a[  9] =       345.500000000000;     BAS[ATNO][  3].d[  9] =         0.003050562110;
  BAS[ATNO][  3].a[ 10] =       162.360000000000;     BAS[ATNO][  3].d[ 10] =         0.005722135458;
  BAS[ATNO][  3].a[ 11] =        78.888000000000;     BAS[ATNO][  3].d[ 11] =         0.007978525054;
  BAS[ATNO][  3].a[ 12] =        39.321000000000;     BAS[ATNO][  3].d[ 12] =         0.007007107996;
  BAS[ATNO][  3].a[ 13] =        19.918000000000;     BAS[ATNO][  3].d[ 13] =         0.002805111687;
  BAS[ATNO][  3].a[ 14] =         9.576400000000;     BAS[ATNO][  3].d[ 14] =         0.000258995818;
  BAS[ATNO][  3].a[ 15] =     29743.000000000000;     BAS[ATNO][  3].d[ 15] =        -0.000000261426;
  BAS[ATNO][  3].a[ 16] =     10740.000000000000;     BAS[ATNO][  3].d[ 16] =        -0.000000187848;
  BAS[ATNO][  3].a[ 17] =      4190.000000000000;     BAS[ATNO][  3].d[ 17] =        -0.000010989836;
  BAS[ATNO][  3].a[ 18] =      1738.900000000000;     BAS[ATNO][  3].d[ 18] =        -0.000047691214;
  BAS[ATNO][  3].a[ 19] =       759.290000000000;     BAS[ATNO][  3].d[ 19] =        -0.000361811273;
  BAS[ATNO][  3].a[ 20] =       345.500000000000;     BAS[ATNO][  3].d[ 20] =        -0.001567255826;
  BAS[ATNO][  3].a[ 21] =       162.360000000000;     BAS[ATNO][  3].d[ 21] =        -0.007191539626;
  BAS[ATNO][  3].a[ 22] =        78.888000000000;     BAS[ATNO][  3].d[ 22] =        -0.019364017076;
  BAS[ATNO][  3].a[ 23] =        39.321000000000;     BAS[ATNO][  3].d[ 23] =        -0.041538318014;
  BAS[ATNO][  3].a[ 24] =        19.918000000000;     BAS[ATNO][  3].d[ 24] =        -0.004934022342;
  BAS[ATNO][  3].a[ 25] =         9.576400000000;     BAS[ATNO][  3].d[ 25] =         0.093361810449;
  BAS[ATNO][  3].a[ 26] =         4.916100000000;     BAS[ATNO][  3].d[ 26] =         0.170577262716;
  BAS[ATNO][  3].a[ 27] =     10740.000000000000;     BAS[ATNO][  3].d[ 27] =         0.000003125803;
  BAS[ATNO][  3].a[ 28] =      4190.000000000000;     BAS[ATNO][  3].d[ 28] =         0.000023446064;
  BAS[ATNO][  3].a[ 29] =      1738.900000000000;     BAS[ATNO][  3].d[ 29] =         0.000156668019;
  BAS[ATNO][  3].a[ 30] =       759.290000000000;     BAS[ATNO][  3].d[ 30] =         0.000903862338;
  BAS[ATNO][  3].a[ 31] =       345.500000000000;     BAS[ATNO][  3].d[ 31] =         0.004450566412;
  BAS[ATNO][  3].a[ 32] =       162.360000000000;     BAS[ATNO][  3].d[ 32] =         0.018805394423;
  BAS[ATNO][  3].a[ 33] =        78.888000000000;     BAS[ATNO][  3].d[ 33] =         0.054378532526;
  BAS[ATNO][  3].a[ 34] =        39.321000000000;     BAS[ATNO][  3].d[ 34] =         0.111024351187;
  BAS[ATNO][  3].a[ 35] =        19.918000000000;     BAS[ATNO][  3].d[ 35] =         0.026945096987;
  BAS[ATNO][  3].a[ 36] =         9.576400000000;     BAS[ATNO][  3].d[ 36] =        -0.316286415830;
  BAS[ATNO][  3].a[ 37] =         4.916100000000;     BAS[ATNO][  3].d[ 37] =        -0.643720321824;
  BAS[ATNO][  3].a[ 38] =         2.464800000000;     BAS[ATNO][  3].d[ 38] =        -0.442927426966;
  BAS[ATNO][  3].a[ 39] =         1.183000000000;     BAS[ATNO][  3].d[ 39] =         3.756817847466;
  BAS[ATNO][  3].a[ 40] =         0.575210000000;     BAS[ATNO][  3].d[ 40] =        -3.633027461477;
  BAS[ATNO][  3].a[ 41] =         0.270410000000;     BAS[ATNO][  3].d[ 41] =         0.574461668847;
  BAS[ATNO][  3].a[ 42] =         0.123120000000;     BAS[ATNO][  3].d[ 42] =        -0.188157690182;

  // Basis function   5 L = s
  InitBFNGauss(BAS[ATNO][  4]);
  BAS[ATNO][  4].l  = 0;
  BAS[ATNO][  4].ng = 43;
  BAS[ATNO][  4].a[  0] =   9445100.000000000000;     BAS[ATNO][  4].d[  0] =        -0.000000016762;
  BAS[ATNO][  4].a[  1] =   1414100.000000000000;     BAS[ATNO][  4].d[  1] =        -0.000000130390;
  BAS[ATNO][  4].a[  2] =    321810.000000000000;     BAS[ATNO][  4].d[  2] =        -0.000000685989;
  BAS[ATNO][  4].a[  3] =     91158.000000000000;     BAS[ATNO][  4].d[  3] =        -0.000002898654;
  BAS[ATNO][  4].a[  4] =     29743.000000000000;     BAS[ATNO][  4].d[  4] =        -0.000010566488;
  BAS[ATNO][  4].a[  5] =     10740.000000000000;     BAS[ATNO][  4].d[  5] =        -0.000034475591;
  BAS[ATNO][  4].a[  6] =      4190.000000000000;     BAS[ATNO][  4].d[  6] =        -0.000102729956;
  BAS[ATNO][  4].a[  7] =      1738.900000000000;     BAS[ATNO][  4].d[  7] =        -0.000281394804;
  BAS[ATNO][  4].a[  8] =       759.290000000000;     BAS[ATNO][  4].d[  8] =        -0.000703525865;
  BAS[ATNO][  4].a[  9] =       345.500000000000;     BAS[ATNO][  4].d[  9] =        -0.001567552715;
  BAS[ATNO][  4].a[ 10] =       162.360000000000;     BAS[ATNO][  4].d[ 10] =        -0.002940359400;
  BAS[ATNO][  4].a[ 11] =        78.888000000000;     BAS[ATNO][  4].d[ 11] =        -0.004099821004;
  BAS[ATNO][  4].a[ 12] =        39.321000000000;     BAS[ATNO][  4].d[ 12] =        -0.003600651542;
  BAS[ATNO][  4].a[ 13] =        19.918000000000;     BAS[ATNO][  4].d[ 13] =        -0.001441426295;
  BAS[ATNO][  4].a[ 14] =         9.576400000000;     BAS[ATNO][  4].d[ 14] =        -0.000133086816;
  BAS[ATNO][  4].a[ 15] =     29743.000000000000;     BAS[ATNO][  4].d[ 15] =         0.000000271148;
  BAS[ATNO][  4].a[ 16] =     10740.000000000000;     BAS[ATNO][  4].d[ 16] =         0.000000194833;
  BAS[ATNO][  4].a[ 17] =      4190.000000000000;     BAS[ATNO][  4].d[ 17] =         0.000011398525;
  BAS[ATNO][  4].a[ 18] =      1738.900000000000;     BAS[ATNO][  4].d[ 18] =         0.000049464751;
  BAS[ATNO][  4].a[ 19] =       759.290000000000;     BAS[ATNO][  4].d[ 19] =         0.000375266281;
  BAS[ATNO][  4].a[ 20] =       345.500000000000;     BAS[ATNO][  4].d[ 20] =         0.001625538805;
  BAS[ATNO][  4].a[ 21] =       162.360000000000;     BAS[ATNO][  4].d[ 21] =         0.007458978003;
  BAS[ATNO][  4].a[ 22] =        78.888000000000;     BAS[ATNO][  4].d[ 22] =         0.020084124532;
  BAS[ATNO][  4].a[ 23] =        39.321000000000;     BAS[ATNO][  4].d[ 23] =         0.043083041527;
  BAS[ATNO][  4].a[ 24] =        19.918000000000;     BAS[ATNO][  4].d[ 24] =         0.005117508355;
  BAS[ATNO][  4].a[ 25] =         9.576400000000;     BAS[ATNO][  4].d[ 25] =        -0.096833741687;
  BAS[ATNO][  4].a[ 26] =         4.916100000000;     BAS[ATNO][  4].d[ 26] =        -0.176920675766;
  BAS[ATNO][  4].a[ 27] =     10740.000000000000;     BAS[ATNO][  4].d[ 27] =        -0.000002506943;
  BAS[ATNO][  4].a[ 28] =      4190.000000000000;     BAS[ATNO][  4].d[ 28] =        -0.000018804112;
  BAS[ATNO][  4].a[ 29] =      1738.900000000000;     BAS[ATNO][  4].d[ 29] =        -0.000125650213;
  BAS[ATNO][  4].a[ 30] =       759.290000000000;     BAS[ATNO][  4].d[ 30] =        -0.000724911799;
  BAS[ATNO][  4].a[ 31] =       345.500000000000;     BAS[ATNO][  4].d[ 31] =        -0.003569424200;
  BAS[ATNO][  4].a[ 32] =       162.360000000000;     BAS[ATNO][  4].d[ 32] =        -0.015082221843;
  BAS[ATNO][  4].a[ 33] =        78.888000000000;     BAS[ATNO][  4].d[ 33] =        -0.043612437611;
  BAS[ATNO][  4].a[ 34] =        39.321000000000;     BAS[ATNO][  4].d[ 34] =        -0.089043274332;
  BAS[ATNO][  4].a[ 35] =        19.918000000000;     BAS[ATNO][  4].d[ 35] =        -0.021610391209;
  BAS[ATNO][  4].a[ 36] =         9.576400000000;     BAS[ATNO][  4].d[ 36] =         0.253666675744;
  BAS[ATNO][  4].a[ 37] =         4.916100000000;     BAS[ATNO][  4].d[ 37] =         0.516273813776;
  BAS[ATNO][  4].a[ 38] =         2.464800000000;     BAS[ATNO][  4].d[ 38] =         0.355234756762;
  BAS[ATNO][  4].a[ 39] =         1.183000000000;     BAS[ATNO][  4].d[ 39] =        -4.058510884141;
  BAS[ATNO][  4].a[ 40] =         0.575210000000;     BAS[ATNO][  4].d[ 40] =         6.705441766966;
  BAS[ATNO][  4].a[ 41] =         0.270410000000;     BAS[ATNO][  4].d[ 41] =        -3.890395438356;
  BAS[ATNO][  4].a[ 42] =         0.123120000000;     BAS[ATNO][  4].d[ 42] =         0.089958035155;

  // Basis function   6 L = s
  InitBFNGauss(BAS[ATNO][  5]);
  BAS[ATNO][  5].l  = 0;
  BAS[ATNO][  5].ng = 43;
  BAS[ATNO][  5].a[  0] =   9445100.000000000000;     BAS[ATNO][  5].d[  0] =         0.000000007574;
  BAS[ATNO][  5].a[  1] =   1414100.000000000000;     BAS[ATNO][  5].d[  1] =         0.000000058917;
  BAS[ATNO][  5].a[  2] =    321810.000000000000;     BAS[ATNO][  5].d[  2] =         0.000000309966;
  BAS[ATNO][  5].a[  3] =     91158.000000000000;     BAS[ATNO][  5].d[  3] =         0.000001309766;
  BAS[ATNO][  5].a[  4] =     29743.000000000000;     BAS[ATNO][  5].d[  4] =         0.000004774499;
  BAS[ATNO][  5].a[  5] =     10740.000000000000;     BAS[ATNO][  5].d[  5] =         0.000015577900;
  BAS[ATNO][  5].a[  6] =      4190.000000000000;     BAS[ATNO][  5].d[  6] =         0.000046418842;
  BAS[ATNO][  5].a[  7] =      1738.900000000000;     BAS[ATNO][  5].d[  7] =         0.000127149094;
  BAS[ATNO][  5].a[  8] =       759.290000000000;     BAS[ATNO][  5].d[  8] =         0.000317890291;
  BAS[ATNO][  5].a[  9] =       345.500000000000;     BAS[ATNO][  5].d[  9] =         0.000708303439;
  BAS[ATNO][  5].a[ 10] =       162.360000000000;     BAS[ATNO][  5].d[ 10] =         0.001328610294;
  BAS[ATNO][  5].a[ 11] =        78.888000000000;     BAS[ATNO][  5].d[ 11] =         0.001852516530;
  BAS[ATNO][  5].a[ 12] =        39.321000000000;     BAS[ATNO][  5].d[ 12] =         0.001626965297;
  BAS[ATNO][  5].a[ 13] =        19.918000000000;     BAS[ATNO][  5].d[ 13] =         0.000651312834;
[...]
  BAS[ATNO][  9].a[ 10] =         2.808500000000;     BAS[ATNO][  9].d[ 10] =         0.019368085799;
  BAS[ATNO][  9].a[ 11] =      3078.100000000000;     BAS[ATNO][  9].d[ 11] =        -0.000005721598;
  BAS[ATNO][  9].a[ 12] =       999.560000000000;     BAS[ATNO][  9].d[ 12] =         0.000003792536;
  BAS[ATNO][  9].a[ 13] =       380.970000000000;     BAS[ATNO][  9].d[ 13] =        -0.000094228079;
  BAS[ATNO][  9].a[ 14] =       160.280000000000;     BAS[ATNO][  9].d[ 14] =         0.000530336500;
  BAS[ATNO][  9].a[ 15] =        74.494000000000;     BAS[ATNO][  9].d[ 15] =         0.001140915688;
  BAS[ATNO][  9].a[ 16] =        36.065000000000;     BAS[ATNO][  9].d[ 16] =         0.017339975695;
  BAS[ATNO][  9].a[ 17] =        18.164000000000;     BAS[ATNO][  9].d[ 17] =         0.034255698796;
  BAS[ATNO][  9].a[ 18] =         9.466500000000;     BAS[ATNO][  9].d[ 18] =         0.158870558483;
  BAS[ATNO][  9].a[ 19] =         5.163000000000;     BAS[ATNO][  9].d[ 19] =        -0.003446740997;
  BAS[ATNO][  9].a[ 20] =         2.808500000000;     BAS[ATNO][  9].d[ 20] =        -0.002493833138;
  BAS[ATNO][  9].a[ 21] =         1.523500000000;     BAS[ATNO][  9].d[ 21] =        -1.767767577991;
  BAS[ATNO][  9].a[ 22] =         0.743790000000;     BAS[ATNO][  9].d[ 22] =         2.086607201320;
  BAS[ATNO][  9].a[ 23] =         0.356800000000;     BAS[ATNO][  9].d[ 23] =        -0.179240529582;
  BAS[ATNO][  9].a[ 24] =         0.162210000000;     BAS[ATNO][  9].d[ 24] =         0.187514552529;
  BAS[ATNO][  9].a[ 25] =         0.069956000000;     BAS[ATNO][  9].d[ 25] =        -0.053704601435;

  // Basis function  11 L = p
  InitBFNGauss(BAS[ATNO][ 10]);
  BAS[ATNO][ 10].l  = 1;
  BAS[ATNO][ 10].ng = 26;
  BAS[ATNO][ 10].a[  0] =     13006.000000000000;     BAS[ATNO][ 10].d[  0] =         0.000000037013;
  BAS[ATNO][ 10].a[  1] =      3078.100000000000;     BAS[ATNO][ 10].d[  1] =         0.000000330460;
  BAS[ATNO][ 10].a[  2] =       999.560000000000;     BAS[ATNO][ 10].d[  2] =         0.000001926656;
  BAS[ATNO][ 10].a[  3] =       380.970000000000;     BAS[ATNO][ 10].d[  3] =         0.000008769138;
  BAS[ATNO][ 10].a[  4] =       160.280000000000;     BAS[ATNO][ 10].d[  4] =         0.000032305513;
  BAS[ATNO][ 10].a[  5] =        74.494000000000;     BAS[ATNO][ 10].d[  5] =         0.000092915819;
  BAS[ATNO][ 10].a[  6] =        36.065000000000;     BAS[ATNO][ 10].d[  6] =         0.000231340037;
  BAS[ATNO][ 10].a[  7] =        18.164000000000;     BAS[ATNO][ 10].d[  7] =         0.000444609562;
  BAS[ATNO][ 10].a[  8] =         9.466500000000;     BAS[ATNO][ 10].d[  8] =         0.000623568955;
  BAS[ATNO][ 10].a[  9] =         5.163000000000;     BAS[ATNO][ 10].d[  9] =         0.000614244162;
  BAS[ATNO][ 10].a[ 10] =         2.808500000000;     BAS[ATNO][ 10].d[ 10] =         0.000401856022;
  BAS[ATNO][ 10].a[ 11] =      3078.100000000000;     BAS[ATNO][ 10].d[ 11] =        -0.000005406297;
  BAS[ATNO][ 10].a[ 12] =       999.560000000000;     BAS[ATNO][ 10].d[ 12] =         0.000003583540;
  BAS[ATNO][ 10].a[ 13] =       380.970000000000;     BAS[ATNO][ 10].d[ 13] =        -0.000089035440;
  BAS[ATNO][ 10].a[ 14] =       160.280000000000;     BAS[ATNO][ 10].d[ 14] =         0.000501111178;
  BAS[ATNO][ 10].a[ 15] =        74.494000000000;     BAS[ATNO][ 10].d[ 15] =         0.001078043098;
  BAS[ATNO][ 10].a[ 16] =        36.065000000000;     BAS[ATNO][ 10].d[ 16] =         0.016384419394;
  BAS[ATNO][ 10].a[ 17] =        18.164000000000;     BAS[ATNO][ 10].d[ 17] =         0.032367965535;
  BAS[ATNO][ 10].a[ 18] =         9.466500000000;     BAS[ATNO][ 10].d[ 18] =         0.150115657902;
  BAS[ATNO][ 10].a[ 19] =         5.163000000000;     BAS[ATNO][ 10].d[ 19] =        -0.003256800992;
  BAS[ATNO][ 10].a[ 20] =         2.808500000000;     BAS[ATNO][ 10].d[ 20] =        -0.002356405150;
  BAS[ATNO][ 10].a[ 21] =         1.523500000000;     BAS[ATNO][ 10].d[ 21] =        -1.670350979574;
  BAS[ATNO][ 10].a[ 22] =         0.743790000000;     BAS[ATNO][ 10].d[ 22] =         3.320353496378;
  BAS[ATNO][ 10].a[ 23] =         0.356800000000;     BAS[ATNO][ 10].d[ 23] =        -2.015734025702;
  BAS[ATNO][ 10].a[ 24] =         0.162210000000;     BAS[ATNO][ 10].d[ 24] =        -0.293031592350;
  BAS[ATNO][ 10].a[ 25] =         0.069956000000;     BAS[ATNO][ 10].d[ 25] =         0.007386231316;

  // Basis function  12 L = p
  InitBFNGauss(BAS[ATNO][ 11]);
  BAS[ATNO][ 11].l  = 1;
  BAS[ATNO][ 11].ng = 26;
  BAS[ATNO][ 11].a[  0] =     13006.000000000000;     BAS[ATNO][ 11].d[  0] =         0.000000578848;
  BAS[ATNO][ 11].a[  1] =      3078.100000000000;     BAS[ATNO][ 11].d[  1] =         0.000005168069;
  BAS[ATNO][ 11].a[  2] =       999.560000000000;     BAS[ATNO][ 11].d[  2] =         0.000030131030;
  BAS[ATNO][ 11].a[  3] =       380.970000000000;     BAS[ATNO][ 11].d[  3] =         0.000137140834;
  BAS[ATNO][ 11].a[  4] =       160.280000000000;     BAS[ATNO][ 11].d[  4] =         0.000505226964;
  BAS[ATNO][ 11].a[  5] =        74.494000000000;     BAS[ATNO][ 11].d[  5] =         0.001453113508;
  BAS[ATNO][ 11].a[  6] =        36.065000000000;     BAS[ATNO][ 11].d[  6] =         0.003617934339;
  BAS[ATNO][ 11].a[  7] =        18.164000000000;     BAS[ATNO][ 11].d[  7] =         0.006953263338;
  BAS[ATNO][ 11].a[  8] =         9.466500000000;     BAS[ATNO][ 11].d[  8] =         0.009752015091;
  BAS[ATNO][ 11].a[  9] =         5.163000000000;     BAS[ATNO][ 11].d[  9] =         0.009606184343;
  BAS[ATNO][ 11].a[ 10] =         2.808500000000;     BAS[ATNO][ 11].d[ 10] =         0.006284639346;
  BAS[ATNO][ 11].a[ 11] =      3078.100000000000;     BAS[ATNO][ 11].d[ 11] =         0.000004740159;
  BAS[ATNO][ 11].a[ 12] =       999.560000000000;     BAS[ATNO][ 11].d[ 12] =        -0.000003141993;
  BAS[ATNO][ 11].a[ 13] =       380.970000000000;     BAS[ATNO][ 11].d[ 13] =         0.000078064911;
  BAS[ATNO][ 11].a[ 14] =       160.280000000000;     BAS[ATNO][ 11].d[ 14] =        -0.000439366613;
  BAS[ATNO][ 11].a[ 15] =        74.494000000000;     BAS[ATNO][ 11].d[ 15] =        -0.000945211693;
  BAS[ATNO][ 11].a[ 16] =        36.065000000000;     BAS[ATNO][ 11].d[ 16] =        -0.014365608212;
  BAS[ATNO][ 11].a[ 17] =        18.164000000000;     BAS[ATNO][ 11].d[ 17] =        -0.028379736890;
  BAS[ATNO][ 11].a[ 18] =         9.466500000000;     BAS[ATNO][ 11].d[ 18] =        -0.131619111794;
  BAS[ATNO][ 11].a[ 19] =         5.163000000000;     BAS[ATNO][ 11].d[ 19] =         0.002855513274;
  BAS[ATNO][ 11].a[ 20] =         2.808500000000;     BAS[ATNO][ 11].d[ 20] =         0.002066059978;
  BAS[ATNO][ 11].a[ 21] =         1.523500000000;     BAS[ATNO][ 11].d[ 21] =         1.464538179349;
  BAS[ATNO][ 11].a[ 22] =         0.743790000000;     BAS[ATNO][ 11].d[ 22] =        -3.838775915454;
  BAS[ATNO][ 11].a[ 23] =         0.356800000000;     BAS[ATNO][ 11].d[ 23] =         4.523958245865;
  BAS[ATNO][ 11].a[ 24] =         0.162210000000;     BAS[ATNO][ 11].d[ 24] =        -2.375196333127;
  BAS[ATNO][ 11].a[ 25] =         0.069956000000;     BAS[ATNO][ 11].d[ 25] =        -0.104326531928;

  // Basis function  13 L = p
  InitBFNGauss(BAS[ATNO][ 12]);
  BAS[ATNO][ 12].l  = 1;
  BAS[ATNO][ 12].ng = 26;
  BAS[ATNO][ 12].a[  0] =     13006.000000000000;     BAS[ATNO][ 12].d[  0] =         0.000000535558;
  BAS[ATNO][ 12].a[  1] =      3078.100000000000;     BAS[ATNO][ 12].d[  1] =         0.000004781563;
  BAS[ATNO][ 12].a[  2] =       999.560000000000;     BAS[ATNO][ 12].d[  2] =         0.000027877614;
  BAS[ATNO][ 12].a[  3] =       380.970000000000;     BAS[ATNO][ 12].d[  3] =         0.000126884451;
  BAS[ATNO][ 12].a[  4] =       160.280000000000;     BAS[ATNO][ 12].d[  4] =         0.000467442439;
  BAS[ATNO][ 12].a[  5] =        74.494000000000;     BAS[ATNO][ 12].d[  5] =         0.001344439175;
  BAS[ATNO][ 12].a[  6] =        36.065000000000;     BAS[ATNO][ 12].d[  6] =         0.003347359052;
  BAS[ATNO][ 12].a[  7] =        18.164000000000;     BAS[ATNO][ 12].d[  7] =         0.006433248035;
  BAS[ATNO][ 12].a[  8] =         9.466500000000;     BAS[ATNO][ 12].d[  8] =         0.009022688898;
  BAS[ATNO][ 12].a[  9] =         5.163000000000;     BAS[ATNO][ 12].d[  9] =         0.008887764427;
  BAS[ATNO][ 12].a[ 10] =         2.808500000000;     BAS[ATNO][ 12].d[ 10] =         0.005814628580;
  BAS[ATNO][ 12].a[ 11] =      3078.100000000000;     BAS[ATNO][ 12].d[ 11] =         0.000003071715;
  BAS[ATNO][ 12].a[ 12] =       999.560000000000;     BAS[ATNO][ 12].d[ 12] =        -0.000002036072;
  BAS[ATNO][ 12].a[ 13] =       380.970000000000;     BAS[ATNO][ 12].d[ 13] =         0.000050587571;
  BAS[ATNO][ 12].a[ 14] =       160.280000000000;     BAS[ATNO][ 12].d[ 14] =        -0.000284718054;
  BAS[ATNO][ 12].a[ 15] =        74.494000000000;     BAS[ATNO][ 12].d[ 15] =        -0.000612515440;
  BAS[ATNO][ 12].a[ 16] =        36.065000000000;     BAS[ATNO][ 12].d[ 16] =        -0.009309191693;
  BAS[ATNO][ 12].a[ 17] =        18.164000000000;     BAS[ATNO][ 12].d[ 17] =        -0.018390617857;
  BAS[ATNO][ 12].a[ 18] =         9.466500000000;     BAS[ATNO][ 12].d[ 18] =        -0.085291727581;
  BAS[ATNO][ 12].a[ 19] =         5.163000000000;     BAS[ATNO][ 12].d[ 19] =         0.001850427776;
  BAS[ATNO][ 12].a[ 20] =         2.808500000000;     BAS[ATNO][ 12].d[ 20] =         0.001338846786;
  BAS[ATNO][ 12].a[ 21] =         1.523500000000;     BAS[ATNO][ 12].d[ 21] =         0.949049037958;
  BAS[ATNO][ 12].a[ 22] =         0.743790000000;     BAS[ATNO][ 12].d[ 22] =        -2.828346188913;
  BAS[ATNO][ 12].a[ 23] =         0.356800000000;     BAS[ATNO][ 12].d[ 23] =         4.352298278295;
  BAS[ATNO][ 12].a[ 24] =         0.162210000000;     BAS[ATNO][ 12].d[ 24] =        -4.345423905188;
  BAS[ATNO][ 12].a[ 25] =         0.069956000000;     BAS[ATNO][ 12].d[ 25] =         2.410286928326;

  // Basis function  14 L = d
  InitBFNGauss(BAS[ATNO][ 13]);
  BAS[ATNO][ 13].l  = 2;
  BAS[ATNO][ 13].ng = 6;
  BAS[ATNO][ 13].a[  0] =        26.330000000000;     BAS[ATNO][ 13].d[  0] =         0.064375427521;
  BAS[ATNO][ 13].a[  1] =         7.530000000000;     BAS[ATNO][ 13].d[  1] =         0.412978198605;
  BAS[ATNO][ 13].a[  2] =         2.600000000000;     BAS[ATNO][ 13].d[  2] =         0.628258958236;
  BAS[ATNO][ 13].a[  3] =         0.930000000000;     BAS[ATNO][ 13].d[  3] =         0.066067260155;
  BAS[ATNO][ 13].a[  4] =         0.410000000000;     BAS[ATNO][ 13].d[  4] =        -0.000846180879;
  BAS[ATNO][ 13].a[  5] =         0.170000000000;     BAS[ATNO][ 13].d[  5] =        -0.000985521640;

  // Basis function  15 L = d
  InitBFNGauss(BAS[ATNO][ 14]);
  BAS[ATNO][ 14].l  = 2;
  BAS[ATNO][ 14].ng = 6;
  BAS[ATNO][ 14].a[  0] =        26.330000000000;     BAS[ATNO][ 14].d[  0] =        -0.049172204737;
  BAS[ATNO][ 14].a[  1] =         7.530000000000;     BAS[ATNO][ 14].d[  1] =        -0.366647158381;
  BAS[ATNO][ 14].a[  2] =         2.600000000000;     BAS[ATNO][ 14].d[  2] =        -0.262221634879;
  BAS[ATNO][ 14].a[  3] =         0.930000000000;     BAS[ATNO][ 14].d[  3] =         1.012573826720;
  BAS[ATNO][ 14].a[  4] =         0.410000000000;     BAS[ATNO][ 14].d[  4] =         0.074422019287;
  BAS[ATNO][ 14].a[  5] =         0.170000000000;     BAS[ATNO][ 14].d[  5] =         0.012577433145;

  // Basis function  16 L = d
  InitBFNGauss(BAS[ATNO][ 15]);
  BAS[ATNO][ 15].l  = 2;
  BAS[ATNO][ 15].ng = 6;
  BAS[ATNO][ 15].a[  0] =        26.330000000000;     BAS[ATNO][ 15].d[  0] =         0.036234849021;
  BAS[ATNO][ 15].a[  1] =         7.530000000000;     BAS[ATNO][ 15].d[  1] =         0.296788813898;
  BAS[ATNO][ 15].a[  2] =         2.600000000000;     BAS[ATNO][ 15].d[  2] =         0.044817873756;
  BAS[ATNO][ 15].a[  3] =         0.930000000000;     BAS[ATNO][ 15].d[  3] =        -1.188660626195;
  BAS[ATNO][ 15].a[  4] =         0.410000000000;     BAS[ATNO][ 15].d[  4] =         1.412352790403;
  BAS[ATNO][ 15].a[  5] =         0.170000000000;     BAS[ATNO][ 15].d[  5] =         0.087835236870;

  // Basis function  17 L = d
  InitBFNGauss(BAS[ATNO][ 16]);
  BAS[ATNO][ 16].l  = 2;
  BAS[ATNO][ 16].ng = 6;
  BAS[ATNO][ 16].a[  0] =        26.330000000000;     BAS[ATNO][ 16].d[  0] =         0.024548890231;
  BAS[ATNO][ 16].a[  1] =         7.530000000000;     BAS[ATNO][ 16].d[  1] =         0.219350919926;
  BAS[ATNO][ 16].a[  2] =         2.600000000000;     BAS[ATNO][ 16].d[  2] =        -0.066585712972;
  BAS[ATNO][ 16].a[  3] =         0.930000000000;     BAS[ATNO][ 16].d[  3] =        -0.822667839729;
  BAS[ATNO][ 16].a[  4] =         0.410000000000;     BAS[ATNO][ 16].d[  4] =         1.822957217420;
  BAS[ATNO][ 16].a[  5] =         0.170000000000;     BAS[ATNO][ 16].d[  5] =        -1.617855651941;

  // Basis function  18 L = d
  InitBFNGauss(BAS[ATNO][ 17]);
  BAS[ATNO][ 17].l  = 2;
  BAS[ATNO][ 17].ng = 6;
  BAS[ATNO][ 17].a[  0] =        26.330000000000;     BAS[ATNO][ 17].d[  0] =         0.097750200044;
  BAS[ATNO][ 17].a[  1] =         7.530000000000;     BAS[ATNO][ 17].d[  1] =         1.109244999169;
  BAS[ATNO][ 17].a[  2] =         2.600000000000;     BAS[ATNO][ 17].d[  2] =        -1.866836971314;
  BAS[ATNO][ 17].a[  3] =         0.930000000000;     BAS[ATNO][ 17].d[  3] =         1.951814265879;
  BAS[ATNO][ 17].a[  4] =         0.410000000000;     BAS[ATNO][ 17].d[  4] =        -1.437192036434;
  BAS[ATNO][ 17].a[  5] =         0.170000000000;     BAS[ATNO][ 17].d[  5] =         0.546372908942;

  // Basis function  19 L = d
  InitBFNGauss(BAS[ATNO][ 18]);
  BAS[ATNO][ 18].l  = 2;
  BAS[ATNO][ 18].ng = 6;
  BAS[ATNO][ 18].a[  0] =        26.330000000000;     BAS[ATNO][ 18].d[  0] =         1.235299184189;
  BAS[ATNO][ 18].a[  1] =         7.530000000000;     BAS[ATNO][ 18].d[  1] =        -1.134082181128;
  BAS[ATNO][ 18].a[  2] =         2.600000000000;     BAS[ATNO][ 18].d[  2] =         0.765726828513;
  BAS[ATNO][ 18].a[  3] =         0.930000000000;     BAS[ATNO][ 18].d[  3] =        -0.503262928799;
  BAS[ATNO][ 18].a[  4] =         0.410000000000;     BAS[ATNO][ 18].d[  4] =         0.302419602654;
  BAS[ATNO][ 18].a[  5] =         0.170000000000;     BAS[ATNO][ 18].d[  5] =        -0.101309079832;

  // Basis function  20 L = f
  InitBFNGauss(BAS[ATNO][ 19]);
  BAS[ATNO][ 19].l  = 3;
  BAS[ATNO][ 19].ng = 3;
  BAS[ATNO][ 19].a[  0] =         4.530000000000;     BAS[ATNO][ 19].d[  0] =         0.340513037093;
  BAS[ATNO][ 19].a[  1] =         1.060000000000;     BAS[ATNO][ 19].d[  1] =         0.858223062747;
  BAS[ATNO][ 19].a[  2] =         0.440000000000;     BAS[ATNO][ 19].d[  2] =        -0.042224159974;

  // Basis function  21 L = f
  InitBFNGauss(BAS[ATNO][ 20]);
  BAS[ATNO][ 20].l  = 3;
  BAS[ATNO][ 20].ng = 3;
  BAS[ATNO][ 20].a[  0] =         4.530000000000;     BAS[ATNO][ 20].d[  0] =        -0.328408530696;
  BAS[ATNO][ 20].a[  1] =         1.060000000000;     BAS[ATNO][ 20].d[  1] =        -0.452237936152;
  BAS[ATNO][ 20].a[  2] =         0.440000000000;     BAS[ATNO][ 20].d[  2] =         1.154491279034;

  // Basis function  22 L = f
  InitBFNGauss(BAS[ATNO][ 21]);
  BAS[ATNO][ 21].l  = 3;
  BAS[ATNO][ 21].ng = 3;
  BAS[ATNO][ 21].a[  0] =         4.530000000000;     BAS[ATNO][ 21].d[  0] =        -0.973775666928;
  BAS[ATNO][ 21].a[  1] =         1.060000000000;     BAS[ATNO][ 21].d[  1] =         1.050649434665;
  BAS[ATNO][ 21].a[  2] =         0.440000000000;     BAS[ATNO][ 21].d[  2] =        -0.701933444149;

  // Basis function  23 L = g
  InitBFNGauss(BAS[ATNO][ 22]);
  BAS[ATNO][ 22].l  = 4;
  BAS[ATNO][ 22].ng = 2;
  BAS[ATNO][ 22].a[  0] =         2.180000000000;     BAS[ATNO][ 22].d[  0] =         0.303456989293;
  BAS[ATNO][ 22].a[  1] =         0.730000000000;     BAS[ATNO][ 22].d[  1] =         0.824414498352;

  // Basis function  24 L = g
  InitBFNGauss(BAS[ATNO][ 23]);
  BAS[ATNO][ 23].l  = 4;
  BAS[ATNO][ 23].ng = 2;
  BAS[ATNO][ 23].a[  0] =         2.180000000000;     BAS[ATNO][ 23].d[  0] =         1.081996276681;
  BAS[ATNO][ 23].a[  1] =         0.730000000000;     BAS[ATNO][ 23].d[  1] =        -0.763637886703;

  // Basis function  25 L = h
  InitBFNGauss(BAS[ATNO][ 24]);
  BAS[ATNO][ 24].l  = 5;
  BAS[ATNO][ 24].ng = 1;
  BAS[ATNO][ 24].a[  0] =         1.120000000000;     BAS[ATNO][ 24].d[  0] =         1.000000000000;

-------
TIMINGS
-------

Total SCF time: 0 days 0 hours 0 min 2 sec 

Total time                  ....       2.038 sec
Sum of individual times     ....       1.779 sec  ( 87.3%)

Fock matrix formation       ....       1.251 sec  ( 61.4%)
  XC integration            ....       0.029 sec  (  2.3% of F)
    Basis function eval.    ....       0.005 sec  ( 18.1% of XC)
    Density eval.           ....       0.002 sec  (  8.7% of XC)
    XC-Functional eval.     ....       0.001 sec  (  4.4% of XC)
    XC-Potential eval.      ....       0.005 sec  ( 18.7% of XC)
Diagonalization             ....       0.002 sec  (  0.1%)
Density matrix formation    ....       0.002 sec  (  0.1%)
Population analysis         ....       0.001 sec  (  0.1%)
Initial guess               ....       0.090 sec  (  4.4%)
Orbital Transformation      ....       0.000 sec  (  0.0%)
Orbital Orthonormalization  ....       0.000 sec  (  0.0%)
DIIS solution               ....       0.000 sec  (  0.0%)
SOSCF solution              ....       0.002 sec  (  0.1%)
Grid generation             ....       0.430 sec  ( 21.1%)

-------------------------   --------------------
FINAL SINGLE POINT ENERGY      -311.530704570766
-------------------------   --------------------


                            ***************************************
                            *     ORCA property calculations      *
                            ***************************************

                                    ---------------------
                                    Active property flags
                                    ---------------------
   (+) Dipole Moment


------------------------------------------------------------------------------
                       ORCA ELECTRIC PROPERTIES CALCULATION
------------------------------------------------------------------------------

Dipole Moment Calculation                       ... on
Quadrupole Moment Calculation                   ... off
Polarizability Calculation                      ... off
GBWName                                         ... Ar_pc-4_.gbw
Electron density file                           ... Ar_pc-4_.scfp
The origin for moment calculation is the CENTER OF MASS  = ( 0.000000,  0.000000  0.000000)

-------------
DIPOLE MOMENT
-------------
                                X             Y             Z
Electronic contribution:     -0.00000       0.00000       0.00000
Nuclear contribution   :      0.00000       0.00000       0.00000
                        -----------------------------------------
Total Dipole Moment    :     -0.00000       0.00000       0.00000
                        -----------------------------------------
Magnitude (a.u.)       :      0.00000
Magnitude (Debye)      :      0.00000



--------------------
Rotational spectrum 
--------------------
 
Rotational constants in cm-1:     0.000000     0.000000     0.000000 
Rotational constants in MHz :     0.000000     0.000000     0.000000 

 Dipole components along the rotational axes: 
x,y,z [a.u.] :    -0.000000     0.000000     0.000000 
x,y,z [Debye]:    -0.000000     0.000000     0.000000 

 

Timings for individual modules:

Sum of individual times         ...        3.045 sec (=   0.051 min)
GTO integral calculation        ...        0.789 sec (=   0.013 min)  25.9 %
SCF iterations                  ...        2.256 sec (=   0.038 min)  74.1 %
                             ****ORCA TERMINATED NORMALLY****
TOTAL RUN TIME: 0 days 0 hours 0 minutes 3 seconds 391 msec
