
                                 *****************
                                 * O   R   C   A *
                                 *****************

           --- An Ab Initio, DFT and Semiempirical electronic structure package ---

                  #######################################################
                  #                        -***-                        #
                  #          Department of theory and spectroscopy      #
                  #               Directorship: Frank Neese             #
                  #        Max Planck Institute fuer Kohlenforschung    #
                  #                Kaiser Wilhelm Platz 1               #
                  #                 D-45470 Muelheim/Ruhr               #
                  #                      Germany                        #
                  #                                                     #
                  #                  All rights reserved                #
                  #                        -***-                        #
                  #######################################################


                         Program Version 4.2.1 -  RELEASE  -


 With contributions from (in alphabetic order):
   Daniel Aravena         : Magnetic Suceptibility
   Michael Atanasov       : Ab Initio Ligand Field Theory (pilot matlab implementation)
   Alexander A. Auer      : GIAO ZORA, VPT2
   Ute Becker             : Parallelization
   Giovanni Bistoni       : ED, misc. LED, open-shell LED, HFLD
   Martin Brehm           : Molecular dynamics
   Dmytro Bykov           : SCF Hessian
   Vijay G. Chilkuri      : MRCI spin determinant printing, contributions to CSF-ICE
   Dipayan Datta          : RHF DLPNO-CCSD density
   Achintya Kumar Dutta   : EOM-CC, STEOM-CC
   Dmitry Ganyushin       : Spin-Orbit,Spin-Spin,Magnetic field MRCI
   Miquel Garcia          : C-PCM Hessian, Gaussian charge scheme
   Yang Guo               : DLPNO-NEVPT2, CIM, IAO-localization
   Andreas Hansen         : Spin unrestricted coupled pair/coupled cluster methods
   Benjamin Helmich-Paris : CASSCF linear response (MC-RPA)
   Lee Huntington         : MR-EOM, pCC
   Robert Izsak           : Overlap fitted RIJCOSX, COSX-SCS-MP3, EOM
   Christian Kollmar      : KDIIS, OOCD, Brueckner-CCSD(T), CCSD density
   Simone Kossmann        : Meta GGA functionals, TD-DFT gradient, OOMP2, MP2 Hessian
   Martin Krupicka        : AUTO-CI
   Lucas Lang             : DCDCAS
   Dagmar Lenk            : GEPOL surface, SMD
   Dimitrios Liakos       : Extrapolation schemes; Compound Job, initial MDCI parallelization
   Dimitrios Manganas     : Further ROCIS development; embedding schemes
   Dimitrios Pantazis     : SARC Basis sets
   Taras Petrenko         : DFT Hessian,TD-DFT gradient, ASA, ECA, R-Raman, ABS, FL, XAS/XES, NRVS
   Peter Pinski           : DLPNO-MP2, DLPNO-MP2 Gradient
   Christoph Reimann      : Effective Core Potentials
   Marius Retegan         : Local ZFS, SOC
   Christoph Riplinger    : Optimizer, TS searches, QM/MM, DLPNO-CCSD(T), (RO)-DLPNO pert. Triples
   Tobias Risthaus        : Range-separated hybrids, TD-DFT gradient, RPA, STAB
   Michael Roemelt        : Original ROCIS implementation
   Masaaki Saitow         : Open-shell DLPNO-CCSD energy and density
   Barbara Sandhoefer     : DKH picture change effects
   Avijit Sen             : IP-ROCIS
   Kantharuban Sivalingam : CASSCF convergence, NEVPT2, FIC-MRCI
   Bernardo de Souza      : ESD, SOC TD-DFT
   Georgi Stoychev        : AutoAux, RI-MP2 NMR
   Willem Van den Heuvel  : Paramagnetic NMR
   Boris Wezisla          : Elementary symmetry handling
   Frank Wennmohs         : Technical directorship


 We gratefully acknowledge several colleagues who have allowed us to
 interface, adapt or use parts of their codes:
   Stefan Grimme, W. Hujo, H. Kruse,             : VdW corrections, initial TS optimization,
                  C. Bannwarth                     DFT functionals, gCP, sTDA/sTD-DF
   Ed Valeev, F. Pavosevic, A. Kumar             : LibInt (2-el integral package), F12 methods
   Garnet Chan, S. Sharma, J. Yang, R. Olivares  : DMRG
   Ulf Ekstrom                                   : XCFun DFT Library
   Mihaly Kallay                                 : mrcc  (arbitrary order and MRCC methods)
   Andreas Klamt, Michael Diedenhofen            : otool_cosmo (COSMO solvation model)
   Jiri Pittner, Ondrej Demel                    : Mk-CCSD
   Frank Weinhold                                : gennbo (NPA and NBO analysis)
   Christopher J. Cramer and Donald G. Truhlar   : smd solvation model
   Lars Goerigk                                  : TD-DFT with DH, B97 family of functionals
   V. Asgeirsson, H. Jonsson                     : NEB implementation
   FAccTs GmbH                                   : IRC, NEB, NEB-TS, Multilevel, MM, QM/MM, CI optimization
   S Lehtola, MJT Oliveira, MAL Marques          : LibXC Library


 Your calculation uses the libint2 library for the computation of 2-el integrals
 For citations please refer to: http://libint.valeyev.net

 Your ORCA version has been built with support for libXC version: 4.2.3
 For citations please refer to: https://tddft.org/programs/libxc/

 This ORCA versions uses:
   CBLAS   interface :  Fast vector & matrix operations
   LAPACKE interface :  Fast linear algebra routines
   SCALAPACK package :  Parallel linear algebra routines


----- Orbital basis set information -----
Your calculation utilizes the basis: cc-pCV5Z 
             H : cc-pV5Z. Obtained from the ccRepo (grant-hill.group.shef.ac.uk/ccrepo) Feb. 2017
                 T. H. Dunning, Jr., J. Chem. Phys. 90, 1007 (1989)
            He : cc-pV5Z. Obtained from the ccRepo (grant-hill.group.shef.ac.uk/ccrepo) Feb. 2017
                 D. E. Woon, T. H. Dunning, Jr., J. Chem. Phys. 100, 2975 (1994)
  Li-Be, Na-Mg : Obtained from the ccRepo (grant-hill.group.shef.ac.uk/ccrepo) Feb. 2017
                 B. P. Prascher, D. E. Woon, K. A. Peterson, T. H. Dunning, Jr., A. K. Wilson, Theor. Chem. Acc. 128, 69 (2011)
          B-Ne : Obtained from the ccRepo (grant-hill.group.shef.ac.uk/ccrepo) Feb. 2017
                 D. E. Woon, T. H. Dunning, Jr., J. Chem. Phys. 103, 4572 (1995)
                  K. A. Peterson, T. H. Dunning, Jr., J. Chem. Phys. 117, 10548 (2002)
         Al-Ar : Obtained from the EMSL Basis Set Exchange (bse.pnl.gov) Feb. 2017
                 K. A. Peterson, T. H. Dunning, Jr., J. Chem. Phys. 117, 10548 (2002)
            Ca : Obtained from the Peterson Research Group Website (tyr0.chem.wsu.edu/~kipeters) Feb. 2017
                 J. Koput, K. A. Peterson, J. Phys. Chem. A 106, 9595 (2002)
         Ga-Kr : Obtained from the Peterson Research Group Website (tyr0.chem.wsu.edu/~kipeters) Feb. 2017
                 N. J. DeYonker, K. A. Peterson, A. K. Wilson, J. Phys. Chem. A 111, 11383 (2007)

================================================================================
                                        WARNINGS
                       Please study these warnings very carefully!
================================================================================


INFO   : the flag for use of LIBINT has been found!

================================================================================
                                       INPUT FILE
================================================================================
NAME = He_cc-pcv5z_.inp
|  1> ! LDA cc-pcv5z nori grid5 finalgrid6 verytightscf
|  2> %Pal NProcs 18 End
|  3> 
|  4> *xyz 0 1
|  5> He 0.0 0.0 0.0
|  6> **                         ****END OF INPUT****
================================================================================

                       ****************************
                       * Single Point Calculation *
                       ****************************

---------------------------------
CARTESIAN COORDINATES (ANGSTROEM)
---------------------------------
  He     0.000000    0.000000    0.000000

----------------------------
CARTESIAN COORDINATES (A.U.)
----------------------------
  NO LB      ZA    FRAG     MASS         X           Y           Z
   0 He    2.0000    0     4.003    0.000000    0.000000    0.000000

--------------------------------
INTERNAL COORDINATES (ANGSTROEM)
--------------------------------
 He     0   0   0     0.000000000000     0.00000000     0.00000000

---------------------------
INTERNAL COORDINATES (A.U.)
---------------------------
 He     0   0   0     0.000000000000     0.00000000     0.00000000

---------------------
BASIS SET INFORMATION
---------------------
There are 1 groups of distinct atoms

 Group   1 Type He  : 8s4p3d2f1g contracted to 5s4p3d2f1g pattern {41111/1111/111/11/1}

Atom   0He   basis set group =>   1


           ************************************************************
           *        Program running with 18 parallel MPI-processes    *
           *              working on a common directory               *
           ************************************************************
------------------------------------------------------------------------------
                           ORCA GTO INTEGRAL CALCULATION
------------------------------------------------------------------------------

                         BASIS SET STATISTICS AND STARTUP INFO

 # of primitive gaussian shells          ...   18
 # of primitive gaussian functions       ...   58
 # of contracted shells                  ...   15
 # of contracted basis functions         ...   55
 Highest angular momentum                ...    4
 Maximum contraction depth               ...    4
 Integral package used                   ... LIBINT
 Integral threshhold            Thresh   ...  1.000e-12
 Primitive cut-off              TCut     ...  1.000e-14


------------------------------ INTEGRAL EVALUATION ----------------------------


 * One electron integrals 
 Pre-screening matrix                    ... done
 Shell pair data                         ... done (   0.000 sec)



           ************************************************************
           *        Program running with 18 parallel MPI-processes    *
           *              working on a common directory               *
           ************************************************************
-------------------------------------------------------------------------------
                                 ORCA SCF
-------------------------------------------------------------------------------

------------
SCF SETTINGS
------------
Hamiltonian:
 Density Functional     Method          .... DFT(GTOs)
 Exchange Functional    Exchange        .... Slater
   X-Alpha parameter    XAlpha          ....  0.666667
 Correlation Functional Correlation     .... VWN-5
 Gradients option       PostSCFGGA      .... off
   Density functional embedding theory  .... OFF


General Settings:
 Integral files         IntName         .... He_cc-pcv5z_
 Hartree-Fock type      HFTyp           .... RHF
 Total Charge           Charge          ....    0
 Multiplicity           Mult            ....    1
 Number of Electrons    NEL             ....    2
 Basis Dimension        Dim             ....   55
 Nuclear Repulsion      ENuc            ....      0.0000000000 Eh

Convergence Acceleration:
 DIIS                   CNVDIIS         .... on
   Start iteration      DIISMaxIt       ....    12
   Startup error        DIISStart       ....  0.200000
   # of expansion vecs  DIISMaxEq       ....     5
   Bias factor          DIISBfac        ....   1.050
   Max. coefficient     DIISMaxC        ....  10.000
 Newton-Raphson         CNVNR           .... off
 SOSCF                  CNVSOSCF        .... on
   Start iteration      SOSCFMaxIt      ....   150
   Startup grad/error   SOSCFStart      ....  0.003300
 Level Shifting         CNVShift        .... on
   Level shift para.    LevelShift      ....    0.2500
   Turn off err/grad.   ShiftErr        ....    0.0010
 Zerner damping         CNVZerner       .... off
 Static damping         CNVDamp         .... on
   Fraction old density DampFac         ....    0.7000
   Max. Damping (<1)    DampMax         ....    0.9800
   Min. Damping (>=0)   DampMin         ....    0.0000
   Turn off err/grad.   DampErr         ....    0.1000
 Fernandez-Rico         CNVRico         .... off

SCF Procedure:
 Maximum # iterations   MaxIter         ....   125
 SCF integral mode      SCFMode         .... Direct
   Integral package                     .... LIBINT
 Reset frequency        DirectResetFreq ....    20
 Integral Threshold     Thresh          ....  1.000e-12 Eh
 Primitive CutOff       TCut            ....  1.000e-14 Eh

Convergence Tolerance:
 Convergence Check Mode ConvCheckMode   .... Total+1el-Energy
 Convergence forced     ConvForced      .... 0
 Energy Change          TolE            ....  1.000e-09 Eh
 1-El. energy change                    ....  1.000e-06 Eh
 Orbital Gradient       TolG            ....  2.000e-06
 Orbital Rotation angle TolX            ....  2.000e-06
 DIIS Error             TolErr          ....  1.000e-08


Diagonalization of the overlap matrix:
Smallest eigenvalue                        ... 2.077e-02
Time for diagonalization                   ...    0.001 sec
Threshold for overlap eigenvalues          ... 1.000e-08
Number of eigenvalues below threshold      ... 0
Time for construction of square roots      ...    0.001 sec
Total time needed                          ...    0.002 sec

-------------------
DFT GRID GENERATION
-------------------

General Integration Accuracy     IntAcc      ...  5.010
Radial Grid Type                 RadialGrid  ... Gauss-Chebyshev
Angular Grid (max. acc.)         AngularGrid ... Lebedev-434
Angular grid pruning method      GridPruning ... 3 (G Style)
Weight generation scheme         WeightScheme... Becke
Basis function cutoff            BFCut       ...    1.0000e-12
Integration weight cutoff        WCut        ...    1.0000e-14
Grids for H and He will be reduced by one unit

# of grid points (after initial pruning)     ...   6764 (   0.0 sec)
# of grid points (after weights+screening)   ...   6764 (   0.0 sec)
Grid point division into batches done        ...    0.0 sec
Reduced shell lists constructed in    0.0 sec

Total number of grid points                  ...     6764
Total number of batches                      ...      106
Average number of points per batch           ...       63
Average number of grid points per atom       ...     6764
Average number of shells per batch           ...     0.86 ( 5.71%)
Average number of basis functions per batch  ...     0.86 ( 1.56%)
Average number of large shells per batch     ...     0.86 (100.00%)
Average number of large basis fcns per batch ...     0.86 (100.00%)
Maximum spatial batch extension              ...  15.22, 15.22, 15.22 au
Average spatial batch extension              ...   0.77,  0.77,  0.77 au

Time for grid setup =    0.057 sec

------------------------------
INITIAL GUESS: MODEL POTENTIAL
------------------------------
Loading Hartree-Fock densities                     ... done
Calculating cut-offs                               ... done
Setting up the integral package                    ... done
Initializing the effective Hamiltonian             ... done
Starting the Coulomb interaction                   ... done (   0.0 sec)
Reading the grid                                   ... done
Mapping shells                                     ... done
Starting the XC term evaluation                    ... done (   0.0 sec)
  promolecular density results
     # of electrons  =      1.999920377
     EX              =     -0.884114011
     EC              =     -0.112857661
     EX+EC           =     -0.996971673
Transforming the Hamiltonian                       ... done (   0.0 sec)
Diagonalizing the Hamiltonian                      ... done (   0.0 sec)
Back transforming the eigenvectors                 ... done (   0.0 sec)
Now organizing SCF variables                       ... done
                      ------------------
                      INITIAL GUESS DONE (   0.2 sec)
                      ------------------
--------------
SCF ITERATIONS
--------------
ITER       Energy         Delta-E        Max-DP      RMS-DP      [F,P]     Damp
               ***  Starting incremental Fock matrix formation  ***
  0     -2.8344854005   0.000000000000 0.00274942  0.00008514  0.0298927 0.7000
                      *** Initiating the SOSCF procedure ***
                      *** Re-Reading the Fockian *** 
                      *** Removing any level shift *** 
ITER      Energy       Delta-E        Grad      Rot      Max-DP    RMS-DP
  1     -2.83457642  -0.0000910172  0.001150  0.001150  0.008100  0.000242
               *** Restarting incremental Fock matrix formation ***
  2     -2.83471220  -0.0001357843  0.003119  0.002713  0.002891  0.000089
  3     -2.83472486  -0.0000126621  0.001236  0.000840  0.000946  0.000028
  4     -2.83472761  -0.0000027420  0.000002  0.000000  0.000002  0.000000
                 **** Energy Check signals convergence ****
              ***Rediagonalizing the Fockian in SOSCF/NRSCF***

               *****************************************************
               *                     SUCCESS                       *
               *           SCF CONVERGED AFTER   5 CYCLES          *
               *****************************************************

Setting up the final grid:

General Integration Accuracy     IntAcc      ...  5.340
Radial Grid Type                 RadialGrid  ... Gauss-Chebyshev
Angular Grid (max. acc.)         AngularGrid ... Lebedev-590
Angular grid pruning method      GridPruning ... 3 (G Style)
Weight generation scheme         WeightScheme... Becke
Basis function cutoff            BFCut       ...    1.0000e-12
Integration weight cutoff        WCut        ...    1.0000e-14
Grids for H and He will be reduced by one unit

# of grid points (after initial pruning)     ...  11406 (   0.0 sec)
# of grid points (after weights+screening)   ...  11406 (   0.0 sec)
Grid point division into batches done        ...    0.1 sec
Reduced shell lists constructed in    0.1 sec

Total number of grid points                  ...    11406
Total number of batches                      ...      179
Average number of points per batch           ...       63
Average number of grid points per atom       ...    11406
Average number of shells per batch           ...     0.00 ( 0.00%)
Average number of basis functions per batch  ...     0.00 ( 0.00%)
Average number of large shells per batch     ...     0.00 ( -nan%)
Average number of large basis fcns per batch ...     0.00 ( -nan%)
Maximum spatial batch extension              ...  16.29, 16.29, 16.29 au
Average spatial batch extension              ...   0.81,  0.81,  0.81 au

Final grid set up in    0.1 sec
Final integration                            ... done (   0.0 sec)
Change in XC energy                          ...     0.000000004
Integrated number of electrons               ...     1.999999999
Previous integrated no of electrons          ...     2.000000002

----------------
TOTAL SCF ENERGY
----------------

Total Energy       :           -2.83472760 Eh             -77.13686 eV

Components:
Nuclear Repulsion  :            0.00000000 Eh               0.00000 eV
Electronic Energy  :           -2.83472760 Eh             -77.13686 eV
One Electron Energy:           -3.85814343 Eh            -104.98542 eV
Two Electron Energy:            1.02341583 Eh              27.84856 eV

Virial components:
Potential Energy   :           -5.60361760 Eh            -152.48219 eV
Kinetic Energy     :            2.76888999 Eh              75.34533 eV
Virial Ratio       :            2.02377762


DFT components:
N(Alpha)           :        0.999999999657 electrons
N(Beta)            :        0.999999999657 electrons
N(Total)           :        1.999999999314 electrons
E(X)               :       -0.862172254938 Eh       
E(C)               :       -0.111504733178 Eh       
E(XC)              :       -0.973676988116 Eh       
DFET-embed. en.    :        0.000000000000 Eh       

---------------
SCF CONVERGENCE
---------------

  Last Energy change         ...   -2.7094e-12  Tolerance :   1.0000e-09
  Last MAX-Density change    ...    7.2390e-08  Tolerance :   1.0000e-08
  Last RMS-Density change    ...    1.7062e-09  Tolerance :   1.0000e-09
  Last Orbital Gradient      ...    2.1306e-08  Tolerance :   2.0000e-06
  Last Orbital Rotation      ...    8.9278e-09  Tolerance :   2.0000e-06

             **** THE GBW FILE WAS UPDATED (He_cc-pcv5z_.gbw) ****
             **** DENSITY FILE WAS UPDATED (He_cc-pcv5z_.scfp) ****
             **** ENERGY FILE WAS UPDATED (He_cc-pcv5z_.en.tmp) ****
             **** THE GBW FILE WAS UPDATED (He_cc-pcv5z_.gbw) ****
             **** DENSITY FILE WAS UPDATED (He_cc-pcv5z_.scfp) ****
----------------
ORBITAL ENERGIES
----------------

  NO   OCC          E(Eh)            E(eV) 
   0   2.0000      -0.569941       -15.5089 
   1   0.0000       0.279444         7.6040 
   2   0.0000       0.653588        17.7850 
   3   0.0000       0.653588        17.7850 
   4   0.0000       0.653588        17.7850 
   5   0.0000       1.842969        50.1497 
   6   0.0000       2.508482        68.2593 
   7   0.0000       2.508482        68.2593 
   8   0.0000       2.508482        68.2593 
   9   0.0000       2.508482        68.2593 
  10   0.0000       2.508482        68.2593 
  11   0.0000       3.176740        86.4435 
  12   0.0000       3.176740        86.4435 
  13   0.0000       3.176740        86.4435 
  14   0.0000       6.771574       184.2639 
  15   0.0000       6.771574       184.2639 
  16   0.0000       6.771574       184.2639 
  17   0.0000       6.771574       184.2639 
  18   0.0000       6.771574       184.2639 
  19   0.0000       6.771574       184.2639 
  20   0.0000       6.771574       184.2639 
  21   0.0000       7.174904       195.2391 
  22   0.0000       9.599092       261.2046 
  23   0.0000       9.599092       261.2046 
  24   0.0000       9.599092       261.2046 
  25   0.0000       9.599092       261.2046 
  26   0.0000       9.599092       261.2046 
  27   0.0000      10.739172       292.2277 
  28   0.0000      10.739172       292.2277 
  29   0.0000      10.739172       292.2277 
  30   0.0000      17.822656       484.9791 
  31   0.0000      17.822656       484.9791 
  32   0.0000      17.822656       484.9791 
  33   0.0000      17.822656       484.9791 
  34   0.0000      17.822656       484.9791 
  35   0.0000      17.822656       484.9791 
  36   0.0000      17.822656       484.9791 
  37   0.0000      17.822656       484.9791 
  38   0.0000      17.822656       484.9791 
  39   0.0000      25.506107       694.0565 
  40   0.0000      25.506107       694.0565 
  41   0.0000      25.506107       694.0565 
  42   0.0000      25.506107       694.0565 
  43   0.0000      25.506107       694.0565 
  44   0.0000      25.506107       694.0565 
  45   0.0000      25.506107       694.0565 
  46   0.0000      31.287947       851.3883 
  47   0.0000      31.287947       851.3883 
  48   0.0000      31.287947       851.3883 
  49   0.0000      31.287947       851.3883 
  50   0.0000      31.287947       851.3883 
  51   0.0000      32.477992       883.7711 
  52   0.0000      33.978083       924.5906 
  53   0.0000      33.978083       924.5906 
  54   0.0000      33.978083       924.5906 

                    ********************************
                    * MULLIKEN POPULATION ANALYSIS *
                    ********************************

-----------------------
MULLIKEN ATOMIC CHARGES
-----------------------
   0 He:    0.000000
Sum of atomic charges:    0.0000000

--------------------------------
MULLIKEN REDUCED ORBITAL CHARGES
--------------------------------
  0 Hes       :     2.000000  s :     2.000000
      pz      :     0.000000  p :     0.000000
      px      :     0.000000
      py      :     0.000000
      dz2     :     0.000000  d :     0.000000
      dxz     :     0.000000
      dyz     :     0.000000
      dx2y2   :     0.000000
      dxy     :     0.000000
      f0      :     0.000000  f :     0.000000
      f+1     :     0.000000
      f-1     :     0.000000
      f+2     :     0.000000
      f-2     :     0.000000
      f+3     :     0.000000
      f-3     :     0.000000
      g0      :     0.000000  g :     0.000000
      g+1     :     0.000000
      g-1     :     0.000000
      g+2     :     0.000000
      g-2     :     0.000000
      g+3     :     0.000000
      g-3     :     0.000000
      g+4     :     0.000000
      g-4     :     0.000000


                     *******************************
                     * LOEWDIN POPULATION ANALYSIS *
                     *******************************

----------------------
LOEWDIN ATOMIC CHARGES
----------------------
   0 He:   -0.000000

-------------------------------
LOEWDIN REDUCED ORBITAL CHARGES
-------------------------------
  0 Hes       :     2.000000  s :     2.000000
      pz      :     0.000000  p :     0.000000
      px      :     0.000000
      py      :     0.000000
      dz2     :     0.000000  d :     0.000000
      dxz     :     0.000000
      dyz     :     0.000000
      dx2y2   :     0.000000
      dxy     :     0.000000
      f0      :     0.000000  f :     0.000000
      f+1     :     0.000000
      f-1     :     0.000000
      f+2     :     0.000000
      f-2     :     0.000000
      f+3     :     0.000000
      f-3     :     0.000000
      g0      :     0.000000  g :     0.000000
      g+1     :     0.000000
      g-1     :     0.000000
      g+2     :     0.000000
      g-2     :     0.000000
      g+3     :     0.000000
      g-3     :     0.000000
      g+4     :     0.000000
      g-4     :     0.000000


                      *****************************
                      * MAYER POPULATION ANALYSIS *
                      *****************************

  NA   - Mulliken gross atomic population
  ZA   - Total nuclear charge
  QA   - Mulliken gross atomic charge
  VA   - Mayer's total valence
  BVA  - Mayer's bonded valence
  FA   - Mayer's free valence

  ATOM       NA         ZA         QA         VA         BVA        FA
  0 He     2.0000     2.0000     0.0000     0.0000     0.0000     0.0000

  Mayer bond orders larger than 0.100000


--------------------------
ATOM BASIS FOR ELEMENT He
--------------------------
 NewGTO He
 S 8
    1       1145.000000000000         0.000359916425
    2        171.700000000000         0.002778073575
    3         39.070000000000         0.014287378753
    4         11.040000000000         0.055707844205
    5          3.566000000000         0.161178517416
    6          1.240000000000         0.321083730343
    7          0.447300000000         0.395191720876
    8          0.164000000000         0.230659408310
 S 8
    1       1145.000000000000         0.000158591125
    2        171.700000000000         0.001224111442
    3         39.070000000000         0.006295493379
    4         11.040000000000         0.024546725500
    5          3.566000000000         0.160610799042
    6          1.240000000000        -0.083385346060
    7          0.447300000000         1.376160666701
    8          0.164000000000        -1.753972982747
 S 8
    1       1145.000000000000         0.000544007373
    2        171.700000000000         0.004199009558
    3         39.070000000000         0.021595122773
    4         11.040000000000         0.084201430919
    5          3.566000000000        -0.102697179312
    6          1.240000000000         2.130868308767
    7          0.447300000000        -3.200143109921
    8          0.164000000000         1.404893870766
 S 8
    1       1145.000000000000         0.000099890992
    2        171.700000000000         0.000771024900
    3         39.070000000000         0.003965310664
    4         11.040000000000         0.015461122192
    5          3.566000000000         2.190943299111
    6          1.240000000000        -3.457281865111
    7          0.447300000000         2.279089973393
    8          0.164000000000        -0.730091308148
 S 8
    1       1145.000000000000         0.009344328286
    2        171.700000000000         0.072125720555
    3         39.070000000000         0.370935995536
    4         11.040000000000         1.446314611464
    5          3.566000000000        -2.634674310562
    6          1.240000000000         2.106649382380
    7          0.447300000000        -1.129573305729
    8          0.164000000000         0.352199407586
 P 4
    1         10.153000000000        -0.013655048770
    2          3.627000000000         0.093221221642
    3          1.296000000000        -0.242122106431
    4          0.463000000000         1.141401162990
 P 4
    1         10.153000000000         0.073716439340
    2          3.627000000000        -0.280787204862
    3          1.296000000000         1.696133278405
    4          0.463000000000        -1.044220136587
 P 4
    1         10.153000000000        -0.210943403433
    2          3.627000000000         1.850567401600
    3          1.296000000000        -1.654752008504
    4          0.463000000000         0.601121497677
 P 4
    1         10.153000000000         1.672007360681
    2          3.627000000000        -1.741543635516
    3          1.296000000000         0.933696956339
    4          0.463000000000        -0.302387688527
 D 3
    1          7.666000000000         0.042795297377
    2          2.647000000000        -0.208191616421
    3          0.914000000000         1.112172845811
 D 3
    1          7.666000000000        -0.171318643297
    2          2.647000000000         1.398318816793
    3          0.914000000000        -0.701758434831
 D 3
    1          7.666000000000         1.344459419698
    2          2.647000000000        -0.951281634282
    3          0.914000000000         0.330744517813
 F 2
    1          5.411000000000         0.118132023434
    2          1.707000000000        -1.052741725815
 F 2
    1          5.411000000000         1.142089941499
    2          1.707000000000        -0.458322449986
 G 1
    1          3.430000000000         1.000000000000
 end
  // -----------------------------------------------
  // The basis set
  // -----------------------------------------------
  BAS[ATNO] = new BFNGauss[NSH];
  // Basis function   1 L = s
  InitBFNGauss(BAS[ATNO][  0]);
  BAS[ATNO][  0].l  = 0;
  BAS[ATNO][  0].ng = 8;
  BAS[ATNO][  0].a[  0] =      1145.000000000000;     BAS[ATNO][  0].d[  0] =         0.000359916425;
  BAS[ATNO][  0].a[  1] =       171.700000000000;     BAS[ATNO][  0].d[  1] =         0.002778073575;
  BAS[ATNO][  0].a[  2] =        39.070000000000;     BAS[ATNO][  0].d[  2] =         0.014287378753;
  BAS[ATNO][  0].a[  3] =        11.040000000000;     BAS[ATNO][  0].d[  3] =         0.055707844205;
  BAS[ATNO][  0].a[  4] =         3.566000000000;     BAS[ATNO][  0].d[  4] =         0.161178517416;
  BAS[ATNO][  0].a[  5] =         1.240000000000;     BAS[ATNO][  0].d[  5] =         0.321083730343;
  BAS[ATNO][  0].a[  6] =         0.447300000000;     BAS[ATNO][  0].d[  6] =         0.395191720876;
  BAS[ATNO][  0].a[  7] =         0.164000000000;     BAS[ATNO][  0].d[  7] =         0.230659408310;

  // Basis function   2 L = s
  InitBFNGauss(BAS[ATNO][  1]);
  BAS[ATNO][  1].l  = 0;
  BAS[ATNO][  1].ng = 8;
  BAS[ATNO][  1].a[  0] =      1145.000000000000;     BAS[ATNO][  1].d[  0] =        -0.000158591125;
  BAS[ATNO][  1].a[  1] =       171.700000000000;     BAS[ATNO][  1].d[  1] =        -0.001224111442;
  BAS[ATNO][  1].a[  2] =        39.070000000000;     BAS[ATNO][  1].d[  2] =        -0.006295493379;
  BAS[ATNO][  1].a[  3] =        11.040000000000;     BAS[ATNO][  1].d[  3] =        -0.024546725500;
  BAS[ATNO][  1].a[  4] =         3.566000000000;     BAS[ATNO][  1].d[  4] =        -0.160610799042;
  BAS[ATNO][  1].a[  5] =         1.240000000000;     BAS[ATNO][  1].d[  5] =         0.083385346060;
  BAS[ATNO][  1].a[  6] =         0.447300000000;     BAS[ATNO][  1].d[  6] =        -1.376160666701;
  BAS[ATNO][  1].a[  7] =         0.164000000000;     BAS[ATNO][  1].d[  7] =         1.753972982747;

  // Basis function   3 L = s
  InitBFNGauss(BAS[ATNO][  2]);
  BAS[ATNO][  2].l  = 0;
  BAS[ATNO][  2].ng = 8;
  BAS[ATNO][  2].a[  0] =      1145.000000000000;     BAS[ATNO][  2].d[  0] =        -0.000544007373;
  BAS[ATNO][  2].a[  1] =       171.700000000000;     BAS[ATNO][  2].d[  1] =        -0.004199009558;
  BAS[ATNO][  2].a[  2] =        39.070000000000;     BAS[ATNO][  2].d[  2] =        -0.021595122773;
  BAS[ATNO][  2].a[  3] =        11.040000000000;     BAS[ATNO][  2].d[  3] =        -0.084201430919;
  BAS[ATNO][  2].a[  4] =         3.566000000000;     BAS[ATNO][  2].d[  4] =         0.102697179312;
  BAS[ATNO][  2].a[  5] =         1.240000000000;     BAS[ATNO][  2].d[  5] =        -2.130868308767;
  BAS[ATNO][  2].a[  6] =         0.447300000000;     BAS[ATNO][  2].d[  6] =         3.200143109921;
  BAS[ATNO][  2].a[  7] =         0.164000000000;     BAS[ATNO][  2].d[  7] =        -1.404893870766;

  // Basis function   4 L = s
  InitBFNGauss(BAS[ATNO][  3]);
  BAS[ATNO][  3].l  = 0;
  BAS[ATNO][  3].ng = 8;
  BAS[ATNO][  3].a[  0] =      1145.000000000000;     BAS[ATNO][  3].d[  0] =        -0.000099890992;
  BAS[ATNO][  3].a[  1] =       171.700000000000;     BAS[ATNO][  3].d[  1] =        -0.000771024900;
  BAS[ATNO][  3].a[  2] =        39.070000000000;     BAS[ATNO][  3].d[  2] =        -0.003965310664;
  BAS[ATNO][  3].a[  3] =        11.040000000000;     BAS[ATNO][  3].d[  3] =        -0.015461122192;
  BAS[ATNO][  3].a[  4] =         3.566000000000;     BAS[ATNO][  3].d[  4] =        -2.190943299111;
  BAS[ATNO][  3].a[  5] =         1.240000000000;     BAS[ATNO][  3].d[  5] =         3.457281865111;
  BAS[ATNO][  3].a[  6] =         0.447300000000;     BAS[ATNO][  3].d[  6] =        -2.279089973393;
  BAS[ATNO][  3].a[  7] =         0.164000000000;     BAS[ATNO][  3].d[  7] =         0.730091308148;

  // Basis function   5 L = s
  InitBFNGauss(BAS[ATNO][  4]);
  BAS[ATNO][  4].l  = 0;
  BAS[ATNO][  4].ng = 8;
  BAS[ATNO][  4].a[  0] =      1145.000000000000;     BAS[ATNO][  4].d[  0] =        -0.009344328286;
  BAS[ATNO][  4].a[  1] =       171.700000000000;     BAS[ATNO][  4].d[  1] =        -0.072125720555;
  BAS[ATNO][  4].a[  2] =        39.070000000000;     BAS[ATNO][  4].d[  2] =        -0.370935995536;
  BAS[ATNO][  4].a[  3] =        11.040000000000;     BAS[ATNO][  4].d[  3] =        -1.446314611464;
  BAS[ATNO][  4].a[  4] =         3.566000000000;     BAS[ATNO][  4].d[  4] =         2.634674310562;
  BAS[ATNO][  4].a[  5] =         1.240000000000;     BAS[ATNO][  4].d[  5] =        -2.106649382380;
  BAS[ATNO][  4].a[  6] =         0.447300000000;     BAS[ATNO][  4].d[  6] =         1.129573305729;
  BAS[ATNO][  4].a[  7] =         0.164000000000;     BAS[ATNO][  4].d[  7] =        -0.352199407586;

  // Basis function   6 L = p
  InitBFNGauss(BAS[ATNO][  5]);
  BAS[ATNO][  5].l  = 1;
  BAS[ATNO][  5].ng = 4;
  BAS[ATNO][  5].a[  0] =        10.153000000000;     BAS[ATNO][  5].d[  0] =        -0.013655048770;
  BAS[ATNO][  5].a[  1] =         3.627000000000;     BAS[ATNO][  5].d[  1] =         0.093221221642;
  BAS[ATNO][  5].a[  2] =         1.296000000000;     BAS[ATNO][  5].d[  2] =        -0.242122106431;
  BAS[ATNO][  5].a[  3] =         0.463000000000;     BAS[ATNO][  5].d[  3] =         1.141401162990;

  // Basis function   7 L = p
  InitBFNGauss(BAS[ATNO][  6]);
  BAS[ATNO][  6].l  = 1;
  BAS[ATNO][  6].ng = 4;
  BAS[ATNO][  6].a[  0] =        10.153000000000;     BAS[ATNO][  6].d[  0] =         0.073716439340;
  BAS[ATNO][  6].a[  1] =         3.627000000000;     BAS[ATNO][  6].d[  1] =        -0.280787204862;
  BAS[ATNO][  6].a[  2] =         1.296000000000;     BAS[ATNO][  6].d[  2] =         1.696133278405;
  BAS[ATNO][  6].a[  3] =         0.463000000000;     BAS[ATNO][  6].d[  3] =        -1.044220136587;

  // Basis function   8 L = p
  InitBFNGauss(BAS[ATNO][  7]);
  BAS[ATNO][  7].l  = 1;
  BAS[ATNO][  7].ng = 4;
  BAS[ATNO][  7].a[  0] =        10.153000000000;     BAS[ATNO][  7].d[  0] =        -0.210943403433;
  BAS[ATNO][  7].a[  1] =         3.627000000000;     BAS[ATNO][  7].d[  1] =         1.850567401600;
  BAS[ATNO][  7].a[  2] =         1.296000000000;     BAS[ATNO][  7].d[  2] =        -1.654752008504;
  BAS[ATNO][  7].a[  3] =         0.463000000000;     BAS[ATNO][  7].d[  3] =         0.601121497677;

  // Basis function   9 L = p
  InitBFNGauss(BAS[ATNO][  8]);
  BAS[ATNO][  8].l  = 1;
  BAS[ATNO][  8].ng = 4;
  BAS[ATNO][  8].a[  0] =        10.153000000000;     BAS[ATNO][  8].d[  0] =        -1.672007360681;
  BAS[ATNO][  8].a[  1] =         3.627000000000;     BAS[ATNO][  8].d[  1] =         1.741543635516;
  BAS[ATNO][  8].a[  2] =         1.296000000000;     BAS[ATNO][  8].d[  2] =        -0.933696956339;
  BAS[ATNO][  8].a[  3] =         0.463000000000;     BAS[ATNO][  8].d[  3] =         0.302387688527;

  // Basis function  10 L = d
  InitBFNGauss(BAS[ATNO][  9]);
  BAS[ATNO][  9].l  = 2;
  BAS[ATNO][  9].ng = 3;
  BAS[ATNO][  9].a[  0] =         7.666000000000;     BAS[ATNO][  9].d[  0] =         0.042795297377;
  BAS[ATNO][  9].a[  1] =         2.647000000000;     BAS[ATNO][  9].d[  1] =        -0.208191616421;
  BAS[ATNO][  9].a[  2] =         0.914000000000;     BAS[ATNO][  9].d[  2] =         1.112172845811;

  // Basis function  11 L = d
  InitBFNGauss(BAS[ATNO][ 10]);
  BAS[ATNO][ 10].l  = 2;
  BAS[ATNO][ 10].ng = 3;
  BAS[ATNO][ 10].a[  0] =         7.666000000000;     BAS[ATNO][ 10].d[  0] =        -0.171318643297;
  BAS[ATNO][ 10].a[  1] =         2.647000000000;     BAS[ATNO][ 10].d[  1] =         1.398318816793;
  BAS[ATNO][ 10].a[  2] =         0.914000000000;     BAS[ATNO][ 10].d[  2] =        -0.701758434831;

  // Basis function  12 L = d
  InitBFNGauss(BAS[ATNO][ 11]);
  BAS[ATNO][ 11].l  = 2;
  BAS[ATNO][ 11].ng = 3;
  BAS[ATNO][ 11].a[  0] =         7.666000000000;     BAS[ATNO][ 11].d[  0] =         1.344459419698;
  BAS[ATNO][ 11].a[  1] =         2.647000000000;     BAS[ATNO][ 11].d[  1] =        -0.951281634282;
  BAS[ATNO][ 11].a[  2] =         0.914000000000;     BAS[ATNO][ 11].d[  2] =         0.330744517813;

  // Basis function  13 L = f
  InitBFNGauss(BAS[ATNO][ 12]);
  BAS[ATNO][ 12].l  = 3;
  BAS[ATNO][ 12].ng = 2;
  BAS[ATNO][ 12].a[  0] =         5.411000000000;     BAS[ATNO][ 12].d[  0] =        -0.118132023434;
  BAS[ATNO][ 12].a[  1] =         1.707000000000;     BAS[ATNO][ 12].d[  1] =         1.052741725815;

  // Basis function  14 L = f
  InitBFNGauss(BAS[ATNO][ 13]);
  BAS[ATNO][ 13].l  = 3;
  BAS[ATNO][ 13].ng = 2;
  BAS[ATNO][ 13].a[  0] =         5.411000000000;     BAS[ATNO][ 13].d[  0] =         1.142089941499;
  BAS[ATNO][ 13].a[  1] =         1.707000000000;     BAS[ATNO][ 13].d[  1] =        -0.458322449986;

  // Basis function  15 L = g
  InitBFNGauss(BAS[ATNO][ 14]);
  BAS[ATNO][ 14].l  = 4;
  BAS[ATNO][ 14].ng = 1;
  BAS[ATNO][ 14].a[  0] =         3.430000000000;     BAS[ATNO][ 14].d[  0] =         1.000000000000;

-------
TIMINGS
-------

Total SCF time: 0 days 0 hours 0 min 1 sec 

Total time                  ....       1.150 sec
Sum of individual times     ....       0.985 sec  ( 85.6%)

Fock matrix formation       ....       0.744 sec  ( 64.7%)
  XC integration            ....       0.015 sec  (  2.1% of F)
    Basis function eval.    ....       0.001 sec  (  9.1% of XC)
    Density eval.           ....       0.001 sec  (  5.5% of XC)
    XC-Functional eval.     ....       0.001 sec  (  6.4% of XC)
    XC-Potential eval.      ....       0.001 sec  (  7.5% of XC)
Diagonalization             ....       0.001 sec  (  0.1%)
Density matrix formation    ....       0.001 sec  (  0.0%)
Population analysis         ....       0.001 sec  (  0.1%)
Initial guess               ....       0.094 sec  (  8.2%)
Orbital Transformation      ....       0.000 sec  (  0.0%)
Orbital Orthonormalization  ....       0.000 sec  (  0.0%)
DIIS solution               ....       0.000 sec  (  0.0%)
SOSCF solution              ....       0.001 sec  (  0.1%)
Grid generation             ....       0.144 sec  ( 12.5%)

-------------------------   --------------------
FINAL SINGLE POINT ENERGY        -2.834727602167
-------------------------   --------------------


                            ***************************************
                            *     ORCA property calculations      *
                            ***************************************

                                    ---------------------
                                    Active property flags
                                    ---------------------
   (+) Dipole Moment


------------------------------------------------------------------------------
                       ORCA ELECTRIC PROPERTIES CALCULATION
------------------------------------------------------------------------------

Dipole Moment Calculation                       ... on
Quadrupole Moment Calculation                   ... off
Polarizability Calculation                      ... off
GBWName                                         ... He_cc-pcv5z_.gbw
Electron density file                           ... He_cc-pcv5z_.scfp
The origin for moment calculation is the CENTER OF MASS  = ( 0.000000,  0.000000  0.000000)

-------------
DIPOLE MOMENT
-------------
                                X             Y             Z
Electronic contribution:      0.00000       0.00000      -0.00000
Nuclear contribution   :      0.00000       0.00000       0.00000
                        -----------------------------------------
Total Dipole Moment    :      0.00000       0.00000      -0.00000
                        -----------------------------------------
Magnitude (a.u.)       :      0.00000
Magnitude (Debye)      :      0.00000



--------------------
Rotational spectrum 
--------------------
 
Rotational constants in cm-1:     0.000000     0.000000     0.000000 
Rotational constants in MHz :     0.000000     0.000000     0.000000 

 Dipole components along the rotational axes: 
x,y,z [a.u.] :     0.000000     0.000000    -0.000000 
x,y,z [Debye]:     0.000000     0.000000    -0.000000 

 

Timings for individual modules:

Sum of individual times         ...        1.878 sec (=   0.031 min)
GTO integral calculation        ...        0.491 sec (=   0.008 min)  26.1 %
SCF iterations                  ...        1.387 sec (=   0.023 min)  73.9 %
                             ****ORCA TERMINATED NORMALLY****
TOTAL RUN TIME: 0 days 0 hours 0 minutes 2 seconds 202 msec
