
                                 *****************
                                 * O   R   C   A *
                                 *****************

           --- An Ab Initio, DFT and Semiempirical electronic structure package ---

                  #######################################################
                  #                        -***-                        #
                  #          Department of theory and spectroscopy      #
                  #               Directorship: Frank Neese             #
                  #        Max Planck Institute fuer Kohlenforschung    #
                  #                Kaiser Wilhelm Platz 1               #
                  #                 D-45470 Muelheim/Ruhr               #
                  #                      Germany                        #
                  #                                                     #
                  #                  All rights reserved                #
                  #                        -***-                        #
                  #######################################################


                         Program Version 4.2.1 -  RELEASE  -


 With contributions from (in alphabetic order):
   Daniel Aravena         : Magnetic Suceptibility
   Michael Atanasov       : Ab Initio Ligand Field Theory (pilot matlab implementation)
   Alexander A. Auer      : GIAO ZORA, VPT2
   Ute Becker             : Parallelization
   Giovanni Bistoni       : ED, misc. LED, open-shell LED, HFLD
   Martin Brehm           : Molecular dynamics
   Dmytro Bykov           : SCF Hessian
   Vijay G. Chilkuri      : MRCI spin determinant printing, contributions to CSF-ICE
   Dipayan Datta          : RHF DLPNO-CCSD density
   Achintya Kumar Dutta   : EOM-CC, STEOM-CC
   Dmitry Ganyushin       : Spin-Orbit,Spin-Spin,Magnetic field MRCI
   Miquel Garcia          : C-PCM Hessian, Gaussian charge scheme
   Yang Guo               : DLPNO-NEVPT2, CIM, IAO-localization
   Andreas Hansen         : Spin unrestricted coupled pair/coupled cluster methods
   Benjamin Helmich-Paris : CASSCF linear response (MC-RPA)
   Lee Huntington         : MR-EOM, pCC
   Robert Izsak           : Overlap fitted RIJCOSX, COSX-SCS-MP3, EOM
   Christian Kollmar      : KDIIS, OOCD, Brueckner-CCSD(T), CCSD density
   Simone Kossmann        : Meta GGA functionals, TD-DFT gradient, OOMP2, MP2 Hessian
   Martin Krupicka        : AUTO-CI
   Lucas Lang             : DCDCAS
   Dagmar Lenk            : GEPOL surface, SMD
   Dimitrios Liakos       : Extrapolation schemes; Compound Job, initial MDCI parallelization
   Dimitrios Manganas     : Further ROCIS development; embedding schemes
   Dimitrios Pantazis     : SARC Basis sets
   Taras Petrenko         : DFT Hessian,TD-DFT gradient, ASA, ECA, R-Raman, ABS, FL, XAS/XES, NRVS
   Peter Pinski           : DLPNO-MP2, DLPNO-MP2 Gradient
   Christoph Reimann      : Effective Core Potentials
   Marius Retegan         : Local ZFS, SOC
   Christoph Riplinger    : Optimizer, TS searches, QM/MM, DLPNO-CCSD(T), (RO)-DLPNO pert. Triples
   Tobias Risthaus        : Range-separated hybrids, TD-DFT gradient, RPA, STAB
   Michael Roemelt        : Original ROCIS implementation
   Masaaki Saitow         : Open-shell DLPNO-CCSD energy and density
   Barbara Sandhoefer     : DKH picture change effects
   Avijit Sen             : IP-ROCIS
   Kantharuban Sivalingam : CASSCF convergence, NEVPT2, FIC-MRCI
   Bernardo de Souza      : ESD, SOC TD-DFT
   Georgi Stoychev        : AutoAux, RI-MP2 NMR
   Willem Van den Heuvel  : Paramagnetic NMR
   Boris Wezisla          : Elementary symmetry handling
   Frank Wennmohs         : Technical directorship


 We gratefully acknowledge several colleagues who have allowed us to
 interface, adapt or use parts of their codes:
   Stefan Grimme, W. Hujo, H. Kruse,             : VdW corrections, initial TS optimization,
                  C. Bannwarth                     DFT functionals, gCP, sTDA/sTD-DF
   Ed Valeev, F. Pavosevic, A. Kumar             : LibInt (2-el integral package), F12 methods
   Garnet Chan, S. Sharma, J. Yang, R. Olivares  : DMRG
   Ulf Ekstrom                                   : XCFun DFT Library
   Mihaly Kallay                                 : mrcc  (arbitrary order and MRCC methods)
   Andreas Klamt, Michael Diedenhofen            : otool_cosmo (COSMO solvation model)
   Jiri Pittner, Ondrej Demel                    : Mk-CCSD
   Frank Weinhold                                : gennbo (NPA and NBO analysis)
   Christopher J. Cramer and Donald G. Truhlar   : smd solvation model
   Lars Goerigk                                  : TD-DFT with DH, B97 family of functionals
   V. Asgeirsson, H. Jonsson                     : NEB implementation
   FAccTs GmbH                                   : IRC, NEB, NEB-TS, Multilevel, MM, QM/MM, CI optimization
   S Lehtola, MJT Oliveira, MAL Marques          : LibXC Library


 Your calculation uses the libint2 library for the computation of 2-el integrals
 For citations please refer to: http://libint.valeyev.net

 Your ORCA version has been built with support for libXC version: 4.2.3
 For citations please refer to: https://tddft.org/programs/libxc/

 This ORCA versions uses:
   CBLAS   interface :  Fast vector & matrix operations
   LAPACKE interface :  Fast linear algebra routines
   SCALAPACK package :  Parallel linear algebra routines


----- Orbital basis set information -----
Your calculation utilizes the basis: ANO-RCC-DZP
   H, He:       P.-O. Widmark, P.-A. Malmqvist, and B. O. Roos, Theor. Chim. Acta 77, 291 (1990).
   s block:     B. O. Roos, V. Veryazov and P.-O. Widmark, Theor. Chem. Acc. 111, 345 (2004).
   p block:     B. O. Roos, R. Lindh, P.-A. Malmqvist, V. Veryazov, and P.-O. Widmark, J. Phys. Chem. A 108, 2851 (2004).
   d block:     B. O. Roos, R. Lindh, P.-A. Malmqvist, V. Veryazov, and P.-O. Widmark, J. Phys. Chem. A 109, 6575 (2005).
   actinides:   B. O. Roos, R. Lindh, P.-A. Malmqvist, V. Veryazov, and P.-O. Widmark, Chem. Phys. Letters 409, 295 (2005).
   lanthanides: B. O. Roos, R. Lindh, P.-A. Malmqvist, V. Veryazov, P.-O. Widmark and A. C. Borin, J. Phys. Chem. A 112, 11431 (2008).

================================================================================
                                        WARNINGS
                       Please study these warnings very carefully!
================================================================================


INFO   : the flag for use of LIBINT has been found!

================================================================================
                                       INPUT FILE
================================================================================
NAME = Kr_ano-rcc-dzp_.inp
|  1> ! LDA ano-rcc-dzp nori grid5 finalgrid6 verytightscf
|  2> %Pal NProcs 18 End
|  3> 
|  4> *xyz 34 1
|  5> Kr 0.0 0.0 0.0
|  6> **                         ****END OF INPUT****
================================================================================

                       ****************************
                       * Single Point Calculation *
                       ****************************

---------------------------------
CARTESIAN COORDINATES (ANGSTROEM)
---------------------------------
  Kr     0.000000    0.000000    0.000000

----------------------------
CARTESIAN COORDINATES (A.U.)
----------------------------
  NO LB      ZA    FRAG     MASS         X           Y           Z
   0 Kr   36.0000    0    83.800    0.000000    0.000000    0.000000

--------------------------------
INTERNAL COORDINATES (ANGSTROEM)
--------------------------------
 Kr     0   0   0     0.000000000000     0.00000000     0.00000000

---------------------------
INTERNAL COORDINATES (A.U.)
---------------------------
 Kr     0   0   0     0.000000000000     0.00000000     0.00000000

---------------------
BASIS SET INFORMATION
---------------------
There are 1 groups of distinct atoms

 Group   1 Type Kr  : 100s68p22d4f contracted to 5s4p2d1f pattern {2020202020/17171717/1111/4}

Atom   0Kr   basis set group =>   1


           ************************************************************
           *        Program running with 18 parallel MPI-processes    *
           *              working on a common directory               *
           ************************************************************


------------------------------------------------------------------------------
                       ORCA GTO INTEGRAL CALCULATION
                     -- ANO INTEGRAL GENERATION BRANCH --
------------------------------------------------------------------------------


Gathering ANO information                         ... done
Calculation Information:
Number of atoms                                   ... 1
Number of basis functions                         ... 34
Highest angular momentum                          ... 3
Number of primitive shells                        ... 52
Total number of shells                            ... 12
Maximum number of shells                          ... 12

Getting memory                                    ... done
Making prescreening integrals                     ... done
Gathering atom contracted prescreening            ... done
Making one-electron integrals                     ... done

Timings:

Total time                                        ...    0.5 sec
Prescreening matrix                               ...    0.4 sec
One-electron matrix                               ...    0.0 sec
Two-index integrals + Cholesky                    ...    0.0 sec


           ************************************************************
           *        Program running with 18 parallel MPI-processes    *
           *              working on a common directory               *
           ************************************************************
-------------------------------------------------------------------------------
                                 ORCA SCF
-------------------------------------------------------------------------------

------------
SCF SETTINGS
------------
Hamiltonian:
 Density Functional     Method          .... DFT(GTOs)
 Exchange Functional    Exchange        .... Slater
   X-Alpha parameter    XAlpha          ....  0.666667
 Correlation Functional Correlation     .... VWN-5
 Gradients option       PostSCFGGA      .... off
   Density functional embedding theory  .... OFF


General Settings:
 Integral files         IntName         .... Kr_ano-rcc-dzp_
 Hartree-Fock type      HFTyp           .... RHF
 Total Charge           Charge          ....   34
 Multiplicity           Mult            ....    1
 Number of Electrons    NEL             ....    2
 Basis Dimension        Dim             ....   34
 Nuclear Repulsion      ENuc            ....      0.0000000000 Eh

Convergence Acceleration:
 DIIS                   CNVDIIS         .... on
   Start iteration      DIISMaxIt       ....    12
   Startup error        DIISStart       ....  0.200000
   # of expansion vecs  DIISMaxEq       ....     5
   Bias factor          DIISBfac        ....   1.050
   Max. coefficient     DIISMaxC        ....  10.000
 Newton-Raphson         CNVNR           .... off
 SOSCF                  CNVSOSCF        .... on
   Start iteration      SOSCFMaxIt      ....   150
   Startup grad/error   SOSCFStart      ....  0.003300
 Level Shifting         CNVShift        .... on
   Level shift para.    LevelShift      ....    0.2500
   Turn off err/grad.   ShiftErr        ....    0.0010
 Zerner damping         CNVZerner       .... off
 Static damping         CNVDamp         .... on
   Fraction old density DampFac         ....    0.7000
   Max. Damping (<1)    DampMax         ....    0.9800
   Min. Damping (>=0)   DampMin         ....    0.0000
   Turn off err/grad.   DampErr         ....    0.1000
 Fernandez-Rico         CNVRico         .... off

SCF Procedure:
 Maximum # iterations   MaxIter         ....   125
 SCF integral mode      SCFMode         .... Direct
   Integral package                     .... LIBINT
 Reset frequency        DirectResetFreq ....    20
 Integral Threshold     Thresh          ....  1.000e-12 Eh
 Primitive CutOff       TCut            ....  1.000e-14 Eh

Convergence Tolerance:
 Convergence Check Mode ConvCheckMode   .... Total+1el-Energy
 Convergence forced     ConvForced      .... 0
 Energy Change          TolE            ....  1.000e-09 Eh
 1-El. energy change                    ....  1.000e-06 Eh
 Orbital Gradient       TolG            ....  2.000e-06
 Orbital Rotation angle TolX            ....  2.000e-06
 DIIS Error             TolErr          ....  1.000e-08


Diagonalization of the overlap matrix:
Smallest eigenvalue                        ... 1.000e+00
Time for diagonalization                   ...    0.000 sec
Threshold for overlap eigenvalues          ... 1.000e-08
Number of eigenvalues below threshold      ... 0
Time for construction of square roots      ...    0.001 sec
Total time needed                          ...    0.001 sec

-------------------
DFT GRID GENERATION
-------------------

General Integration Accuracy     IntAcc      ...  5.010
Radial Grid Type                 RadialGrid  ... Gauss-Chebyshev
Angular Grid (max. acc.)         AngularGrid ... Lebedev-434
Angular grid pruning method      GridPruning ... 3 (G Style)
Weight generation scheme         WeightScheme... Becke
Basis function cutoff            BFCut       ...    1.0000e-12
Integration weight cutoff        WCut        ...    1.0000e-14
Grids for H and He will be reduced by one unit

# of grid points (after initial pruning)     ...  16106 (   0.0 sec)
# of grid points (after weights+screening)   ...  16106 (   0.0 sec)
Grid point division into batches done        ...    0.2 sec
Reduced shell lists constructed in    0.2 sec

Total number of grid points                  ...    16106
Total number of batches                      ...      252
Average number of points per batch           ...       63
Average number of grid points per atom       ...    16106
Average number of shells per batch           ...     5.87 (48.89%)
Average number of basis functions per batch  ...    16.80 (49.41%)
Average number of large shells per batch     ...     2.00 (34.09%)
Average number of large basis fcns per batch ...     4.93 (29.37%)
Maximum spatial batch extension              ...  17.34, 17.34, 17.34 au
Average spatial batch extension              ...   0.86,  0.87,  0.87 au

Time for grid setup =    0.260 sec

------------------------------
INITIAL GUESS: MODEL POTENTIAL
------------------------------
Loading Hartree-Fock densities                     ... done
Calculating cut-offs                               ... done
Setting up the integral package                    ... done
Initializing the effective Hamiltonian             ... done
Starting the Coulomb interaction                   ... done (   0.0 sec)
Reading the grid                                   ... done
Mapping shells                                     ... done
Starting the XC term evaluation                    ... done (   0.0 sec)
  promolecular density results
     # of electrons  =     35.999999729
     EX              =    -88.624060943
     EC              =     -3.283969203
     EX+EC           =    -91.908030146
Transforming the Hamiltonian                       ... done (   0.0 sec)
Diagonalizing the Hamiltonian                      ... done (   0.0 sec)
Back transforming the eigenvectors                 ... done (   0.0 sec)
Now organizing SCF variables                       ... done
                      ------------------
                      INITIAL GUESS DONE (   0.3 sec)
                      ------------------
--------------
SCF ITERATIONS
--------------
ITER       Energy         Delta-E        Max-DP      RMS-DP      [F,P]     Damp
               ***  Starting incremental Fock matrix formation  ***
  0  -1249.1665369320   0.000000000000 0.00383426  0.00011858  5.8393723 0.7000
                      *** Initiating the SOSCF procedure ***
                      *** Re-Reading the Fockian *** 
                      *** Removing any level shift *** 
ITER      Energy       Delta-E        Grad      Rot      Max-DP    RMS-DP
  1  -1249.17949261  -0.0129556799  0.003060  0.003060  0.008934  0.000276
               *** Restarting incremental Fock matrix formation ***
  2  -1249.20956293  -0.0300703202  0.010854  0.000024  0.000046  0.000001
  3  -1249.20956350  -0.0000005726  0.000055  0.000000  0.000000  0.000000
                 **** Energy Check signals convergence ****
              ***Rediagonalizing the Fockian in SOSCF/NRSCF***

               *****************************************************
               *                     SUCCESS                       *
               *           SCF CONVERGED AFTER   4 CYCLES          *
               *****************************************************

Setting up the final grid:

General Integration Accuracy     IntAcc      ...  5.340
Radial Grid Type                 RadialGrid  ... Gauss-Chebyshev
Angular Grid (max. acc.)         AngularGrid ... Lebedev-590
Angular grid pruning method      GridPruning ... 3 (G Style)
Weight generation scheme         WeightScheme... Becke
Basis function cutoff            BFCut       ...    1.0000e-12
Integration weight cutoff        WCut        ...    1.0000e-14
Grids for H and He will be reduced by one unit

# of grid points (after initial pruning)     ...  24180 (   0.0 sec)
# of grid points (after weights+screening)   ...  24180 (   0.0 sec)
Grid point division into batches done        ...    0.4 sec
Reduced shell lists constructed in    0.4 sec

Total number of grid points                  ...    24180
Total number of batches                      ...      378
Average number of points per batch           ...       63
Average number of grid points per atom       ...    24180
Average number of shells per batch           ...     3.95 (32.95%)
Average number of basis functions per batch  ...    10.23 (30.08%)
Average number of large shells per batch     ...     1.36 (34.48%)
Average number of large basis fcns per batch ...     4.36 (42.67%)
Maximum spatial batch extension              ...  17.58, 17.58, 17.58 au
Average spatial batch extension              ...   0.77,  0.77,  0.77 au

Final grid set up in    0.4 sec
Final integration                            ... done (   0.0 sec)
Change in XC energy                          ...    -0.000014968
Integrated number of electrons               ...     2.000000075
Previous integrated no of electrons          ...     1.999999430

----------------
TOTAL SCF ENERGY
----------------

Total Energy       :        -1249.20957847 Eh          -33992.72079 eV

Components:
Nuclear Repulsion  :            0.00000000 Eh               0.00000 eV
Electronic Energy  :        -1249.20957847 Eh          -33992.72079 eV
One Electron Energy:        -1274.86848572 Eh          -34690.93515 eV
Two Electron Energy:           25.65890724 Eh             698.21436 eV

Virial components:
Potential Energy   :        -2673.79891776 Eh          -72757.76749 eV
Kinetic Energy     :         1424.58933929 Eh           38765.04670 eV
Virial Ratio       :            1.87689101


DFT components:
N(Alpha)           :        1.000000037437 electrons
N(Beta)            :        1.000000037437 electrons
N(Total)           :        2.000000074873 electrons
E(X)               :      -19.607676950646 Eh       
E(C)               :       -0.278881466365 Eh       
E(XC)              :      -19.886558417011 Eh       
DFET-embed. en.    :        0.000000000000 Eh       

---------------
SCF CONVERGENCE
---------------

  Last Energy change         ...   -1.4779e-11  Tolerance :   1.0000e-09
  Last MAX-Density change    ...    0.0000e+00  Tolerance :   1.0000e-08
  Last RMS-Density change    ...    0.0000e+00  Tolerance :   1.0000e-09
  Last Orbital Gradient      ...    3.8765e-11  Tolerance :   2.0000e-06
  Last Orbital Rotation      ...    0.0000e+00  Tolerance :   2.0000e-06

================================================================================
                                        WARNING
Number of found core electrons (2) does not match given number of chemical core electrons (18)
================================================================================
             **** THE GBW FILE WAS UPDATED (Kr_ano-rcc-dzp_.gbw) ****
             **** DENSITY FILE WAS UPDATED (Kr_ano-rcc-dzp_.scfp) ****
             **** ENERGY FILE WAS UPDATED (Kr_ano-rcc-dzp_.en.tmp) ****
             **** THE GBW FILE WAS UPDATED (Kr_ano-rcc-dzp_.gbw) ****
             **** DENSITY FILE WAS UPDATED (Kr_ano-rcc-dzp_.scfp) ****
----------------
ORBITAL ENERGIES
----------------

  NO   OCC          E(Eh)            E(eV) 
   0   2.0000    -605.109831    -16465.8756 
   1   0.0000    -147.353035     -4009.6799 
   2   0.0000    -146.563453     -3988.1943 
   3   0.0000    -146.563453     -3988.1943 
   4   0.0000    -146.563453     -3988.1943 
   5   0.0000     -61.259053     -1666.9436 
   6   0.0000     -58.734124     -1598.2368 
   7   0.0000     -58.734124     -1598.2368 
   8   0.0000     -58.734124     -1598.2368 
   9   0.0000     -54.605570     -1485.8931 
  10   0.0000     -54.605570     -1485.8931 
  11   0.0000     -54.605570     -1485.8931 
  12   0.0000     -54.605570     -1485.8931 
  13   0.0000     -54.605570     -1485.8931 
  14   0.0000     -27.270758      -742.0750 
  15   0.0000     -23.833696      -648.5478 
  16   0.0000     -23.833696      -648.5478 
  17   0.0000     -23.833696      -648.5478 
  18   0.0000     -18.184549      -494.8267 
  19   0.0000     -18.184549      -494.8267 
  20   0.0000     -18.184549      -494.8267 
  21   0.0000     -18.184549      -494.8267 
  22   0.0000     -18.184549      -494.8267 
  23   0.0000     -17.130803      -466.1528 
  24   0.0000     -17.130803      -466.1528 
  25   0.0000     -17.130803      -466.1528 
  26   0.0000     -17.130803      -466.1528 
  27   0.0000     -17.130803      -466.1528 
  28   0.0000     -17.130803      -466.1528 
  29   0.0000     -17.130803      -466.1528 
  30   0.0000     -13.696752      -372.7076 
  31   0.0000     -11.236769      -305.7680 
  32   0.0000     -11.236769      -305.7680 
  33   0.0000     -11.236769      -305.7680 

                    ********************************
                    * MULLIKEN POPULATION ANALYSIS *
                    ********************************

-----------------------
MULLIKEN ATOMIC CHARGES
-----------------------
   0 Kr:   34.000000
Sum of atomic charges:   34.0000000

--------------------------------
MULLIKEN REDUCED ORBITAL CHARGES
--------------------------------
  0 Krs       :     2.000000  s :     2.000000
      pz      :     0.000000  p :     0.000000
      px      :     0.000000
      py      :     0.000000
      dz2     :     0.000000  d :     0.000000
      dxz     :     0.000000
      dyz     :     0.000000
      dx2y2   :     0.000000
      dxy     :     0.000000
      f0      :     0.000000  f :     0.000000
      f+1     :     0.000000
      f-1     :     0.000000
      f+2     :     0.000000
      f-2     :     0.000000
      f+3     :     0.000000
      f-3     :     0.000000


                     *******************************
                     * LOEWDIN POPULATION ANALYSIS *
                     *******************************

----------------------
LOEWDIN ATOMIC CHARGES
----------------------
   0 Kr:   34.000000

-------------------------------
LOEWDIN REDUCED ORBITAL CHARGES
-------------------------------
  0 Krs       :     2.000000  s :     2.000000
      pz      :     0.000000  p :     0.000000
      px      :     0.000000
      py      :     0.000000
      dz2     :     0.000000  d :     0.000000
      dxz     :     0.000000
      dyz     :     0.000000
      dx2y2   :     0.000000
      dxy     :     0.000000
      f0      :     0.000000  f :     0.000000
      f+1     :     0.000000
      f-1     :     0.000000
      f+2     :     0.000000
      f-2     :     0.000000
      f+3     :     0.000000
      f-3     :     0.000000


                      *****************************
                      * MAYER POPULATION ANALYSIS *
                      *****************************

  NA   - Mulliken gross atomic population
  ZA   - Total nuclear charge
  QA   - Mulliken gross atomic charge
  VA   - Mayer's total valence
  BVA  - Mayer's bonded valence
  FA   - Mayer's free valence

  ATOM       NA         ZA         QA         VA         BVA        FA
  0 Kr     2.0000    36.0000    34.0000    -0.0000     0.0000    -0.0000

  Mayer bond orders larger than 0.100000


--------------------------
ATOM BASIS FOR ELEMENT Kr
--------------------------
 NewGTO Kr
 S 99
    1   18535881.300000000745         0.000137341853
    2    2419299.990000000224         0.000443161444
    3     474949.065000000002         0.001295208860
    4     117392.346000000005         0.003458682994
    5      34065.440100000000         0.008980443387
    6      11133.885300000000         0.023266995661
    7       3988.280760000000         0.059846792260
    8       1534.678610000000         0.144115127628
    9        624.475513000000         0.287648092178
   10        265.735250000000         0.382459034519
   11        116.709586000000         0.227382065313
   12         50.306071000000         0.027101798956
   13         23.036081700000         0.000594151493
   14         10.586238100000        -0.000552217034
   15          4.798113940000         0.000380629706
   16          2.133543170000        -0.000271684102
   17          0.857316380000         0.000151509981
   18          0.378404470000        -0.000084018898
   19          0.152386050000         0.000035795270
   20          0.060954420000        -0.000009808704
   21   18535881.300000000745        -0.000000663709
   22    2419299.990000000224        -0.000002143900
   23     474949.065000000002        -0.000006278033
   24     117392.346000000005        -0.000016825534
   25      34065.440100000000        -0.000043994523
   26      11133.885300000000        -0.000115462689
   27       3988.280760000000        -0.000305149433
   28       1534.678610000000        -0.000777821341
   29        624.475513000000        -0.001763381175
   30        265.735250000000        -0.003051606118
   31        116.709586000000        -0.002441415609
   32         50.306071000000         0.004111544868
   33         23.036081700000         0.009693479587
   34         10.586238100000         0.003755178065
   35          4.798113940000         0.000153660603
   36          2.133543170000         0.000042047217
   37          0.857316380000        -0.000013786901
   38          0.378404470000         0.000006384602
   39          0.152386050000        -0.000002968581
   40   18535881.300000000745        -0.000000104797
   41    2419299.990000000224        -0.000000338530
   42     474949.065000000002        -0.000000991684
   43     117392.346000000005        -0.000002658967
   44      34065.440100000000        -0.000006959265
   45      11133.885300000000        -0.000018294343
   46       3988.280760000000        -0.000048523322
   47       1534.678610000000        -0.000124630977
   48        624.475513000000        -0.000287493433
   49        265.735250000000        -0.000516881958
   50        116.709586000000        -0.000442226147
   51         50.306071000000         0.000922620884
   52         23.036081700000         0.003117356949
   53         10.586238100000         0.001254215302
   54          4.798113940000        -0.004072653730
   55          2.133543170000        -0.003466291666
   56          0.857316380000        -0.000188746482
   57          0.378404470000        -0.000035019187
   58          0.152386050000         0.000014482376
   59          0.060954420000        -0.000004830011
   60   18535881.300000000745        -0.000000010726
   61    2419299.990000000224        -0.000000034647
   62     474949.065000000002        -0.000000101473
   63     117392.346000000005        -0.000000272074
   64      34065.440100000000        -0.000000712242
   65      11133.885300000000        -0.000001872744
   66       3988.280760000000        -0.000004970125
   67       1534.678610000000        -0.000012780681
   68        624.475513000000        -0.000029563502
   69        265.735250000000        -0.000053470136
   70        116.709586000000        -0.000046282745
   71         50.306071000000         0.000099896962
   72         23.036081700000         0.000358048825
   73         10.586238100000         0.000148860951
   74          4.798113940000        -0.000619040061
   75          2.133543170000        -0.000965242211
   76          0.857316380000         0.000395434129
   77          0.378404470000         0.001449037671
   78          0.152386050000         0.000547686730
   79          0.060954420000        -0.000001697801
   80   18535881.300000000745        -0.000000013978
   81    2419299.990000000224        -0.000000045182
   82     474949.065000000002        -0.000000132067
   83     117392.346000000005        -0.000000355933
   84      34065.440100000000        -0.000000922532
   85      11133.885300000000        -0.000002467999
   86       3988.280760000000        -0.000006381401
   87       1534.678610000000        -0.000017031758
   88        624.475513000000        -0.000037483647
   89        265.735250000000        -0.000073450734
   90        116.709586000000        -0.000051494132
   91         50.306071000000         0.000109227857
   92         23.036081700000         0.000552424629
   93         10.586238100000         0.000030806866
   94          4.798113940000        -0.000627583447
   95          2.133543170000        -0.002299672747
   96          0.857316380000         0.003857431865
   97          0.378404470000         0.000791364090
   98          0.152386050000        -0.002843621598
   99          0.060954420000        -0.000065552940
 S 98
    1   18535881.300000000745         0.000002093876
    2    2419299.990000000224         0.000006756318
    3     474949.065000000002         0.000019746401
    4     117392.346000000005         0.000052730137
    5      34065.440100000000         0.000136913390
    6      11133.885300000000         0.000354722268
    7       3988.280760000000         0.000912407866
    8       1534.678610000000         0.002197139915
    9        624.475513000000         0.004385404331
   10        265.735250000000         0.005830866089
   11        116.709586000000         0.003466604928
   12         50.306071000000         0.000413186632
   13         23.036081700000         0.000009058272
   14         10.586238100000        -0.000008418950
   15          4.798113940000         0.000005802977
   16          2.133543170000        -0.000004142022
   17          0.857316380000         0.000002309880
   18          0.378404470000        -0.000001280929
   19   18535881.300000000745         0.000044453932
   20    2419299.990000000224         0.000143594287
   21     474949.065000000002         0.000420490473
   22     117392.346000000005         0.001126941620
   23      34065.440100000000         0.002946667774
   24      11133.885300000000         0.007733466786
   25       3988.280760000000         0.020438316730
   26       1534.678610000000         0.052096963657
   27        624.475513000000         0.118107848343
   28        265.735250000000         0.204390654487
   29        116.709586000000         0.163521278608
   30         50.306071000000        -0.275383294581
   31         23.036081700000        -0.649250447331
   32         10.586238100000        -0.251514537890
   33          4.798113940000        -0.010291888911
   34          2.133543170000        -0.002816240956
   35          0.857316380000         0.000923419879
   36          0.378404470000        -0.000427628259
   37          0.152386050000         0.000198829770
   38          0.060954420000        -0.000051851274
   39   18535881.300000000745         0.000000961708
   40    2419299.990000000224         0.000003106642
   41     474949.065000000002         0.000009100553
   42     117392.346000000005         0.000024400981
   43      34065.440100000000         0.000063864244
   44      11133.885300000000         0.000167884738
   45       3988.280760000000         0.000445292031
   46       1534.678610000000         0.001143721784
   47        624.475513000000         0.002638288734
   48        265.735250000000         0.004743356513
   49        116.709586000000         0.004058250137
   50         50.306071000000        -0.008466768309
   51         23.036081700000        -0.028607567286
   52         10.586238100000        -0.011509765875
   53          4.798113940000         0.037374197927
   54          2.133543170000         0.031809694457
   55          0.857316380000         0.001732101195
   56          0.378404470000         0.000321366391
   57          0.152386050000        -0.000132902828
   58          0.060954420000         0.000044324364
   59   18535881.300000000745         0.000000071032
   60    2419299.990000000224         0.000000229441
   61     474949.065000000002         0.000000671977
   62     117392.346000000005         0.000001801729
   63      34065.440100000000         0.000004716619
   64      11133.885300000000         0.000012401710
   65       3988.280760000000         0.000032913229
   66       1534.678610000000         0.000084636405
   67        624.475513000000         0.000195775836
   68        265.735250000000         0.000354090678
   69        116.709586000000         0.000306494237
   70         50.306071000000        -0.000661539054
   71         23.036081700000        -0.002371075916
   72         10.586238100000        -0.000985789064
   73          4.798113940000         0.004099415721
   74          2.133543170000         0.006392040418
   75          0.857316380000        -0.002618649401
   76          0.378404470000        -0.009595837458
   77          0.152386050000        -0.003626898693
   78          0.060954420000         0.000011243202
   79   18535881.300000000745         0.000000082075
   80    2419299.990000000224         0.000000265289
   81     474949.065000000002         0.000000775440
   82     117392.346000000005         0.000002089876
   83      34065.440100000000         0.000005416694
   84      11133.885300000000         0.000014490980
   85       3988.280760000000         0.000037468725
   86       1534.678610000000         0.000100002843
   87        624.475513000000         0.000220087167
   88        265.735250000000         0.000431269767
   89        116.709586000000         0.000302350449
   90         50.306071000000        -0.000641336991
   91         23.036081700000        -0.003243589679
   92         10.586238100000        -0.000180884099
   93          4.798113940000         0.003684888550
   94          2.133543170000         0.013502647045
   95          0.857316380000        -0.022649109984
   96          0.378404470000        -0.004646535036
   97          0.152386050000         0.016696470757
   98          0.060954420000         0.000384897466
 S 98
    1   18535881.300000000745         0.000000746373
    2    2419299.990000000224         0.000002408325
    3     474949.065000000002         0.000007038708
    4     117392.346000000005         0.000018795934
    5      34065.440100000000         0.000048803495
    6      11133.885300000000         0.000126442611
    7       3988.280760000000         0.000325232564
    8       1534.678610000000         0.000783182035
    9        624.475513000000         0.001563200351
   10        265.735250000000         0.002078442769
   11        116.709586000000         0.001235689490
   12         50.306071000000         0.000147282540
   13         23.036081700000         0.000003228868
   14         10.586238100000        -0.000003000979
   15          4.798113940000         0.000002068501
   16          2.133543170000        -0.000001476445
   17          0.857316380000         0.000000823369
   18          0.378404470000        -0.000000456594
   19   18535881.300000000745        -0.000002498328
   20    2419299.990000000224        -0.000008070054
   21     474949.065000000002        -0.000023631725
   22     117392.346000000005        -0.000063334550
   23      34065.440100000000        -0.000165603855
   24      11133.885300000000        -0.000434623789
   25       3988.280760000000        -0.001148641210
   26       1534.678610000000        -0.002927869265
   27        624.475513000000        -0.006637706209
   28        265.735250000000        -0.011486832885
   29        116.709586000000        -0.009189958343
   30         50.306071000000         0.015476646386
   31         23.036081700000         0.036488123234
   32         10.586238100000         0.014135213139
   33          4.798113940000         0.000578408090
   34          2.133543170000         0.000158273818
   35          0.857316380000        -0.000051896550
   36          0.378404470000         0.000024032872
   37          0.152386050000        -0.000011174309
   38          0.060954420000         0.000002914061
   39   18535881.300000000745         0.000017550293
   40    2419299.990000000224         0.000056693418
   41     474949.065000000002         0.000166076867
   42     117392.346000000005         0.000445295864
   43      34065.440100000000         0.001165464751
   44      11133.885300000000         0.003063744780
   45       3988.280760000000         0.008126177233
   46       1534.678610000000         0.020871889171
   47        624.475513000000         0.048146385631
   48        265.735250000000         0.086561970633
   49        116.709586000000         0.074059398282
   50         50.306071000000        -0.154510871719
   51         23.036081700000        -0.522062255342
   52         10.586238100000        -0.210042827875
   53          4.798113940000         0.682045343686
   54          2.133543170000         0.580498183029
   55          0.857316380000         0.031609281819
   56          0.378404470000         0.005864646269
   57          0.152386050000        -0.002425356539
   58          0.060954420000         0.000808879599
   59   18535881.300000000745         0.000000854585
   60    2419299.990000000224         0.000002760400
   61     474949.065000000002         0.000008084556
   62     117392.346000000005         0.000021676604
   63      34065.440100000000         0.000056745656
   64      11133.885300000000         0.000149204999
   65       3988.280760000000         0.000395979111
   66       1534.678610000000         0.001018260725
   67        624.475513000000         0.002355379399
   68        265.735250000000         0.004260065520
   69        116.709586000000         0.003687432659
   70         50.306071000000        -0.007958977420
   71         23.036081700000        -0.028526418171
   72         10.586238100000        -0.011860029825
   73          4.798113940000         0.049320077148
   74          2.133543170000         0.076902648582
   75          0.857316380000        -0.031504975168
   76          0.378404470000        -0.115447535932
   77          0.152386050000        -0.043635224020
   78          0.060954420000         0.000135266976
   79   18535881.300000000745         0.000000861094
   80    2419299.990000000224         0.000002783295
   81     474949.065000000002         0.000008135585
   82     117392.346000000005         0.000021926076
   83      34065.440100000000         0.000056829604
   84      11133.885300000000         0.000152033089
   85       3988.280760000000         0.000393105631
   86       1534.678610000000         0.001049186503
   87        624.475513000000         0.002309059192
   88        265.735250000000         0.004524695533
   89        116.709586000000         0.003172129910
   90         50.306071000000        -0.006728629829
   91         23.036081700000        -0.034030337513
   92         10.586238100000        -0.001897757593
   93          4.798113940000         0.038660254053
   94          2.133543170000         0.141663922295
   95          0.857316380000        -0.237624648422
   96          0.378404470000        -0.048749432322
   97          0.152386050000         0.175172136844
   98          0.060954420000         0.004038177441
 S 96
    1   18535881.300000000745        -0.000000196461
    2    2419299.990000000224        -0.000000633921
    3     474949.065000000002        -0.000001852735
    4     117392.346000000005        -0.000004947482
    5      34065.440100000000        -0.000012846099
    6      11133.885300000000        -0.000033282335
    7       3988.280760000000        -0.000085608000
    8       1534.678610000000        -0.000206149861
    9        624.475513000000        -0.000411466965
   10        265.735250000000        -0.000547089526
   11        116.709586000000        -0.000325259270
   12         50.306071000000        -0.000038767839
   13         23.036081700000        -0.000000849906
   14         10.586238100000         0.000000789920
   15          4.798113940000        -0.000000544473
   16          2.133543170000         0.000000388631
   17          0.857316380000        -0.000000216728
   18   18535881.300000000745         0.000000281392
   19    2419299.990000000224         0.000000908948
   20     474949.065000000002         0.000002661695
   21     117392.346000000005         0.000007133514
   22      34065.440100000000         0.000018652337
   23      11133.885300000000         0.000048952662
   24       3988.280760000000         0.000129374061
   25       1534.678610000000         0.000329772546
   26        624.475513000000         0.000747619884
   27        265.735250000000         0.001293788004
   28        116.709586000000         0.001035085822
   29         50.306071000000        -0.001743169734
   30         23.036081700000        -0.004109739959
   31         10.586238100000        -0.001592081070
   32          4.798113940000        -0.000065147413
   33          2.133543170000        -0.000017826739
   34          0.857316380000         0.000005845226
   35          0.378404470000        -0.000002706877
   36          0.152386050000         0.000001258588
   37   18535881.300000000745         0.000003516577
   38    2419299.990000000224         0.000011359739
   39     474949.065000000002         0.000033277055
   40     117392.346000000005         0.000089224556
   41      34065.440100000000         0.000233525805
   42      11133.885300000000         0.000613886833
   43       3988.280760000000         0.001628253516
   44       1534.678610000000         0.004182129672
   45        624.475513000000         0.009647158735
   46        265.735250000000         0.017344543317
   47        116.709586000000         0.014839385381
   48         50.306071000000        -0.030959559815
   49         23.036081700000        -0.104606345441
   50         10.586238100000        -0.042086575663
   51          4.798113940000         0.136662380967
   52          2.133543170000         0.116315234133
   53          0.857316380000         0.006333596078
   54          0.378404470000         0.001175107388
   55          0.152386050000        -0.000485972087
   56          0.060954420000         0.000162076338
   57   18535881.300000000745        -0.000004670971
   58    2419299.990000000224        -0.000015087720
   59     474949.065000000002        -0.000044188353
   60     117392.346000000005        -0.000118479414
   61      34065.440100000000        -0.000310158920
   62      11133.885300000000        -0.000815520777
   63       3988.280760000000        -0.002164332260
   64       1534.678610000000        -0.005565582820
   65        624.475513000000        -0.012873971078
   66        265.735250000000        -0.023284554632
   67        116.709586000000        -0.020154672924
   68         50.306071000000         0.043501970491
   69         23.036081700000         0.155918949877
   70         10.586238100000         0.064824240630
   71          4.798113940000        -0.269572386930
   72          2.133543170000        -0.420332484015
   73          0.857316380000         0.172199068760
   74          0.378404470000         0.631010120543
   75          0.152386050000         0.238500265480
   76          0.060954420000        -0.000739338699
   77   18535881.300000000745        -0.000003682029
   78    2419299.990000000224        -0.000011901340
   79     474949.065000000002        -0.000034787679
   80     117392.346000000005        -0.000093755683
   81      34065.440100000000        -0.000243002823
   82      11133.885300000000        -0.000650091976
   83       3988.280760000000        -0.001680915773
   84       1534.678610000000        -0.004486311062
   85        624.475513000000        -0.009873514163
   86        265.735250000000        -0.019347553143
   87        116.709586000000        -0.013563995976
   88         50.306071000000         0.028771554289
   89         23.036081700000         0.145513385070
   90         10.586238100000         0.008114792613
   91          4.798113940000        -0.165310862194
   92          2.133543170000        -0.605753524122
   93          0.857316380000         1.016080635549
   94          0.378404470000         0.208452088221
   95          0.152386050000        -0.749034316586
   96          0.060954420000        -0.017267206615
 S 94
    1   18535881.300000000745        -0.000000070130
    2    2419299.990000000224        -0.000000226290
    3     474949.065000000002        -0.000000661369
    4     117392.346000000005        -0.000001766098
    5      34065.440100000000        -0.000004585658
    6      11133.885300000000        -0.000011880760
    7       3988.280760000000        -0.000030559398
    8       1534.678610000000        -0.000073589100
    9        624.475513000000        -0.000146880932
   10        265.735250000000        -0.000195293976
   11        116.709586000000        -0.000116107461
   12         50.306071000000        -0.000013838915
   13         23.036081700000        -0.000000303390
   14         10.586238100000         0.000000281977
   15          4.798113940000        -0.000000194360
   16          2.133543170000         0.000000138729
   17   18535881.300000000745         0.000000086393
   18    2419299.990000000224         0.000000279067
   19     474949.065000000002         0.000000817197
   20     117392.346000000005         0.000002190141
   21      34065.440100000000         0.000005726666
   22      11133.885300000000         0.000015029513
   23       3988.280760000000         0.000039720601
   24       1534.678610000000         0.000101247218
   25        624.475513000000         0.000229535278
   26        265.735250000000         0.000397220560
   27        116.709586000000         0.000317793463
   28         50.306071000000        -0.000535190352
   29         23.036081700000        -0.001261777975
   30         10.586238100000        -0.000488802904
   31          4.798113940000        -0.000020001648
   32          2.133543170000        -0.000005473190
   33          0.857316380000         0.000001794609
   34          0.378404470000        -0.000000831069
   35   18535881.300000000745         0.000000412230
   36    2419299.990000000224         0.000001331642
   37     474949.065000000002         0.000003900893
   38     117392.346000000005         0.000010459324
   39      34065.440100000000         0.000027374997
   40      11133.885300000000         0.000071962713
   41       3988.280760000000         0.000190871564
   42       1534.678610000000         0.000490248983
   43        624.475513000000         0.001130885488
   44        265.735250000000         0.002033209246
   45        116.709586000000         0.001739542807
   46         50.306071000000        -0.003629225752
   47         23.036081700000        -0.012262449628
   48         10.586238100000        -0.004933587077
   49          4.798113940000         0.016020209440
   50          2.133543170000         0.013635020835
   51          0.857316380000         0.000742454031
   52          0.378404470000         0.000137751635
   53          0.152386050000        -0.000056967942
   54          0.060954420000         0.000018999353
   55   18535881.300000000745         0.000003294686
   56    2419299.990000000224         0.000010642178
   57     474949.065000000002         0.000031168413
   58     117392.346000000005         0.000083569880
   59      34065.440100000000         0.000218771707
   60      11133.885300000000         0.000575230506
   61       3988.280760000000         0.001526619526
   62       1534.678610000000         0.003925703812
   63        624.475513000000         0.009080701692
   64        265.735250000000         0.016423844156
   65        116.709586000000         0.014216170863
   66         50.306071000000        -0.030684270974
   67         23.036081700000        -0.109977990743
   68         10.586238100000        -0.045724010722
   69          4.798113940000         0.190143850365
   70          2.133543170000         0.296483025781
   71          0.857316380000        -0.121461231011
   72          0.378404470000        -0.445085252631
   73          0.152386050000        -0.168227018011
   74          0.060954420000         0.000521495204
   75   18535881.300000000745        -0.000005445287
   76    2419299.990000000224        -0.000017600678
   77     474949.065000000002        -0.000051446871
   78     117392.346000000005        -0.000138653587
   79      34065.440100000000        -0.000359372490
   80      11133.885300000000        -0.000961409290
   81       3988.280760000000        -0.002485875999
   82       1534.678610000000        -0.006634724458
   83        624.475513000000        -0.014601761891
   84        265.735250000000        -0.028612747145
   85        116.709586000000        -0.020059548838
   86         50.306071000000         0.042549732350
   87         23.036081700000         0.215197118858
   88         10.586238100000         0.012000820334
   89          4.798113940000        -0.244475250459
   90          2.133543170000        -0.895837953787
   91          0.857316380000         1.502663313023
   92          0.378404470000         0.308276030989
   93          0.152386050000        -1.107733331736
   94          0.060954420000        -0.025536160213
 P 68
    1     178109.355000000010         0.000044883838
    2      27138.037499999999         0.000233274298
    3       6512.317450000000         0.001114626936
    4       2033.629170000000         0.004944322186
    5        749.824546000000         0.019491003454
    6        308.463093000000         0.064745060488
    7        137.031449000000         0.169434363173
    8         64.114040700000         0.319764435895
    9         31.107038200000         0.372697787481
   10         15.366235600000         0.201047243689
   11          7.391254080000         0.033581915827
   12          3.530697220000         0.001269302165
   13          1.678108190000         0.000449307059
   14          0.683391650000        -0.000070810960
   15          0.276466560000         0.000014997843
   16          0.105540690000        -0.000015496442
   17          0.042216280000         0.000003829237
   18     178109.355000000010         0.000001314716
   19      27138.037499999999         0.000006838810
   20       6512.317450000000         0.000032779246
   21       2033.629170000000         0.000145923444
   22        749.824546000000         0.000581788548
   23        308.463093000000         0.001971589699
   24        137.031449000000         0.005373274192
   25         64.114040700000         0.010674025257
   26         31.107038200000         0.012985091160
   27         15.366235600000        -0.000290275521
   28          7.391254080000        -0.026980119969
   29          3.530697220000        -0.036163295406
   30          1.678108190000        -0.015276677249
   31          0.683391650000        -0.001183645993
   32          0.276466560000        -0.000010410490
   33          0.105540690000        -0.000033302559
   34          0.042216280000         0.000005227407
   35     178109.355000000010         0.000000077510
   36      27138.037499999999         0.000000402262
   37       6512.317450000000         0.000001936076
   38       2033.629170000000         0.000008578104
   39        749.824546000000         0.000034465009
   40        308.463093000000         0.000116299724
   41        137.031449000000         0.000321299163
   42         64.114040700000         0.000636164862
   43         31.107038200000         0.000794937372
   44         15.366235600000        -0.000136771106
   45          7.391254080000        -0.001958452755
   46          3.530697220000        -0.003165039615
   47          1.678108190000        -0.000554492447
   48          0.683391650000         0.006174571839
   49          0.276466560000         0.008315338996
   50          0.105540690000         0.003063052051
   51          0.042216280000         0.000016622740
   52     178109.355000000010         0.000000094602
   53      27138.037499999999         0.000000487442
   54       6512.317450000000         0.000002378524
   55       2033.629170000000         0.000010339541
   56        749.824546000000         0.000042509906
   57        308.463093000000         0.000139950828
   58        137.031449000000         0.000398999912
   59         64.114040700000         0.000759006715
   60         31.107038200000         0.001019413260
   61         15.366235600000        -0.000292830412
   62          7.391254080000        -0.002393522611
   63          3.530697220000        -0.004323722218
   64          1.678108190000        -0.000442758727
   65          0.683391650000         0.017167377753
   66          0.276466560000        -0.003554588577
   67          0.105540690000        -0.013040204945
   68          0.042216280000        -0.000580718259
 P 66
    1     178109.355000000010        -0.000003347221
    2      27138.037499999999        -0.000017396476
    3       6512.317450000000        -0.000083123518
    4       2033.629170000000        -0.000368723777
    5        749.824546000000        -0.001453545327
    6        308.463093000000        -0.004828375325
    7        137.031449000000        -0.012635600187
    8         64.114040700000        -0.023846494243
    9         31.107038200000        -0.027794009107
   10         15.366235600000        -0.014993136825
   11          7.391254080000        -0.002504377825
   12          3.530697220000        -0.000094658453
   13          1.678108190000        -0.000033507160
   14          0.683391650000         0.000005280741
   15          0.276466560000        -0.000001118467
   16     178109.355000000010         0.000018009400
   17      27138.037499999999         0.000093680218
   18       6512.317450000000         0.000449020665
   19       2033.629170000000         0.001998906308
   20        749.824546000000         0.007969526781
   21        308.463093000000         0.027007470255
   22        137.031449000000         0.073604839289
   23         64.114040700000         0.146216233454
   24         31.107038200000         0.177873958011
   25         15.366235600000        -0.003976287515
   26          7.391254080000        -0.369582366999
   27          3.530697220000        -0.495376459776
   28          1.678108190000        -0.209264841822
   29          0.683391650000        -0.016213963774
   30          0.276466560000        -0.000142606245
   31          0.105540690000        -0.000456189171
   32          0.042216280000         0.000071606707
   33     178109.355000000010         0.000000703851
   34      27138.037499999999         0.000003652861
   35       6512.317450000000         0.000017581116
   36       2033.629170000000         0.000077896024
   37        749.824546000000         0.000312969760
   38        308.463093000000         0.001056094221
   39        137.031449000000         0.002917652588
   40         64.114040700000         0.005776884190
   41         31.107038200000         0.007218665176
   42         15.366235600000        -0.001241990694
   43          7.391254080000        -0.017784312580
   44          3.530697220000        -0.028741083341
   45          1.678108190000        -0.005035233545
   46          0.683391650000         0.056070035580
   47          0.276466560000         0.075509908299
   48          0.105540690000         0.027814954945
   49          0.042216280000         0.000150947737
   50     178109.355000000010         0.000000756976
   51      27138.037499999999         0.000003900349
   52       6512.317450000000         0.000019032162
   53       2033.629170000000         0.000082733583
   54        749.824546000000         0.000340150188
   55        308.463093000000         0.001119840175
   56        137.031449000000         0.003192665144
   57         64.114040700000         0.006073320347
   58         31.107038200000         0.008157007274
   59         15.366235600000        -0.002343131970
   60          7.391254080000        -0.019152175194
   61          3.530697220000        -0.034596993165
   62          1.678108190000        -0.003542808693
   63          0.683391650000         0.137367670926
   64          0.276466560000        -0.028442640506
   65          0.105540690000        -0.104343401034
   66          0.042216280000        -0.004646715173
 P 65
    1     178109.355000000010        -0.000000355499
    2      27138.037499999999        -0.000001847633
    3       6512.317450000000        -0.000008828327
    4       2033.629170000000        -0.000039161169
    5        749.824546000000        -0.000154377173
    6        308.463093000000        -0.000512808867
    7        137.031449000000        -0.001341993400
    8         64.114040700000        -0.002532672561
    9         31.107038200000        -0.002951927588
   10         15.366235600000        -0.001592381079
   11          7.391254080000        -0.000265983290
   12          3.530697220000        -0.000010053422
   13          1.678108190000        -0.000003558706
   14          0.683391650000         0.000000560853
   15     178109.355000000010        -0.000003458308
   16      27138.037499999999        -0.000017989219
   17       6512.317450000000        -0.000086224512
   18       2033.629170000000        -0.000383845853
   19        749.824546000000        -0.001530371782
   20        308.463093000000        -0.005186188779
   21        137.031449000000        -0.014134185395
   22         64.114040700000        -0.028077601572
   23         31.107038200000        -0.034156769089
   24         15.366235600000         0.000763558286
   25          7.391254080000         0.070970139250
   26          3.530697220000         0.095126119292
   27          1.678108190000         0.040184695728
   28          0.683391650000         0.003113534004
   29          0.276466560000         0.000027384383
   30          0.105540690000         0.000087601065
   31          0.042216280000        -0.000013750488
   32     178109.355000000010         0.000004051297
   33      27138.037499999999         0.000021025519
   34       6512.317450000000         0.000101195218
   35       2033.629170000000         0.000448362047
   36        749.824546000000         0.001801423931
   37        308.463093000000         0.006078777086
   38        137.031449000000         0.016793728573
   39         64.114040700000         0.033251191556
   40         31.107038200000         0.041549944684
   41         15.366235600000        -0.007148779360
   42          7.391254080000        -0.102364798189
   43          3.530697220000        -0.165430920241
   44          1.678108190000        -0.028982321548
   45          0.683391650000         0.322733749235
   46          0.276466560000         0.434627792861
   47          0.105540690000         0.160100213978
   48          0.042216280000         0.000868840704
   49     178109.355000000010         0.000003420036
   50      27138.037499999999         0.000017621879
   51       6512.317450000000         0.000085987813
   52       2033.629170000000         0.000373792513
   53        749.824546000000         0.001536807537
   54        308.463093000000         0.005059467502
   55        137.031449000000         0.014424545484
   56         64.114040700000         0.027439421809
   57         31.107038200000         0.036853574405
   58         15.366235600000        -0.010586332156
   59          7.391254080000        -0.086530033604
   60          3.530697220000        -0.156310129311
   61          1.678108190000        -0.016006503289
   62          0.683391650000         0.620630767045
   63          0.276466560000        -0.128504601374
   64          0.105540690000        -0.471426243041
   65          0.042216280000        -0.020993981938
 P 64
    1     178109.355000000010        -0.000000104604
    2      27138.037499999999        -0.000000543657
    3       6512.317450000000        -0.000002597694
    4       2033.629170000000        -0.000011522991
    5        749.824546000000        -0.000045424763
    6        308.463093000000        -0.000150891617
    7        137.031449000000        -0.000394875299
    8         64.114040700000        -0.000745227088
    9         31.107038200000        -0.000868590924
   10         15.366235600000        -0.000468550705
   11          7.391254080000        -0.000078264343
   12          3.530697220000        -0.000002958172
   13          1.678108190000        -0.000001047133
   14          0.683391650000         0.000000165029
   15     178109.355000000010        -0.000000406494
   16      27138.037499999999        -0.000002114475
   17       6512.317450000000        -0.000010134937
   18       2033.629170000000        -0.000045117721
   19        749.824546000000        -0.000179881809
   20        308.463093000000        -0.000609591101
   21        137.031449000000        -0.001661349789
   22         64.114040700000        -0.003300276326
   23         31.107038200000        -0.004014829262
   24         15.366235600000         0.000089749594
   25          7.391254080000         0.008341918729
   26          3.530697220000         0.011181242766
   27          1.678108190000         0.004723359281
   28          0.683391650000         0.000365968672
   29          0.276466560000         0.000003218795
   30          0.105540690000         0.000010296738
   31     178109.355000000010        -0.000003032767
   32      27138.037499999999        -0.000015739528
   33       6512.317450000000        -0.000075753899
   34       2033.629170000000        -0.000335640100
   35        749.824546000000        -0.001348530975
   36        308.463093000000        -0.004550521978
   37        137.031449000000        -0.012571645561
   38         64.114040700000        -0.024891565498
   39         31.107038200000        -0.031103943081
   40         15.366235600000         0.005351516783
   41          7.391254080000         0.076629436708
   42          3.530697220000         0.123840211248
   43          1.678108190000         0.021695924908
   44          0.683391650000        -0.241595800979
   45          0.276466560000        -0.325358751580
   46          0.105540690000        -0.119849688868
   47          0.042216280000        -0.000650406926
   48     178109.355000000010         0.000004746725
   49      27138.037499999999         0.000024457699
   50       6512.317450000000         0.000119343919
   51       2033.629170000000         0.000518792859
   52        749.824546000000         0.002132960796
   53        308.463093000000         0.007022119278
   54        137.031449000000         0.020020067107
   55         64.114040700000         0.038083630891
   56         31.107038200000         0.051149690195
   57         15.366235600000        -0.014692946853
   58          7.391254080000        -0.120096475930
   59          3.530697220000        -0.216945433861
   60          1.678108190000        -0.022215692712
   61          0.683391650000         0.861383786309
   62          0.276466560000        -0.178353678173
   63          0.105540690000        -0.654300340490
   64          0.042216280000        -0.029137897461
 D 22
    1        624.475513000000         0.000644421824
    2        265.735250000000         0.002247028131
    3        116.709586000000         0.013437104872
    4         50.306071000000         0.051626277705
    5         23.036081700000         0.147560814393
    6         10.586238100000         0.299364109403
    7          4.798113940000         0.382432603644
    8          2.133543170000         0.288652060867
    9          0.857316380000         0.082788603406
   10          0.342926550000         0.000347122171
   11          0.137170620000         0.001642113585
   12        624.475513000000         0.000032929023
   13        265.735250000000         0.000128665238
   14        116.709586000000         0.000698195331
   15         50.306071000000         0.002852834009
   16         23.036081700000         0.007778310464
   17         10.586238100000         0.017298589038
   18          4.798113940000         0.020261570741
   19          2.133543170000         0.019018664992
   20          0.857316380000        -0.076046326927
   21          0.342926550000        -0.104875021230
   22          0.137170620000        -0.016421789344
 D 22
    1        624.475513000000        -0.000112045700
    2        265.735250000000        -0.000390691051
    3        116.709586000000        -0.002336311037
    4         50.306071000000        -0.008976267102
    5         23.036081700000        -0.025656416511
    6         10.586238100000        -0.052050473636
    7          4.798113940000        -0.066493602701
    8          2.133543170000        -0.050187968471
    9          0.857316380000        -0.014394464412
   10          0.342926550000        -0.000060354174
   11          0.137170620000        -0.000285514486
   12        624.475513000000         0.000189388628
   13        265.735250000000         0.000740007765
   14        116.709586000000         0.004015614291
   15         50.306071000000         0.016407845352
   16         23.036081700000         0.044736327037
   17         10.586238100000         0.099491443554
   18          4.798113940000         0.116532794509
   19          2.133543170000         0.109384322058
   20          0.857316380000        -0.437374333026
   21          0.342926550000        -0.603180249659
   22          0.137170620000        -0.094448600632
 F 4
    1          1.688892000000         0.101187760149
    2          0.675557000000         0.759109881121
    3          0.270223000000         0.250714540370
    4          0.108089000000         0.004406980007
 end
  // -----------------------------------------------
  // The basis set
  // -----------------------------------------------
  BAS[ATNO] = new BFNGauss[NSH];
  // Basis function   1 L = s
  InitBFNGauss(BAS[ATNO][  0]);
  BAS[ATNO][  0].l  = 0;
  BAS[ATNO][  0].ng = 99;
  BAS[ATNO][  0].a[  0] =  18535881.300000000745;     BAS[ATNO][  0].d[  0] =         0.000137341853;
  BAS[ATNO][  0].a[  1] =   2419299.990000000224;     BAS[ATNO][  0].d[  1] =         0.000443161444;
  BAS[ATNO][  0].a[  2] =    474949.065000000002;     BAS[ATNO][  0].d[  2] =         0.001295208860;
  BAS[ATNO][  0].a[  3] =    117392.346000000005;     BAS[ATNO][  0].d[  3] =         0.003458682994;
  BAS[ATNO][  0].a[  4] =     34065.440100000000;     BAS[ATNO][  0].d[  4] =         0.008980443387;
  BAS[ATNO][  0].a[  5] =     11133.885300000000;     BAS[ATNO][  0].d[  5] =         0.023266995661;
  BAS[ATNO][  0].a[  6] =      3988.280760000000;     BAS[ATNO][  0].d[  6] =         0.059846792260;
  BAS[ATNO][  0].a[  7] =      1534.678610000000;     BAS[ATNO][  0].d[  7] =         0.144115127628;
  BAS[ATNO][  0].a[  8] =       624.475513000000;     BAS[ATNO][  0].d[  8] =         0.287648092178;
  BAS[ATNO][  0].a[  9] =       265.735250000000;     BAS[ATNO][  0].d[  9] =         0.382459034519;
  BAS[ATNO][  0].a[ 10] =       116.709586000000;     BAS[ATNO][  0].d[ 10] =         0.227382065313;
  BAS[ATNO][  0].a[ 11] =        50.306071000000;     BAS[ATNO][  0].d[ 11] =         0.027101798956;
  BAS[ATNO][  0].a[ 12] =        23.036081700000;     BAS[ATNO][  0].d[ 12] =         0.000594151493;
  BAS[ATNO][  0].a[ 13] =        10.586238100000;     BAS[ATNO][  0].d[ 13] =        -0.000552217034;
  BAS[ATNO][  0].a[ 14] =         4.798113940000;     BAS[ATNO][  0].d[ 14] =         0.000380629706;
  BAS[ATNO][  0].a[ 15] =         2.133543170000;     BAS[ATNO][  0].d[ 15] =        -0.000271684102;
  BAS[ATNO][  0].a[ 16] =         0.857316380000;     BAS[ATNO][  0].d[ 16] =         0.000151509981;
  BAS[ATNO][  0].a[ 17] =         0.378404470000;     BAS[ATNO][  0].d[ 17] =        -0.000084018898;
  BAS[ATNO][  0].a[ 18] =         0.152386050000;     BAS[ATNO][  0].d[ 18] =         0.000035795270;
  BAS[ATNO][  0].a[ 19] =         0.060954420000;     BAS[ATNO][  0].d[ 19] =        -0.000009808704;
  BAS[ATNO][  0].a[ 20] =  18535881.300000000745;     BAS[ATNO][  0].d[ 20] =        -0.000000663709;
  BAS[ATNO][  0].a[ 21] =   2419299.990000000224;     BAS[ATNO][  0].d[ 21] =        -0.000002143900;
  BAS[ATNO][  0].a[ 22] =    474949.065000000002;     BAS[ATNO][  0].d[ 22] =        -0.000006278033;
  BAS[ATNO][  0].a[ 23] =    117392.346000000005;     BAS[ATNO][  0].d[ 23] =        -0.000016825534;
  BAS[ATNO][  0].a[ 24] =     34065.440100000000;     BAS[ATNO][  0].d[ 24] =        -0.000043994523;
  BAS[ATNO][  0].a[ 25] =     11133.885300000000;     BAS[ATNO][  0].d[ 25] =        -0.000115462689;
  BAS[ATNO][  0].a[ 26] =      3988.280760000000;     BAS[ATNO][  0].d[ 26] =        -0.000305149433;
  BAS[ATNO][  0].a[ 27] =      1534.678610000000;     BAS[ATNO][  0].d[ 27] =        -0.000777821341;
  BAS[ATNO][  0].a[ 28] =       624.475513000000;     BAS[ATNO][  0].d[ 28] =        -0.001763381175;
  BAS[ATNO][  0].a[ 29] =       265.735250000000;     BAS[ATNO][  0].d[ 29] =        -0.003051606118;
  BAS[ATNO][  0].a[ 30] =       116.709586000000;     BAS[ATNO][  0].d[ 30] =        -0.002441415609;
  BAS[ATNO][  0].a[ 31] =        50.306071000000;     BAS[ATNO][  0].d[ 31] =         0.004111544868;
  BAS[ATNO][  0].a[ 32] =        23.036081700000;     BAS[ATNO][  0].d[ 32] =         0.009693479587;
  BAS[ATNO][  0].a[ 33] =        10.586238100000;     BAS[ATNO][  0].d[ 33] =         0.003755178065;
  BAS[ATNO][  0].a[ 34] =         4.798113940000;     BAS[ATNO][  0].d[ 34] =         0.000153660603;
  BAS[ATNO][  0].a[ 35] =         2.133543170000;     BAS[ATNO][  0].d[ 35] =         0.000042047217;
  BAS[ATNO][  0].a[ 36] =         0.857316380000;     BAS[ATNO][  0].d[ 36] =        -0.000013786901;
  BAS[ATNO][  0].a[ 37] =         0.378404470000;     BAS[ATNO][  0].d[ 37] =         0.000006384602;
  BAS[ATNO][  0].a[ 38] =         0.152386050000;     BAS[ATNO][  0].d[ 38] =        -0.000002968581;
  BAS[ATNO][  0].a[ 39] =  18535881.300000000745;     BAS[ATNO][  0].d[ 39] =        -0.000000104797;
  BAS[ATNO][  0].a[ 40] =   2419299.990000000224;     BAS[ATNO][  0].d[ 40] =        -0.000000338530;
  BAS[ATNO][  0].a[ 41] =    474949.065000000002;     BAS[ATNO][  0].d[ 41] =        -0.000000991684;
  BAS[ATNO][  0].a[ 42] =    117392.346000000005;     BAS[ATNO][  0].d[ 42] =        -0.000002658967;
  BAS[ATNO][  0].a[ 43] =     34065.440100000000;     BAS[ATNO][  0].d[ 43] =        -0.000006959265;
  BAS[ATNO][  0].a[ 44] =     11133.885300000000;     BAS[ATNO][  0].d[ 44] =        -0.000018294343;
  BAS[ATNO][  0].a[ 45] =      3988.280760000000;     BAS[ATNO][  0].d[ 45] =        -0.000048523322;
  BAS[ATNO][  0].a[ 46] =      1534.678610000000;     BAS[ATNO][  0].d[ 46] =        -0.000124630977;
  BAS[ATNO][  0].a[ 47] =       624.475513000000;     BAS[ATNO][  0].d[ 47] =        -0.000287493433;
  BAS[ATNO][  0].a[ 48] =       265.735250000000;     BAS[ATNO][  0].d[ 48] =        -0.000516881958;
  BAS[ATNO][  0].a[ 49] =       116.709586000000;     BAS[ATNO][  0].d[ 49] =        -0.000442226147;
  BAS[ATNO][  0].a[ 50] =        50.306071000000;     BAS[ATNO][  0].d[ 50] =         0.000922620884;
  BAS[ATNO][  0].a[ 51] =        23.036081700000;     BAS[ATNO][  0].d[ 51] =         0.003117356949;
  BAS[ATNO][  0].a[ 52] =        10.586238100000;     BAS[ATNO][  0].d[ 52] =         0.001254215302;
  BAS[ATNO][  0].a[ 53] =         4.798113940000;     BAS[ATNO][  0].d[ 53] =        -0.004072653730;
  BAS[ATNO][  0].a[ 54] =         2.133543170000;     BAS[ATNO][  0].d[ 54] =        -0.003466291666;
  BAS[ATNO][  0].a[ 55] =         0.857316380000;     BAS[ATNO][  0].d[ 55] =        -0.000188746482;
  BAS[ATNO][  0].a[ 56] =         0.378404470000;     BAS[ATNO][  0].d[ 56] =        -0.000035019187;
  BAS[ATNO][  0].a[ 57] =         0.152386050000;     BAS[ATNO][  0].d[ 57] =         0.000014482376;
  BAS[ATNO][  0].a[ 58] =         0.060954420000;     BAS[ATNO][  0].d[ 58] =        -0.000004830011;
  BAS[ATNO][  0].a[ 59] =  18535881.300000000745;     BAS[ATNO][  0].d[ 59] =        -0.000000010726;
  BAS[ATNO][  0].a[ 60] =   2419299.990000000224;     BAS[ATNO][  0].d[ 60] =        -0.000000034647;
  BAS[ATNO][  0].a[ 61] =    474949.065000000002;     BAS[ATNO][  0].d[ 61] =        -0.000000101473;
  BAS[ATNO][  0].a[ 62] =    117392.346000000005;     BAS[ATNO][  0].d[ 62] =        -0.000000272074;
  BAS[ATNO][  0].a[ 63] =     34065.440100000000;     BAS[ATNO][  0].d[ 63] =        -0.000000712242;
  BAS[ATNO][  0].a[ 64] =     11133.885300000000;     BAS[ATNO][  0].d[ 64] =        -0.000001872744;
  BAS[ATNO][  0].a[ 65] =      3988.280760000000;     BAS[ATNO][  0].d[ 65] =        -0.000004970125;
  BAS[ATNO][  0].a[ 66] =      1534.678610000000;     BAS[ATNO][  0].d[ 66] =        -0.000012780681;
  BAS[ATNO][  0].a[ 67] =       624.475513000000;     BAS[ATNO][  0].d[ 67] =        -0.000029563502;
  BAS[ATNO][  0].a[ 68] =       265.735250000000;     BAS[ATNO][  0].d[ 68] =        -0.000053470136;
  BAS[ATNO][  0].a[ 69] =       116.709586000000;     BAS[ATNO][  0].d[ 69] =        -0.000046282745;
  BAS[ATNO][  0].a[ 70] =        50.306071000000;     BAS[ATNO][  0].d[ 70] =         0.000099896962;
  BAS[ATNO][  0].a[ 71] =        23.036081700000;     BAS[ATNO][  0].d[ 71] =         0.000358048825;
  BAS[ATNO][  0].a[ 72] =        10.586238100000;     BAS[ATNO][  0].d[ 72] =         0.000148860951;
  BAS[ATNO][  0].a[ 73] =         4.798113940000;     BAS[ATNO][  0].d[ 73] =        -0.000619040061;
  BAS[ATNO][  0].a[ 74] =         2.133543170000;     BAS[ATNO][  0].d[ 74] =        -0.000965242211;
  BAS[ATNO][  0].a[ 75] =         0.857316380000;     BAS[ATNO][  0].d[ 75] =         0.000395434129;
  BAS[ATNO][  0].a[ 76] =         0.378404470000;     BAS[ATNO][  0].d[ 76] =         0.001449037671;
  BAS[ATNO][  0].a[ 77] =         0.152386050000;     BAS[ATNO][  0].d[ 77] =         0.000547686730;
  BAS[ATNO][  0].a[ 78] =         0.060954420000;     BAS[ATNO][  0].d[ 78] =        -0.000001697801;
  BAS[ATNO][  0].a[ 79] =  18535881.300000000745;     BAS[ATNO][  0].d[ 79] =        -0.000000013978;
  BAS[ATNO][  0].a[ 80] =   2419299.990000000224;     BAS[ATNO][  0].d[ 80] =        -0.000000045182;
  BAS[ATNO][  0].a[ 81] =    474949.065000000002;     BAS[ATNO][  0].d[ 81] =        -0.000000132067;
  BAS[ATNO][  0].a[ 82] =    117392.346000000005;     BAS[ATNO][  0].d[ 82] =        -0.000000355933;
  BAS[ATNO][  0].a[ 83] =     34065.440100000000;     BAS[ATNO][  0].d[ 83] =        -0.000000922532;
  BAS[ATNO][  0].a[ 84] =     11133.885300000000;     BAS[ATNO][  0].d[ 84] =        -0.000002467999;
  BAS[ATNO][  0].a[ 85] =      3988.280760000000;     BAS[ATNO][  0].d[ 85] =        -0.000006381401;
  BAS[ATNO][  0].a[ 86] =      1534.678610000000;     BAS[ATNO][  0].d[ 86] =        -0.000017031758;
  BAS[ATNO][  0].a[ 87] =       624.475513000000;     BAS[ATNO][  0].d[ 87] =        -0.000037483647;
  BAS[ATNO][  0].a[ 88] =       265.735250000000;     BAS[ATNO][  0].d[ 88] =        -0.000073450734;
  BAS[ATNO][  0].a[ 89] =       116.709586000000;     BAS[ATNO][  0].d[ 89] =        -0.000051494132;
  BAS[ATNO][  0].a[ 90] =        50.306071000000;     BAS[ATNO][  0].d[ 90] =         0.000109227857;
  BAS[ATNO][  0].a[ 91] =        23.036081700000;     BAS[ATNO][  0].d[ 91] =         0.000552424629;
  BAS[ATNO][  0].a[ 92] =        10.586238100000;     BAS[ATNO][  0].d[ 92] =         0.000030806866;
  BAS[ATNO][  0].a[ 93] =         4.798113940000;     BAS[ATNO][  0].d[ 93] =        -0.000627583447;
  BAS[ATNO][  0].a[ 94] =         2.133543170000;     BAS[ATNO][  0].d[ 94] =        -0.002299672747;
  BAS[ATNO][  0].a[ 95] =         0.857316380000;     BAS[ATNO][  0].d[ 95] =         0.003857431865;
  BAS[ATNO][  0].a[ 96] =         0.378404470000;     BAS[ATNO][  0].d[ 96] =         0.000791364090;
  BAS[ATNO][  0].a[ 97] =         0.152386050000;     BAS[ATNO][  0].d[ 97] =        -0.002843621598;
  BAS[ATNO][  0].a[ 98] =         0.060954420000;     BAS[ATNO][  0].d[ 98] =        -0.000065552940;

  // Basis function   2 L = s
  InitBFNGauss(BAS[ATNO][  1]);
  BAS[ATNO][  1].l  = 0;
  BAS[ATNO][  1].ng = 98;
  BAS[ATNO][  1].a[  0] =  18535881.300000000745;     BAS[ATNO][  1].d[  0] =        -0.000002093876;
  BAS[ATNO][  1].a[  1] =   2419299.990000000224;     BAS[ATNO][  1].d[  1] =        -0.000006756318;
  BAS[ATNO][  1].a[  2] =    474949.065000000002;     BAS[ATNO][  1].d[  2] =        -0.000019746401;
  BAS[ATNO][  1].a[  3] =    117392.346000000005;     BAS[ATNO][  1].d[  3] =        -0.000052730137;
  BAS[ATNO][  1].a[  4] =     34065.440100000000;     BAS[ATNO][  1].d[  4] =        -0.000136913390;
  BAS[ATNO][  1].a[  5] =     11133.885300000000;     BAS[ATNO][  1].d[  5] =        -0.000354722268;
  BAS[ATNO][  1].a[  6] =      3988.280760000000;     BAS[ATNO][  1].d[  6] =        -0.000912407866;
  BAS[ATNO][  1].a[  7] =      1534.678610000000;     BAS[ATNO][  1].d[  7] =        -0.002197139915;
  BAS[ATNO][  1].a[  8] =       624.475513000000;     BAS[ATNO][  1].d[  8] =        -0.004385404331;
  BAS[ATNO][  1].a[  9] =       265.735250000000;     BAS[ATNO][  1].d[  9] =        -0.005830866089;
  BAS[ATNO][  1].a[ 10] =       116.709586000000;     BAS[ATNO][  1].d[ 10] =        -0.003466604928;
  BAS[ATNO][  1].a[ 11] =        50.306071000000;     BAS[ATNO][  1].d[ 11] =        -0.000413186632;
  BAS[ATNO][  1].a[ 12] =        23.036081700000;     BAS[ATNO][  1].d[ 12] =        -0.000009058272;
  BAS[ATNO][  1].a[ 13] =        10.586238100000;     BAS[ATNO][  1].d[ 13] =         0.000008418950;
  BAS[ATNO][  1].a[ 14] =         4.798113940000;     BAS[ATNO][  1].d[ 14] =        -0.000005802977;
  BAS[ATNO][  1].a[ 15] =         2.133543170000;     BAS[ATNO][  1].d[ 15] =         0.000004142022;
  BAS[ATNO][  1].a[ 16] =         0.857316380000;     BAS[ATNO][  1].d[ 16] =        -0.000002309880;
  BAS[ATNO][  1].a[ 17] =         0.378404470000;     BAS[ATNO][  1].d[ 17] =         0.000001280929;
  BAS[ATNO][  1].a[ 18] =  18535881.300000000745;     BAS[ATNO][  1].d[ 18] =        -0.000044453932;
  BAS[ATNO][  1].a[ 19] =   2419299.990000000224;     BAS[ATNO][  1].d[ 19] =        -0.000143594287;
  BAS[ATNO][  1].a[ 20] =    474949.065000000002;     BAS[ATNO][  1].d[ 20] =        -0.000420490473;
  BAS[ATNO][  1].a[ 21] =    117392.346000000005;     BAS[ATNO][  1].d[ 21] =        -0.001126941620;
  BAS[ATNO][  1].a[ 22] =     34065.440100000000;     BAS[ATNO][  1].d[ 22] =        -0.002946667774;
[...]
  BAS[ATNO][  7].a[ 20] =       137.031449000000;     BAS[ATNO][  7].d[ 20] =        -0.014134185395;
  BAS[ATNO][  7].a[ 21] =        64.114040700000;     BAS[ATNO][  7].d[ 21] =        -0.028077601572;
  BAS[ATNO][  7].a[ 22] =        31.107038200000;     BAS[ATNO][  7].d[ 22] =        -0.034156769089;
  BAS[ATNO][  7].a[ 23] =        15.366235600000;     BAS[ATNO][  7].d[ 23] =         0.000763558286;
  BAS[ATNO][  7].a[ 24] =         7.391254080000;     BAS[ATNO][  7].d[ 24] =         0.070970139250;
  BAS[ATNO][  7].a[ 25] =         3.530697220000;     BAS[ATNO][  7].d[ 25] =         0.095126119292;
  BAS[ATNO][  7].a[ 26] =         1.678108190000;     BAS[ATNO][  7].d[ 26] =         0.040184695728;
  BAS[ATNO][  7].a[ 27] =         0.683391650000;     BAS[ATNO][  7].d[ 27] =         0.003113534004;
  BAS[ATNO][  7].a[ 28] =         0.276466560000;     BAS[ATNO][  7].d[ 28] =         0.000027384383;
  BAS[ATNO][  7].a[ 29] =         0.105540690000;     BAS[ATNO][  7].d[ 29] =         0.000087601065;
  BAS[ATNO][  7].a[ 30] =         0.042216280000;     BAS[ATNO][  7].d[ 30] =        -0.000013750488;
  BAS[ATNO][  7].a[ 31] =    178109.355000000010;     BAS[ATNO][  7].d[ 31] =         0.000004051297;
  BAS[ATNO][  7].a[ 32] =     27138.037499999999;     BAS[ATNO][  7].d[ 32] =         0.000021025519;
  BAS[ATNO][  7].a[ 33] =      6512.317450000000;     BAS[ATNO][  7].d[ 33] =         0.000101195218;
  BAS[ATNO][  7].a[ 34] =      2033.629170000000;     BAS[ATNO][  7].d[ 34] =         0.000448362047;
  BAS[ATNO][  7].a[ 35] =       749.824546000000;     BAS[ATNO][  7].d[ 35] =         0.001801423931;
  BAS[ATNO][  7].a[ 36] =       308.463093000000;     BAS[ATNO][  7].d[ 36] =         0.006078777086;
  BAS[ATNO][  7].a[ 37] =       137.031449000000;     BAS[ATNO][  7].d[ 37] =         0.016793728573;
  BAS[ATNO][  7].a[ 38] =        64.114040700000;     BAS[ATNO][  7].d[ 38] =         0.033251191556;
  BAS[ATNO][  7].a[ 39] =        31.107038200000;     BAS[ATNO][  7].d[ 39] =         0.041549944684;
  BAS[ATNO][  7].a[ 40] =        15.366235600000;     BAS[ATNO][  7].d[ 40] =        -0.007148779360;
  BAS[ATNO][  7].a[ 41] =         7.391254080000;     BAS[ATNO][  7].d[ 41] =        -0.102364798189;
  BAS[ATNO][  7].a[ 42] =         3.530697220000;     BAS[ATNO][  7].d[ 42] =        -0.165430920241;
  BAS[ATNO][  7].a[ 43] =         1.678108190000;     BAS[ATNO][  7].d[ 43] =        -0.028982321548;
  BAS[ATNO][  7].a[ 44] =         0.683391650000;     BAS[ATNO][  7].d[ 44] =         0.322733749235;
  BAS[ATNO][  7].a[ 45] =         0.276466560000;     BAS[ATNO][  7].d[ 45] =         0.434627792861;
  BAS[ATNO][  7].a[ 46] =         0.105540690000;     BAS[ATNO][  7].d[ 46] =         0.160100213978;
  BAS[ATNO][  7].a[ 47] =         0.042216280000;     BAS[ATNO][  7].d[ 47] =         0.000868840704;
  BAS[ATNO][  7].a[ 48] =    178109.355000000010;     BAS[ATNO][  7].d[ 48] =         0.000003420036;
  BAS[ATNO][  7].a[ 49] =     27138.037499999999;     BAS[ATNO][  7].d[ 49] =         0.000017621879;
  BAS[ATNO][  7].a[ 50] =      6512.317450000000;     BAS[ATNO][  7].d[ 50] =         0.000085987813;
  BAS[ATNO][  7].a[ 51] =      2033.629170000000;     BAS[ATNO][  7].d[ 51] =         0.000373792513;
  BAS[ATNO][  7].a[ 52] =       749.824546000000;     BAS[ATNO][  7].d[ 52] =         0.001536807537;
  BAS[ATNO][  7].a[ 53] =       308.463093000000;     BAS[ATNO][  7].d[ 53] =         0.005059467502;
  BAS[ATNO][  7].a[ 54] =       137.031449000000;     BAS[ATNO][  7].d[ 54] =         0.014424545484;
  BAS[ATNO][  7].a[ 55] =        64.114040700000;     BAS[ATNO][  7].d[ 55] =         0.027439421809;
  BAS[ATNO][  7].a[ 56] =        31.107038200000;     BAS[ATNO][  7].d[ 56] =         0.036853574405;
  BAS[ATNO][  7].a[ 57] =        15.366235600000;     BAS[ATNO][  7].d[ 57] =        -0.010586332156;
  BAS[ATNO][  7].a[ 58] =         7.391254080000;     BAS[ATNO][  7].d[ 58] =        -0.086530033604;
  BAS[ATNO][  7].a[ 59] =         3.530697220000;     BAS[ATNO][  7].d[ 59] =        -0.156310129311;
  BAS[ATNO][  7].a[ 60] =         1.678108190000;     BAS[ATNO][  7].d[ 60] =        -0.016006503289;
  BAS[ATNO][  7].a[ 61] =         0.683391650000;     BAS[ATNO][  7].d[ 61] =         0.620630767045;
  BAS[ATNO][  7].a[ 62] =         0.276466560000;     BAS[ATNO][  7].d[ 62] =        -0.128504601374;
  BAS[ATNO][  7].a[ 63] =         0.105540690000;     BAS[ATNO][  7].d[ 63] =        -0.471426243041;
  BAS[ATNO][  7].a[ 64] =         0.042216280000;     BAS[ATNO][  7].d[ 64] =        -0.020993981938;

  // Basis function   9 L = p
  InitBFNGauss(BAS[ATNO][  8]);
  BAS[ATNO][  8].l  = 1;
  BAS[ATNO][  8].ng = 64;
  BAS[ATNO][  8].a[  0] =    178109.355000000010;     BAS[ATNO][  8].d[  0] =        -0.000000104604;
  BAS[ATNO][  8].a[  1] =     27138.037499999999;     BAS[ATNO][  8].d[  1] =        -0.000000543657;
  BAS[ATNO][  8].a[  2] =      6512.317450000000;     BAS[ATNO][  8].d[  2] =        -0.000002597694;
  BAS[ATNO][  8].a[  3] =      2033.629170000000;     BAS[ATNO][  8].d[  3] =        -0.000011522991;
  BAS[ATNO][  8].a[  4] =       749.824546000000;     BAS[ATNO][  8].d[  4] =        -0.000045424763;
  BAS[ATNO][  8].a[  5] =       308.463093000000;     BAS[ATNO][  8].d[  5] =        -0.000150891617;
  BAS[ATNO][  8].a[  6] =       137.031449000000;     BAS[ATNO][  8].d[  6] =        -0.000394875299;
  BAS[ATNO][  8].a[  7] =        64.114040700000;     BAS[ATNO][  8].d[  7] =        -0.000745227088;
  BAS[ATNO][  8].a[  8] =        31.107038200000;     BAS[ATNO][  8].d[  8] =        -0.000868590924;
  BAS[ATNO][  8].a[  9] =        15.366235600000;     BAS[ATNO][  8].d[  9] =        -0.000468550705;
  BAS[ATNO][  8].a[ 10] =         7.391254080000;     BAS[ATNO][  8].d[ 10] =        -0.000078264343;
  BAS[ATNO][  8].a[ 11] =         3.530697220000;     BAS[ATNO][  8].d[ 11] =        -0.000002958172;
  BAS[ATNO][  8].a[ 12] =         1.678108190000;     BAS[ATNO][  8].d[ 12] =        -0.000001047133;
  BAS[ATNO][  8].a[ 13] =         0.683391650000;     BAS[ATNO][  8].d[ 13] =         0.000000165029;
  BAS[ATNO][  8].a[ 14] =    178109.355000000010;     BAS[ATNO][  8].d[ 14] =        -0.000000406494;
  BAS[ATNO][  8].a[ 15] =     27138.037499999999;     BAS[ATNO][  8].d[ 15] =        -0.000002114475;
  BAS[ATNO][  8].a[ 16] =      6512.317450000000;     BAS[ATNO][  8].d[ 16] =        -0.000010134937;
  BAS[ATNO][  8].a[ 17] =      2033.629170000000;     BAS[ATNO][  8].d[ 17] =        -0.000045117721;
  BAS[ATNO][  8].a[ 18] =       749.824546000000;     BAS[ATNO][  8].d[ 18] =        -0.000179881809;
  BAS[ATNO][  8].a[ 19] =       308.463093000000;     BAS[ATNO][  8].d[ 19] =        -0.000609591101;
  BAS[ATNO][  8].a[ 20] =       137.031449000000;     BAS[ATNO][  8].d[ 20] =        -0.001661349789;
  BAS[ATNO][  8].a[ 21] =        64.114040700000;     BAS[ATNO][  8].d[ 21] =        -0.003300276326;
  BAS[ATNO][  8].a[ 22] =        31.107038200000;     BAS[ATNO][  8].d[ 22] =        -0.004014829262;
  BAS[ATNO][  8].a[ 23] =        15.366235600000;     BAS[ATNO][  8].d[ 23] =         0.000089749594;
  BAS[ATNO][  8].a[ 24] =         7.391254080000;     BAS[ATNO][  8].d[ 24] =         0.008341918729;
  BAS[ATNO][  8].a[ 25] =         3.530697220000;     BAS[ATNO][  8].d[ 25] =         0.011181242766;
  BAS[ATNO][  8].a[ 26] =         1.678108190000;     BAS[ATNO][  8].d[ 26] =         0.004723359281;
  BAS[ATNO][  8].a[ 27] =         0.683391650000;     BAS[ATNO][  8].d[ 27] =         0.000365968672;
  BAS[ATNO][  8].a[ 28] =         0.276466560000;     BAS[ATNO][  8].d[ 28] =         0.000003218795;
  BAS[ATNO][  8].a[ 29] =         0.105540690000;     BAS[ATNO][  8].d[ 29] =         0.000010296738;
  BAS[ATNO][  8].a[ 30] =    178109.355000000010;     BAS[ATNO][  8].d[ 30] =        -0.000003032767;
  BAS[ATNO][  8].a[ 31] =     27138.037499999999;     BAS[ATNO][  8].d[ 31] =        -0.000015739528;
  BAS[ATNO][  8].a[ 32] =      6512.317450000000;     BAS[ATNO][  8].d[ 32] =        -0.000075753899;
  BAS[ATNO][  8].a[ 33] =      2033.629170000000;     BAS[ATNO][  8].d[ 33] =        -0.000335640100;
  BAS[ATNO][  8].a[ 34] =       749.824546000000;     BAS[ATNO][  8].d[ 34] =        -0.001348530975;
  BAS[ATNO][  8].a[ 35] =       308.463093000000;     BAS[ATNO][  8].d[ 35] =        -0.004550521978;
  BAS[ATNO][  8].a[ 36] =       137.031449000000;     BAS[ATNO][  8].d[ 36] =        -0.012571645561;
  BAS[ATNO][  8].a[ 37] =        64.114040700000;     BAS[ATNO][  8].d[ 37] =        -0.024891565498;
  BAS[ATNO][  8].a[ 38] =        31.107038200000;     BAS[ATNO][  8].d[ 38] =        -0.031103943081;
  BAS[ATNO][  8].a[ 39] =        15.366235600000;     BAS[ATNO][  8].d[ 39] =         0.005351516783;
  BAS[ATNO][  8].a[ 40] =         7.391254080000;     BAS[ATNO][  8].d[ 40] =         0.076629436708;
  BAS[ATNO][  8].a[ 41] =         3.530697220000;     BAS[ATNO][  8].d[ 41] =         0.123840211248;
  BAS[ATNO][  8].a[ 42] =         1.678108190000;     BAS[ATNO][  8].d[ 42] =         0.021695924908;
  BAS[ATNO][  8].a[ 43] =         0.683391650000;     BAS[ATNO][  8].d[ 43] =        -0.241595800979;
  BAS[ATNO][  8].a[ 44] =         0.276466560000;     BAS[ATNO][  8].d[ 44] =        -0.325358751580;
  BAS[ATNO][  8].a[ 45] =         0.105540690000;     BAS[ATNO][  8].d[ 45] =        -0.119849688868;
  BAS[ATNO][  8].a[ 46] =         0.042216280000;     BAS[ATNO][  8].d[ 46] =        -0.000650406926;
  BAS[ATNO][  8].a[ 47] =    178109.355000000010;     BAS[ATNO][  8].d[ 47] =         0.000004746725;
  BAS[ATNO][  8].a[ 48] =     27138.037499999999;     BAS[ATNO][  8].d[ 48] =         0.000024457699;
  BAS[ATNO][  8].a[ 49] =      6512.317450000000;     BAS[ATNO][  8].d[ 49] =         0.000119343919;
  BAS[ATNO][  8].a[ 50] =      2033.629170000000;     BAS[ATNO][  8].d[ 50] =         0.000518792859;
  BAS[ATNO][  8].a[ 51] =       749.824546000000;     BAS[ATNO][  8].d[ 51] =         0.002132960796;
  BAS[ATNO][  8].a[ 52] =       308.463093000000;     BAS[ATNO][  8].d[ 52] =         0.007022119278;
  BAS[ATNO][  8].a[ 53] =       137.031449000000;     BAS[ATNO][  8].d[ 53] =         0.020020067107;
  BAS[ATNO][  8].a[ 54] =        64.114040700000;     BAS[ATNO][  8].d[ 54] =         0.038083630891;
  BAS[ATNO][  8].a[ 55] =        31.107038200000;     BAS[ATNO][  8].d[ 55] =         0.051149690195;
  BAS[ATNO][  8].a[ 56] =        15.366235600000;     BAS[ATNO][  8].d[ 56] =        -0.014692946853;
  BAS[ATNO][  8].a[ 57] =         7.391254080000;     BAS[ATNO][  8].d[ 57] =        -0.120096475930;
  BAS[ATNO][  8].a[ 58] =         3.530697220000;     BAS[ATNO][  8].d[ 58] =        -0.216945433861;
  BAS[ATNO][  8].a[ 59] =         1.678108190000;     BAS[ATNO][  8].d[ 59] =        -0.022215692712;
  BAS[ATNO][  8].a[ 60] =         0.683391650000;     BAS[ATNO][  8].d[ 60] =         0.861383786309;
  BAS[ATNO][  8].a[ 61] =         0.276466560000;     BAS[ATNO][  8].d[ 61] =        -0.178353678173;
  BAS[ATNO][  8].a[ 62] =         0.105540690000;     BAS[ATNO][  8].d[ 62] =        -0.654300340490;
  BAS[ATNO][  8].a[ 63] =         0.042216280000;     BAS[ATNO][  8].d[ 63] =        -0.029137897461;

  // Basis function  10 L = d
  InitBFNGauss(BAS[ATNO][  9]);
  BAS[ATNO][  9].l  = 2;
  BAS[ATNO][  9].ng = 22;
  BAS[ATNO][  9].a[  0] =       624.475513000000;     BAS[ATNO][  9].d[  0] =         0.000644421824;
  BAS[ATNO][  9].a[  1] =       265.735250000000;     BAS[ATNO][  9].d[  1] =         0.002247028131;
  BAS[ATNO][  9].a[  2] =       116.709586000000;     BAS[ATNO][  9].d[  2] =         0.013437104872;
  BAS[ATNO][  9].a[  3] =        50.306071000000;     BAS[ATNO][  9].d[  3] =         0.051626277705;
  BAS[ATNO][  9].a[  4] =        23.036081700000;     BAS[ATNO][  9].d[  4] =         0.147560814393;
  BAS[ATNO][  9].a[  5] =        10.586238100000;     BAS[ATNO][  9].d[  5] =         0.299364109403;
  BAS[ATNO][  9].a[  6] =         4.798113940000;     BAS[ATNO][  9].d[  6] =         0.382432603644;
  BAS[ATNO][  9].a[  7] =         2.133543170000;     BAS[ATNO][  9].d[  7] =         0.288652060867;
  BAS[ATNO][  9].a[  8] =         0.857316380000;     BAS[ATNO][  9].d[  8] =         0.082788603406;
  BAS[ATNO][  9].a[  9] =         0.342926550000;     BAS[ATNO][  9].d[  9] =         0.000347122171;
  BAS[ATNO][  9].a[ 10] =         0.137170620000;     BAS[ATNO][  9].d[ 10] =         0.001642113585;
  BAS[ATNO][  9].a[ 11] =       624.475513000000;     BAS[ATNO][  9].d[ 11] =         0.000032929023;
  BAS[ATNO][  9].a[ 12] =       265.735250000000;     BAS[ATNO][  9].d[ 12] =         0.000128665238;
  BAS[ATNO][  9].a[ 13] =       116.709586000000;     BAS[ATNO][  9].d[ 13] =         0.000698195331;
  BAS[ATNO][  9].a[ 14] =        50.306071000000;     BAS[ATNO][  9].d[ 14] =         0.002852834009;
  BAS[ATNO][  9].a[ 15] =        23.036081700000;     BAS[ATNO][  9].d[ 15] =         0.007778310464;
  BAS[ATNO][  9].a[ 16] =        10.586238100000;     BAS[ATNO][  9].d[ 16] =         0.017298589038;
  BAS[ATNO][  9].a[ 17] =         4.798113940000;     BAS[ATNO][  9].d[ 17] =         0.020261570741;
  BAS[ATNO][  9].a[ 18] =         2.133543170000;     BAS[ATNO][  9].d[ 18] =         0.019018664992;
  BAS[ATNO][  9].a[ 19] =         0.857316380000;     BAS[ATNO][  9].d[ 19] =        -0.076046326927;
  BAS[ATNO][  9].a[ 20] =         0.342926550000;     BAS[ATNO][  9].d[ 20] =        -0.104875021230;
  BAS[ATNO][  9].a[ 21] =         0.137170620000;     BAS[ATNO][  9].d[ 21] =        -0.016421789344;

  // Basis function  11 L = d
  InitBFNGauss(BAS[ATNO][ 10]);
  BAS[ATNO][ 10].l  = 2;
  BAS[ATNO][ 10].ng = 22;
  BAS[ATNO][ 10].a[  0] =       624.475513000000;     BAS[ATNO][ 10].d[  0] =         0.000112045700;
  BAS[ATNO][ 10].a[  1] =       265.735250000000;     BAS[ATNO][ 10].d[  1] =         0.000390691051;
  BAS[ATNO][ 10].a[  2] =       116.709586000000;     BAS[ATNO][ 10].d[  2] =         0.002336311037;
  BAS[ATNO][ 10].a[  3] =        50.306071000000;     BAS[ATNO][ 10].d[  3] =         0.008976267102;
  BAS[ATNO][ 10].a[  4] =        23.036081700000;     BAS[ATNO][ 10].d[  4] =         0.025656416511;
  BAS[ATNO][ 10].a[  5] =        10.586238100000;     BAS[ATNO][ 10].d[  5] =         0.052050473636;
  BAS[ATNO][ 10].a[  6] =         4.798113940000;     BAS[ATNO][ 10].d[  6] =         0.066493602701;
  BAS[ATNO][ 10].a[  7] =         2.133543170000;     BAS[ATNO][ 10].d[  7] =         0.050187968471;
  BAS[ATNO][ 10].a[  8] =         0.857316380000;     BAS[ATNO][ 10].d[  8] =         0.014394464412;
  BAS[ATNO][ 10].a[  9] =         0.342926550000;     BAS[ATNO][ 10].d[  9] =         0.000060354174;
  BAS[ATNO][ 10].a[ 10] =         0.137170620000;     BAS[ATNO][ 10].d[ 10] =         0.000285514486;
  BAS[ATNO][ 10].a[ 11] =       624.475513000000;     BAS[ATNO][ 10].d[ 11] =        -0.000189388628;
  BAS[ATNO][ 10].a[ 12] =       265.735250000000;     BAS[ATNO][ 10].d[ 12] =        -0.000740007765;
  BAS[ATNO][ 10].a[ 13] =       116.709586000000;     BAS[ATNO][ 10].d[ 13] =        -0.004015614291;
  BAS[ATNO][ 10].a[ 14] =        50.306071000000;     BAS[ATNO][ 10].d[ 14] =        -0.016407845352;
  BAS[ATNO][ 10].a[ 15] =        23.036081700000;     BAS[ATNO][ 10].d[ 15] =        -0.044736327037;
  BAS[ATNO][ 10].a[ 16] =        10.586238100000;     BAS[ATNO][ 10].d[ 16] =        -0.099491443554;
  BAS[ATNO][ 10].a[ 17] =         4.798113940000;     BAS[ATNO][ 10].d[ 17] =        -0.116532794509;
  BAS[ATNO][ 10].a[ 18] =         2.133543170000;     BAS[ATNO][ 10].d[ 18] =        -0.109384322058;
  BAS[ATNO][ 10].a[ 19] =         0.857316380000;     BAS[ATNO][ 10].d[ 19] =         0.437374333026;
  BAS[ATNO][ 10].a[ 20] =         0.342926550000;     BAS[ATNO][ 10].d[ 20] =         0.603180249659;
  BAS[ATNO][ 10].a[ 21] =         0.137170620000;     BAS[ATNO][ 10].d[ 21] =         0.094448600632;

  // Basis function  12 L = f
  InitBFNGauss(BAS[ATNO][ 11]);
  BAS[ATNO][ 11].l  = 3;
  BAS[ATNO][ 11].ng = 4;
  BAS[ATNO][ 11].a[  0] =         1.688892000000;     BAS[ATNO][ 11].d[  0] =         0.101187760149;
  BAS[ATNO][ 11].a[  1] =         0.675557000000;     BAS[ATNO][ 11].d[  1] =         0.759109881121;
  BAS[ATNO][ 11].a[  2] =         0.270223000000;     BAS[ATNO][ 11].d[  2] =         0.250714540370;
  BAS[ATNO][ 11].a[  3] =         0.108089000000;     BAS[ATNO][ 11].d[  3] =         0.004406980007;

-------
TIMINGS
-------

Total SCF time: 0 days 0 hours 0 min 15 sec 

Total time                  ....      15.961 sec
Sum of individual times     ....      15.604 sec  ( 97.8%)

Fock matrix formation       ....      14.855 sec  ( 93.1%)
  XC integration            ....       0.032 sec  (  0.2% of F)
    Basis function eval.    ....       0.014 sec  ( 45.1% of XC)
    Density eval.           ....       0.001 sec  (  3.4% of XC)
    XC-Functional eval.     ....       0.002 sec  (  5.5% of XC)
    XC-Potential eval.      ....       0.001 sec  (  3.2% of XC)
Diagonalization             ....       0.000 sec  (  0.0%)
Density matrix formation    ....       0.000 sec  (  0.0%)
Population analysis         ....       0.001 sec  (  0.0%)
Initial guess               ....       0.078 sec  (  0.5%)
Orbital Transformation      ....       0.000 sec  (  0.0%)
Orbital Orthonormalization  ....       0.000 sec  (  0.0%)
DIIS solution               ....       0.000 sec  (  0.0%)
SOSCF solution              ....       0.001 sec  (  0.0%)
Grid generation             ....       0.669 sec  (  4.2%)

-------------------------   --------------------
FINAL SINGLE POINT ENERGY     -1249.209578473185
-------------------------   --------------------


                            ***************************************
                            *     ORCA property calculations      *
                            ***************************************

                                    ---------------------
                                    Active property flags
                                    ---------------------
   (+) Dipole Moment


------------------------------------------------------------------------------
                       ORCA ELECTRIC PROPERTIES CALCULATION
------------------------------------------------------------------------------

Dipole Moment Calculation                       ... on
Quadrupole Moment Calculation                   ... off
Polarizability Calculation                      ... off
GBWName                                         ... Kr_ano-rcc-dzp_.gbw
Electron density file                           ... Kr_ano-rcc-dzp_.scfp
The origin for moment calculation is the CENTER OF MASS  = ( 0.000000,  0.000000  0.000000)

-------------
DIPOLE MOMENT
-------------
                                X             Y             Z
Electronic contribution:      0.00000       0.00000      -0.00000
Nuclear contribution   :      0.00000       0.00000       0.00000
                        -----------------------------------------
Total Dipole Moment    :      0.00000       0.00000      -0.00000
                        -----------------------------------------
Magnitude (a.u.)       :      0.00000
Magnitude (Debye)      :      0.00000



--------------------
Rotational spectrum 
--------------------
 
Rotational constants in cm-1:     0.000000     0.000000     0.000000 
Rotational constants in MHz :     0.000000     0.000000     0.000000 

 Dipole components along the rotational axes: 
x,y,z [a.u.] :     0.000000     0.000000    -0.000000 
x,y,z [Debye]:     0.000000     0.000000    -0.000000 

 

Timings for individual modules:

Sum of individual times         ...       17.022 sec (=   0.284 min)
GTO integral calculation        ...        0.750 sec (=   0.012 min)   4.4 %
SCF iterations                  ...       16.272 sec (=   0.271 min)  95.6 %
                             ****ORCA TERMINATED NORMALLY****
TOTAL RUN TIME: 0 days 0 hours 0 minutes 17 seconds 413 msec
