
                                 *****************
                                 * O   R   C   A *
                                 *****************

           --- An Ab Initio, DFT and Semiempirical electronic structure package ---

                  #######################################################
                  #                        -***-                        #
                  #          Department of theory and spectroscopy      #
                  #               Directorship: Frank Neese             #
                  #        Max Planck Institute fuer Kohlenforschung    #
                  #                Kaiser Wilhelm Platz 1               #
                  #                 D-45470 Muelheim/Ruhr               #
                  #                      Germany                        #
                  #                                                     #
                  #                  All rights reserved                #
                  #                        -***-                        #
                  #######################################################


                         Program Version 4.2.1 -  RELEASE  -


 With contributions from (in alphabetic order):
   Daniel Aravena         : Magnetic Suceptibility
   Michael Atanasov       : Ab Initio Ligand Field Theory (pilot matlab implementation)
   Alexander A. Auer      : GIAO ZORA, VPT2
   Ute Becker             : Parallelization
   Giovanni Bistoni       : ED, misc. LED, open-shell LED, HFLD
   Martin Brehm           : Molecular dynamics
   Dmytro Bykov           : SCF Hessian
   Vijay G. Chilkuri      : MRCI spin determinant printing, contributions to CSF-ICE
   Dipayan Datta          : RHF DLPNO-CCSD density
   Achintya Kumar Dutta   : EOM-CC, STEOM-CC
   Dmitry Ganyushin       : Spin-Orbit,Spin-Spin,Magnetic field MRCI
   Miquel Garcia          : C-PCM Hessian, Gaussian charge scheme
   Yang Guo               : DLPNO-NEVPT2, CIM, IAO-localization
   Andreas Hansen         : Spin unrestricted coupled pair/coupled cluster methods
   Benjamin Helmich-Paris : CASSCF linear response (MC-RPA)
   Lee Huntington         : MR-EOM, pCC
   Robert Izsak           : Overlap fitted RIJCOSX, COSX-SCS-MP3, EOM
   Christian Kollmar      : KDIIS, OOCD, Brueckner-CCSD(T), CCSD density
   Simone Kossmann        : Meta GGA functionals, TD-DFT gradient, OOMP2, MP2 Hessian
   Martin Krupicka        : AUTO-CI
   Lucas Lang             : DCDCAS
   Dagmar Lenk            : GEPOL surface, SMD
   Dimitrios Liakos       : Extrapolation schemes; Compound Job, initial MDCI parallelization
   Dimitrios Manganas     : Further ROCIS development; embedding schemes
   Dimitrios Pantazis     : SARC Basis sets
   Taras Petrenko         : DFT Hessian,TD-DFT gradient, ASA, ECA, R-Raman, ABS, FL, XAS/XES, NRVS
   Peter Pinski           : DLPNO-MP2, DLPNO-MP2 Gradient
   Christoph Reimann      : Effective Core Potentials
   Marius Retegan         : Local ZFS, SOC
   Christoph Riplinger    : Optimizer, TS searches, QM/MM, DLPNO-CCSD(T), (RO)-DLPNO pert. Triples
   Tobias Risthaus        : Range-separated hybrids, TD-DFT gradient, RPA, STAB
   Michael Roemelt        : Original ROCIS implementation
   Masaaki Saitow         : Open-shell DLPNO-CCSD energy and density
   Barbara Sandhoefer     : DKH picture change effects
   Avijit Sen             : IP-ROCIS
   Kantharuban Sivalingam : CASSCF convergence, NEVPT2, FIC-MRCI
   Bernardo de Souza      : ESD, SOC TD-DFT
   Georgi Stoychev        : AutoAux, RI-MP2 NMR
   Willem Van den Heuvel  : Paramagnetic NMR
   Boris Wezisla          : Elementary symmetry handling
   Frank Wennmohs         : Technical directorship


 We gratefully acknowledge several colleagues who have allowed us to
 interface, adapt or use parts of their codes:
   Stefan Grimme, W. Hujo, H. Kruse,             : VdW corrections, initial TS optimization,
                  C. Bannwarth                     DFT functionals, gCP, sTDA/sTD-DF
   Ed Valeev, F. Pavosevic, A. Kumar             : LibInt (2-el integral package), F12 methods
   Garnet Chan, S. Sharma, J. Yang, R. Olivares  : DMRG
   Ulf Ekstrom                                   : XCFun DFT Library
   Mihaly Kallay                                 : mrcc  (arbitrary order and MRCC methods)
   Andreas Klamt, Michael Diedenhofen            : otool_cosmo (COSMO solvation model)
   Jiri Pittner, Ondrej Demel                    : Mk-CCSD
   Frank Weinhold                                : gennbo (NPA and NBO analysis)
   Christopher J. Cramer and Donald G. Truhlar   : smd solvation model
   Lars Goerigk                                  : TD-DFT with DH, B97 family of functionals
   V. Asgeirsson, H. Jonsson                     : NEB implementation
   FAccTs GmbH                                   : IRC, NEB, NEB-TS, Multilevel, MM, QM/MM, CI optimization
   S Lehtola, MJT Oliveira, MAL Marques          : LibXC Library


 Your calculation uses the libint2 library for the computation of 2-el integrals
 For citations please refer to: http://libint.valeyev.net

 Your ORCA version has been built with support for libXC version: 4.2.3
 For citations please refer to: https://tddft.org/programs/libxc/

 This ORCA versions uses:
   CBLAS   interface :  Fast vector & matrix operations
   LAPACKE interface :  Fast linear algebra routines
   SCALAPACK package :  Parallel linear algebra routines


----- Orbital basis set information -----
Your calculation utilizes the basis: cc-pCVDZ 
             H : cc-pVDZ. Obtained from the ccRepo (grant-hill.group.shef.ac.uk/ccrepo) Feb. 2017
                 T. H. Dunning, Jr., J. Chem. Phys. 90, 1007 (1989)
            He : cc-pVDZ. Obtained from the ccRepo (grant-hill.group.shef.ac.uk/ccrepo) Feb. 2017
                 D. E. Woon, T. H. Dunning, Jr., J. Chem. Phys. 100, 2975 (1994)
  Li-Be, Na-Mg : Obtained from the ccRepo (grant-hill.group.shef.ac.uk/ccrepo) Feb. 2017
                 B. P. Prascher, D. E. Woon, K. A. Peterson, T. H. Dunning, Jr., A. K. Wilson, Theor. Chem. Acc. 128, 69 (2011)
          B-Ne : Obtained from the ccRepo (grant-hill.group.shef.ac.uk/ccrepo) Feb. 2017
                 D. E. Woon, T. H. Dunning, Jr., J. Chem. Phys. 103, 4572 (1995)
                  K. A. Peterson, T. H. Dunning, Jr., J. Chem. Phys. 117, 10548 (2002)
         Al-Ar : Obtained from the EMSL Basis Set Exchange (bse.pnl.gov) Feb. 2017
                 K. A. Peterson, T. H. Dunning, Jr., J. Chem. Phys. 117, 10548 (2002)
            Ca : Obtained from the Peterson Research Group Website (tyr0.chem.wsu.edu/~kipeters) Feb. 2017
                 J. Koput, K. A. Peterson, J. Phys. Chem. 106, 9595 (2002)
         Ga-Kr : Obtained from the Peterson Research Group Website (tyr0.chem.wsu.edu/~kipeters) Feb. 2017
                 N. J. DeYonker, K. A. Peterson, A. K. Wilson, J. Phys. Chem. A 111, 11383 (2007)

================================================================================
                                        WARNINGS
                       Please study these warnings very carefully!
================================================================================


INFO   : the flag for use of LIBINT has been found!

================================================================================
                                       INPUT FILE
================================================================================
NAME = Kr_cc-pcvdz_.inp
|  1> ! LDA cc-pcvdz nori grid5 finalgrid6 verytightscf
|  2> %Pal NProcs 18 End
|  3> 
|  4> *xyz 34 1
|  5> Kr 0.0 0.0 0.0
|  6> **                         ****END OF INPUT****
================================================================================

                       ****************************
                       * Single Point Calculation *
                       ****************************

---------------------------------
CARTESIAN COORDINATES (ANGSTROEM)
---------------------------------
  Kr     0.000000    0.000000    0.000000

----------------------------
CARTESIAN COORDINATES (A.U.)
----------------------------
  NO LB      ZA    FRAG     MASS         X           Y           Z
   0 Kr   36.0000    0    83.800    0.000000    0.000000    0.000000

--------------------------------
INTERNAL COORDINATES (ANGSTROEM)
--------------------------------
 Kr     0   0   0     0.000000000000     0.00000000     0.00000000

---------------------------
INTERNAL COORDINATES (A.U.)
---------------------------
 Kr     0   0   0     0.000000000000     0.00000000     0.00000000

---------------------
BASIS SET INFORMATION
---------------------
There are 1 groups of distinct atoms

 Group   1 Type Kr  : 54s32p7d1f contracted to 6s5p3d1f pattern {1313131311/10101011/511/1}

Atom   0Kr   basis set group =>   1


           ************************************************************
           *        Program running with 18 parallel MPI-processes    *
           *              working on a common directory               *
           ************************************************************
------------------------------------------------------------------------------
                           ORCA GTO INTEGRAL CALCULATION
------------------------------------------------------------------------------

                         BASIS SET STATISTICS AND STARTUP INFO

 # of primitive gaussian shells          ...   94
 # of primitive gaussian functions       ...  192
 # of contracted shells                  ...   15
 # of contracted basis functions         ...   43
 Highest angular momentum                ...    3
 Maximum contraction depth               ...   13
 Integral package used                   ... LIBINT
 Integral threshhold            Thresh   ...  1.000e-12
 Primitive cut-off              TCut     ...  1.000e-14


------------------------------ INTEGRAL EVALUATION ----------------------------


 * One electron integrals 
 Pre-screening matrix                    ... done
 Shell pair data                         ... done (   0.000 sec)



           ************************************************************
           *        Program running with 18 parallel MPI-processes    *
           *              working on a common directory               *
           ************************************************************
-------------------------------------------------------------------------------
                                 ORCA SCF
-------------------------------------------------------------------------------

------------
SCF SETTINGS
------------
Hamiltonian:
 Density Functional     Method          .... DFT(GTOs)
 Exchange Functional    Exchange        .... Slater
   X-Alpha parameter    XAlpha          ....  0.666667
 Correlation Functional Correlation     .... VWN-5
 Gradients option       PostSCFGGA      .... off
   Density functional embedding theory  .... OFF


General Settings:
 Integral files         IntName         .... Kr_cc-pcvdz_
 Hartree-Fock type      HFTyp           .... RHF
 Total Charge           Charge          ....   34
 Multiplicity           Mult            ....    1
 Number of Electrons    NEL             ....    2
 Basis Dimension        Dim             ....   43
 Nuclear Repulsion      ENuc            ....      0.0000000000 Eh

Convergence Acceleration:
 DIIS                   CNVDIIS         .... on
   Start iteration      DIISMaxIt       ....    12
   Startup error        DIISStart       ....  0.200000
   # of expansion vecs  DIISMaxEq       ....     5
   Bias factor          DIISBfac        ....   1.050
   Max. coefficient     DIISMaxC        ....  10.000
 Newton-Raphson         CNVNR           .... off
 SOSCF                  CNVSOSCF        .... on
   Start iteration      SOSCFMaxIt      ....   150
   Startup grad/error   SOSCFStart      ....  0.003300
 Level Shifting         CNVShift        .... on
   Level shift para.    LevelShift      ....    0.2500
   Turn off err/grad.   ShiftErr        ....    0.0010
 Zerner damping         CNVZerner       .... off
 Static damping         CNVDamp         .... on
   Fraction old density DampFac         ....    0.7000
   Max. Damping (<1)    DampMax         ....    0.9800
   Min. Damping (>=0)   DampMin         ....    0.0000
   Turn off err/grad.   DampErr         ....    0.1000
 Fernandez-Rico         CNVRico         .... off

SCF Procedure:
 Maximum # iterations   MaxIter         ....   125
 SCF integral mode      SCFMode         .... Direct
   Integral package                     .... LIBINT
 Reset frequency        DirectResetFreq ....    20
 Integral Threshold     Thresh          ....  1.000e-12 Eh
 Primitive CutOff       TCut            ....  1.000e-14 Eh

Convergence Tolerance:
 Convergence Check Mode ConvCheckMode   .... Total+1el-Energy
 Convergence forced     ConvForced      .... 0
 Energy Change          TolE            ....  1.000e-09 Eh
 1-El. energy change                    ....  1.000e-06 Eh
 Orbital Gradient       TolG            ....  2.000e-06
 Orbital Rotation angle TolX            ....  2.000e-06
 DIIS Error             TolErr          ....  1.000e-08


Diagonalization of the overlap matrix:
Smallest eigenvalue                        ... 6.494e-03
Time for diagonalization                   ...    0.001 sec
Threshold for overlap eigenvalues          ... 1.000e-08
Number of eigenvalues below threshold      ... 0
Time for construction of square roots      ...    0.001 sec
Total time needed                          ...    0.002 sec

-------------------
DFT GRID GENERATION
-------------------

General Integration Accuracy     IntAcc      ...  5.010
Radial Grid Type                 RadialGrid  ... Gauss-Chebyshev
Angular Grid (max. acc.)         AngularGrid ... Lebedev-434
Angular grid pruning method      GridPruning ... 3 (G Style)
Weight generation scheme         WeightScheme... Becke
Basis function cutoff            BFCut       ...    1.0000e-12
Integration weight cutoff        WCut        ...    1.0000e-14
Grids for H and He will be reduced by one unit

# of grid points (after initial pruning)     ...  16106 (   0.0 sec)
# of grid points (after weights+screening)   ...  16106 (   0.0 sec)
Grid point division into batches done        ...    0.2 sec
Reduced shell lists constructed in    0.2 sec

Total number of grid points                  ...    16106
Total number of batches                      ...      252
Average number of points per batch           ...       63
Average number of grid points per atom       ...    16106
Average number of shells per batch           ...     0.00 ( 0.00%)
Average number of basis functions per batch  ...     0.00 ( 0.00%)
Average number of large shells per batch     ...     0.00 ( -nan%)
Average number of large basis fcns per batch ...     0.00 ( -nan%)
Maximum spatial batch extension              ...  17.34, 17.34, 17.34 au
Average spatial batch extension              ...   0.86,  0.87,  0.87 au

Time for grid setup =    0.257 sec

------------------------------
INITIAL GUESS: MODEL POTENTIAL
------------------------------
Loading Hartree-Fock densities                     ... done
Calculating cut-offs                               ... done
Setting up the integral package                    ... done
Initializing the effective Hamiltonian             ... done
Starting the Coulomb interaction                   ... done (   0.0 sec)
Reading the grid                                   ... done
Mapping shells                                     ... done
Starting the XC term evaluation                    ... done (   0.0 sec)
  promolecular density results
     # of electrons  =     35.999999729
     EX              =    -88.624060943
     EC              =     -3.283969203
     EX+EC           =    -91.908030146
Transforming the Hamiltonian                       ... done (   0.0 sec)
Diagonalizing the Hamiltonian                      ... done (   0.0 sec)
Back transforming the eigenvectors                 ... done (   0.0 sec)
Now organizing SCF variables                       ... done
                      ------------------
                      INITIAL GUESS DONE (   0.4 sec)
                      ------------------
--------------
SCF ITERATIONS
--------------
ITER       Energy         Delta-E        Max-DP      RMS-DP      [F,P]     Damp
               ***  Starting incremental Fock matrix formation  ***
  0  -1270.6726698614   0.000000000000 0.00815114  0.00026443  5.2229852 0.7000
                      *** Initiating the SOSCF procedure ***
                      *** Re-Reading the Fockian *** 
                      *** Removing any level shift *** 
ITER      Energy       Delta-E        Grad      Rot      Max-DP    RMS-DP
  1  -1270.68337410  -0.0107042362  0.001946  0.001946  0.018986  0.000616
               *** Restarting incremental Fock matrix formation ***
  2  -1270.70824252  -0.0248684188  0.007856  0.000017  0.000106  0.000003
  3  -1270.70824284  -0.0000003224  0.000033  0.000000  0.000000  0.000000
                 **** Energy Check signals convergence ****
              ***Rediagonalizing the Fockian in SOSCF/NRSCF***

               *****************************************************
               *                     SUCCESS                       *
               *           SCF CONVERGED AFTER   4 CYCLES          *
               *****************************************************

Setting up the final grid:

General Integration Accuracy     IntAcc      ...  5.340
Radial Grid Type                 RadialGrid  ... Gauss-Chebyshev
Angular Grid (max. acc.)         AngularGrid ... Lebedev-590
Angular grid pruning method      GridPruning ... 3 (G Style)
Weight generation scheme         WeightScheme... Becke
Basis function cutoff            BFCut       ...    1.0000e-12
Integration weight cutoff        WCut        ...    1.0000e-14
Grids for H and He will be reduced by one unit

# of grid points (after initial pruning)     ...  24180 (   0.0 sec)
# of grid points (after weights+screening)   ...  24180 (   0.0 sec)
Grid point division into batches done        ...    0.4 sec
Reduced shell lists constructed in    0.4 sec

Total number of grid points                  ...    24180
Total number of batches                      ...      378
Average number of points per batch           ...       63
Average number of grid points per atom       ...    24180
Average number of shells per batch           ...     0.00 ( 0.00%)
Average number of basis functions per batch  ...     0.00 ( 0.00%)
Average number of large shells per batch     ...     0.00 ( -nan%)
Average number of large basis fcns per batch ...     0.00 ( -nan%)
Maximum spatial batch extension              ...  17.58, 17.58, 17.58 au
Average spatial batch extension              ...   0.77,  0.77,  0.77 au

Final grid set up in    0.4 sec
Final integration                            ... done (   0.0 sec)
Change in XC energy                          ...    -0.000002127
Integrated number of electrons               ...     2.000000053
Previous integrated no of electrons          ...     2.000000058

----------------
TOTAL SCF ENERGY
----------------

Total Energy       :        -1270.70824497 Eh          -34577.72924 eV

Components:
Nuclear Repulsion  :            0.00000000 Eh               0.00000 eV
Electronic Energy  :        -1270.70824497 Eh          -34577.72924 eV
One Electron Energy:        -1295.78533498 Eh          -35260.11155 eV
Two Electron Energy:           25.07709001 Eh             682.38231 eV

Virial components:
Potential Energy   :        -2536.99872780 Eh          -69035.24507 eV
Kinetic Energy     :         1266.29048283 Eh           34457.51582 eV
Virial Ratio       :            2.00348874


DFT components:
N(Alpha)           :        1.000000026261 electrons
N(Beta)            :        1.000000026261 electrons
N(Total)           :        2.000000052522 electrons
E(X)               :      -19.047326151273 Eh       
E(C)               :       -0.277856407857 Eh       
E(XC)              :      -19.325182559130 Eh       
DFET-embed. en.    :        0.000000000000 Eh       

---------------
SCF CONVERGENCE
---------------

  Last Energy change         ...   -6.8212e-12  Tolerance :   1.0000e-09
  Last MAX-Density change    ...    0.0000e+00  Tolerance :   1.0000e-08
  Last RMS-Density change    ...    0.0000e+00  Tolerance :   1.0000e-09
  Last Orbital Gradient      ...    1.9622e-11  Tolerance :   2.0000e-06
  Last Orbital Rotation      ...    0.0000e+00  Tolerance :   2.0000e-06

================================================================================
                                        WARNING
Number of found core electrons (2) does not match given number of chemical core electrons (18)
================================================================================
             **** THE GBW FILE WAS UPDATED (Kr_cc-pcvdz_.gbw) ****
             **** DENSITY FILE WAS UPDATED (Kr_cc-pcvdz_.scfp) ****
             **** ENERGY FILE WAS UPDATED (Kr_cc-pcvdz_.en.tmp) ****
             **** THE GBW FILE WAS UPDATED (Kr_cc-pcvdz_.gbw) ****
             **** DENSITY FILE WAS UPDATED (Kr_cc-pcvdz_.scfp) ****
----------------
ORBITAL ENERGIES
----------------

  NO   OCC          E(Eh)            E(eV) 
   0   2.0000    -616.337375    -16771.3926 
   1   0.0000    -148.582463     -4043.1344 
   2   0.0000    -146.755842     -3993.4295 
   3   0.0000    -146.755842     -3993.4295 
   4   0.0000    -146.755842     -3993.4295 
   5   0.0000     -63.746694     -1734.6357 
   6   0.0000     -63.471149     -1727.1378 
   7   0.0000     -63.471149     -1727.1378 
   8   0.0000     -63.471149     -1727.1378 
   9   0.0000     -61.722155     -1679.5452 
  10   0.0000     -61.722155     -1679.5452 
  11   0.0000     -61.722155     -1679.5452 
  12   0.0000     -61.722155     -1679.5452 
  13   0.0000     -61.722155     -1679.5452 
  14   0.0000     -34.887097      -949.3262 
  15   0.0000     -34.887097      -949.3262 
  16   0.0000     -34.887097      -949.3262 
  17   0.0000     -34.195829      -930.5158 
  18   0.0000     -34.195829      -930.5158 
  19   0.0000     -34.195829      -930.5158 
  20   0.0000     -34.195829      -930.5158 
  21   0.0000     -34.195829      -930.5158 
  22   0.0000     -34.195829      -930.5158 
  23   0.0000     -34.195829      -930.5158 
  24   0.0000     -33.998928      -925.1579 
  25   0.0000     -32.361207      -880.5932 
  26   0.0000     -32.361207      -880.5932 
  27   0.0000     -32.361207      -880.5932 
  28   0.0000     -32.361207      -880.5932 
  29   0.0000     -32.361207      -880.5932 
  30   0.0000     -20.209336      -549.9240 
  31   0.0000     -20.151768      -548.3575 
  32   0.0000     -20.151768      -548.3575 
  33   0.0000     -20.151768      -548.3575 
  34   0.0000     -16.949090      -461.2082 
  35   0.0000     -16.949090      -461.2082 
  36   0.0000     -16.949090      -461.2082 
  37   0.0000     -16.949090      -461.2082 
  38   0.0000     -16.949090      -461.2082 
  39   0.0000     -11.983067      -326.0758 
  40   0.0000     -10.916315      -297.0480 
  41   0.0000     -10.916315      -297.0480 
  42   0.0000     -10.916315      -297.0480 

                    ********************************
                    * MULLIKEN POPULATION ANALYSIS *
                    ********************************

-----------------------
MULLIKEN ATOMIC CHARGES
-----------------------
   0 Kr:   34.000000
Sum of atomic charges:   34.0000000

--------------------------------
MULLIKEN REDUCED ORBITAL CHARGES
--------------------------------
  0 Krs       :     2.000000  s :     2.000000
      pz      :     0.000000  p :     0.000000
      px      :     0.000000
      py      :     0.000000
      dz2     :     0.000000  d :     0.000000
      dxz     :     0.000000
      dyz     :     0.000000
      dx2y2   :     0.000000
      dxy     :     0.000000
      f0      :     0.000000  f :     0.000000
      f+1     :     0.000000
      f-1     :     0.000000
      f+2     :     0.000000
      f-2     :     0.000000
      f+3     :     0.000000
      f-3     :     0.000000


                     *******************************
                     * LOEWDIN POPULATION ANALYSIS *
                     *******************************

----------------------
LOEWDIN ATOMIC CHARGES
----------------------
   0 Kr:   34.000000

-------------------------------
LOEWDIN REDUCED ORBITAL CHARGES
-------------------------------
  0 Krs       :     2.000000  s :     2.000000
      pz      :     0.000000  p :     0.000000
      px      :     0.000000
      py      :     0.000000
      dz2     :     0.000000  d :     0.000000
      dxz     :     0.000000
      dyz     :     0.000000
      dx2y2   :     0.000000
      dxy     :     0.000000
      f0      :     0.000000  f :     0.000000
      f+1     :     0.000000
      f-1     :     0.000000
      f+2     :     0.000000
      f-2     :     0.000000
      f+3     :     0.000000
      f-3     :     0.000000


                      *****************************
                      * MAYER POPULATION ANALYSIS *
                      *****************************

  NA   - Mulliken gross atomic population
  ZA   - Total nuclear charge
  QA   - Mulliken gross atomic charge
  VA   - Mayer's total valence
  BVA  - Mayer's bonded valence
  FA   - Mayer's free valence

  ATOM       NA         ZA         QA         VA         BVA        FA
  0 Kr     2.0000    36.0000    34.0000     0.0000     0.0000     0.0000

  Mayer bond orders larger than 0.100000


--------------------------
ATOM BASIS FOR ELEMENT Kr
--------------------------
 NewGTO Kr
 S 54
    1     681358.800000000047         0.000197070406
    2     102126.500000000000         0.001529922918
    3      23243.709999999999         0.007956880280
    4       6582.007000000000         0.032521921566
    5       2146.429000000000         0.106816363652
    6        774.337800000000         0.267801666953
    7        301.670200000000         0.420548746698
    8        123.411800000000         0.286048845210
    9         38.567550000000         0.032274007196
   10         16.637380000000        -0.007689449034
   11          5.198795000000         0.002941843800
   12          2.294814000000        -0.001467468914
   13          0.485211000000         0.000414758640
   14     681358.800000000047         0.000000014244
   15     102126.500000000000         0.000000109781
   16      23243.709999999999         0.000000580300
   17       6582.007000000000         0.000002373229
   18       2146.429000000000         0.000008324393
   19        774.337800000000         0.000022756239
   20        301.670200000000         0.000049019241
   21        123.411800000000         0.000043124456
   22         38.567550000000        -0.000104967827
   23         16.637380000000        -0.000148061506
   24          5.198795000000        -0.000019615368
   25          2.294814000000         0.000003575164
   26          0.485211000000        -0.000000835609
   27     681358.800000000047         0.000000260755
   28     102126.500000000000         0.000002019022
   29      23243.709999999999         0.000010628140
   30       6582.007000000000         0.000043833093
   31       2146.429000000000         0.000153373413
   32        774.337800000000         0.000430476848
   33        301.670200000000         0.000946631229
   34        123.411800000000         0.000932669817
   35         38.567550000000        -0.003074314914
   36         16.637380000000        -0.006031616613
   37          5.198795000000         0.005203147388
   38          2.294814000000         0.007976492937
   39          0.485211000000         0.000474665992
   40     681358.800000000047        -0.000000007661
   41     102126.500000000000        -0.000000059541
   42      23243.709999999999        -0.000000313219
   43       6582.007000000000        -0.000001292634
   44       2146.429000000000        -0.000004525868
   45        774.337800000000        -0.000012737441
   46        301.670200000000        -0.000028154988
   47        123.411800000000        -0.000028138600
   48         38.567550000000         0.000097230140
   49         16.637380000000         0.000204011033
   50          5.198795000000        -0.000226183927
   51          2.294814000000        -0.000537853836
   52          0.485211000000         0.000675847142
   53          0.186270000000        -0.000639670023
   54          2.178900000000        -0.010158349464
 S 54
    1     681358.800000000047         0.000005458999
    2     102126.500000000000         0.000042380018
    3      23243.709999999999         0.000220411579
    4       6582.007000000000         0.000900881731
    5       2146.429000000000         0.002958893752
    6        774.337800000000         0.007418307946
    7        301.670200000000         0.011649517140
    8        123.411800000000         0.007923768532
    9         38.567550000000         0.000894014316
   10         16.637380000000        -0.000213003532
   11          5.198795000000         0.000081491290
   12          2.294814000000        -0.000040649995
   13          0.485211000000         0.000011489127
   14     681358.800000000047         0.000050201124
   15     102126.500000000000         0.000386919915
   16      23243.709999999999         0.002045251888
   17       6582.007000000000         0.008364378861
   18       2146.429000000000         0.029339086283
   19        774.337800000000         0.080203720291
   20        301.670200000000         0.172766924944
   21        123.411800000000         0.151990923578
   22         38.567550000000        -0.369956131584
   23         16.637380000000        -0.521838581994
   24          5.198795000000        -0.069133807560
   25          2.294814000000         0.012600562748
   26          0.485211000000        -0.002945078782
   27     681358.800000000047         0.000010269308
   28     102126.500000000000         0.000079514964
   29      23243.709999999999         0.000418567098
   30       6582.007000000000         0.001726274809
   31       2146.429000000000         0.006040291521
   32        774.337800000000         0.016953431577
   33        301.670200000000         0.037281093832
   34        123.411800000000         0.036731252808
   35         38.567550000000        -0.121075471923
   36         16.637380000000        -0.237542622787
   37          5.198795000000         0.204915092709
   38          2.294814000000         0.314137514813
   39          0.485211000000         0.018693728734
   40     681358.800000000047        -0.000000188709
   41     102126.500000000000        -0.000001466671
   42      23243.709999999999        -0.000007715550
   43       6582.007000000000        -0.000031841574
   44       2146.429000000000        -0.000111486117
   45        774.337800000000        -0.000313762522
   46        301.670200000000        -0.000693544355
   47        123.411800000000        -0.000693140662
   48         38.567550000000         0.002395078758
   49         16.637380000000         0.005025422079
   50          5.198795000000        -0.005571608980
   51          2.294814000000        -0.013249001808
   52          0.485211000000         0.016648203285
   53          0.186270000000        -0.012819350144
   54          2.178900000000        -0.383675068880
 S 54
    1     681358.800000000047        -0.000042517450
    2     102126.500000000000        -0.000330077066
    3      23243.709999999999        -0.001716677141
    4       6582.007000000000        -0.007016523734
    5       2146.429000000000        -0.023045364930
    6        774.337800000000        -0.057777543934
    7        301.670200000000        -0.090732346684
    8        123.411800000000        -0.061714327283
    9         38.567550000000        -0.006963036825
   10         16.637380000000         0.001658979514
   11          5.198795000000        -0.000634695487
   12          2.294814000000         0.000316602770
   13          0.485211000000        -0.000089483146
   14     681358.800000000047         0.000082402909
   15     102126.500000000000         0.000635111812
   16      23243.709999999999         0.003357189908
   17       6582.007000000000         0.013729755469
   18       2146.429000000000         0.048158803784
   19        774.337800000000         0.131650835716
   20        301.670200000000         0.283589214694
   21        123.411800000000         0.249486333521
   22         38.567550000000        -0.607266517368
   23         16.637380000000        -0.856574797014
   24          5.198795000000        -0.113480066866
   25          2.294814000000         0.020683262699
   26          0.485211000000        -0.004834215688
   27     681358.800000000047        -0.000077089775
   28     102126.500000000000        -0.000596903962
   29      23243.709999999999        -0.003142104934
   30       6582.007000000000        -0.012958822171
   31       2146.429000000000        -0.045343338901
   32        774.337800000000        -0.127266240531
   33        301.670200000000        -0.279862199770
   34        123.411800000000        -0.275734646023
   35         38.567550000000         0.908890926411
   36         16.637380000000         1.783188048398
   37          5.198795000000        -1.538259281500
   38          2.294814000000        -2.358171579466
   39          0.485211000000        -0.140330325849
   40     681358.800000000047        -0.000000202802
   41     102126.500000000000        -0.000001576205
   42      23243.709999999999        -0.000008291761
   43       6582.007000000000        -0.000034219558
   44       2146.429000000000        -0.000119812093
   45        774.337800000000        -0.000337194850
   46        301.670200000000        -0.000745339448
   47        123.411800000000        -0.000744905607
   48         38.567550000000         0.002573947389
   49         16.637380000000         0.005400729304
   50          5.198795000000        -0.005987706390
   51          2.294814000000        -0.014238460211
   52          0.485211000000         0.017891519942
   53          0.186270000000         0.047366750546
   54          2.178900000000         2.540430921292
 S 54
    1     681358.800000000047        -0.000098643001
    2     102126.500000000000        -0.000765798333
    3      23243.709999999999        -0.003982792585
    4       6582.007000000000        -0.016278750401
    5       2146.429000000000        -0.053466610792
    6        774.337800000000        -0.134047322029
    7        301.670200000000        -0.210504415148
    8        123.411800000000        -0.143180892435
    9         38.567550000000        -0.016154657605
   10         16.637380000000         0.003848930675
   11          5.198795000000        -0.001472531100
   12          2.294814000000         0.000734537168
   13          0.485211000000        -0.000207606195
   14     681358.800000000047         0.000178327683
   15     102126.500000000000         0.001374441979
   16      23243.709999999999         0.007265276220
   17       6582.007000000000         0.029712488315
   18       2146.429000000000         0.104220202461
   19        774.337800000000         0.284904849671
   20        301.670200000000         0.613713860161
   21        123.411800000000         0.539912002534
   22         38.567550000000        -1.314182131087
   23         16.637380000000        -1.853708808210
   24          5.198795000000        -0.245581588717
   25          2.294814000000         0.044760535076
   26          0.485211000000        -0.010461699589
   27     681358.800000000047        -0.000114604286
   28     102126.500000000000        -0.000887377765
   29      23243.709999999999        -0.004671160235
   30       6582.007000000000        -0.019265026499
   31       2146.429000000000        -0.067408952290
   32        774.337800000000        -0.189198328665
   33        301.670200000000        -0.416052680051
   34        123.411800000000        -0.409916518041
   35         38.567550000000         1.351188213767
   36         16.637380000000         2.650948099393
   37          5.198795000000        -2.286828650701
   38          2.294814000000        -3.505738204248
   39          0.485211000000        -0.208619842944
   40     681358.800000000047        -0.000001861607
   41     102126.500000000000        -0.000014468690
   42      23243.709999999999        -0.000076113792
   43       6582.007000000000        -0.000314116670
   44       2146.429000000000        -0.001099808945
   45        774.337800000000        -0.003095262783
   46        301.670200000000        -0.006841805125
   47        123.411800000000        -0.006837822701
   48         38.567550000000         0.023627417646
   49         16.637380000000         0.049575716828
   50          5.198795000000        -0.054963842787
   51          2.294814000000        -0.130701213060
   52          0.485211000000         0.164234286947
   53          0.186270000000         0.019220111973
   54          2.178900000000         5.888756015972
 S 54
    1     681358.800000000047        -0.000087511791
    2     102126.500000000000        -0.000679383059
    3      23243.709999999999        -0.003533360799
    4       6582.007000000000        -0.014441801150
    5       2146.429000000000        -0.047433257604
    6        774.337800000000        -0.118920968859
    7        301.670200000000        -0.186750385009
    8        123.411800000000        -0.127023876290
    9         38.567550000000        -0.014331711405
   10         16.637380000000         0.003414604321
   11          5.198795000000        -0.001306365710
   12          2.294814000000         0.000651649510
   13          0.485211000000        -0.000184179209
   14     681358.800000000047         0.000159381851
   15     102126.500000000000         0.001228418964
   16      23243.709999999999         0.006493401120
   17       6582.007000000000         0.026555783847
   18       2146.429000000000         0.093147673791
   19        774.337800000000         0.254636081796
   20        301.670200000000         0.548511872913
   21        123.411800000000         0.482550848111
   22         38.567550000000        -1.174561222853
   23         16.637380000000        -1.656767683169
   24          5.198795000000        -0.219490589873
   25          2.294814000000         0.040005100945
   26          0.485211000000        -0.009350231122
   27     681358.800000000047        -0.000120927993
   28     102126.500000000000        -0.000936342051
   29      23243.709999999999        -0.004928908444
   30       6582.007000000000        -0.020328044215
   31       2146.429000000000        -0.071128485742
   32        774.337800000000        -0.199638032718
   33        301.670200000000        -0.439009895798
   34        123.411800000000        -0.432535148791
   35         38.567550000000         1.425744924551
   36         16.637380000000         2.797223776415
   37          5.198795000000        -2.413012716391
   38          2.294814000000        -3.699180025837
   39          0.485211000000        -0.220131199494
   40     681358.800000000047         0.000021636676
   41     102126.500000000000         0.000168163532
   42      23243.709999999999         0.000884638774
   43       6582.007000000000         0.003650846707
   44       2146.429000000000         0.012782619466
   45        774.337800000000         0.035974944981
   46        301.670200000000         0.079519439945
   47        123.411800000000         0.079473153891
   48         38.567550000000        -0.274611595059
   49         16.637380000000        -0.576197825686
   50          5.198795000000         0.638821760568
   51          2.294814000000         1.519085544269
   52          0.485211000000        -1.908826439583
   53          0.186270000000         0.432595944176
   54          2.178900000000         4.898935594566
 S 54
    1     681358.800000000047        -0.000043877930
    2     102126.500000000000        -0.000340638925
    3      23243.709999999999        -0.001771607649
    4       6582.007000000000        -0.007241039574
    5       2146.429000000000        -0.023782774175
    6        774.337800000000        -0.059626318956
    7        301.670200000000        -0.093635614717
    8        123.411800000000        -0.063689072124
    9         38.567550000000        -0.007185841182
   10         16.637380000000         0.001712063804
   11          5.198795000000        -0.000655004574
   12          2.294814000000         0.000326733476
   13          0.485211000000        -0.000092346441
   14     681358.800000000047         0.000082568291
   15     102126.500000000000         0.000636386475
   16      23243.709999999999         0.003363927758
   17       6582.007000000000         0.013757310963
   18       2146.429000000000         0.048255458065
   19        774.337800000000         0.131915057744
   20        301.670200000000         0.284158375663
   21        123.411800000000         0.249987050318
   22         38.567550000000        -0.608485295733
   23         16.637380000000        -0.858293934824
   24          5.198795000000        -0.113707820326
   25          2.294814000000         0.020724773819
   26          0.485211000000        -0.004843917915
   27     681358.800000000047        -0.000077400705
   28     102126.500000000000        -0.000599311479
   29      23243.709999999999        -0.003154778114
   30       6582.007000000000        -0.013011089519
   31       2146.429000000000        -0.045526224046
   32        774.337800000000        -0.127779548669
   33        301.670200000000        -0.280990979437
   34        123.411800000000        -0.276846777859
   35         38.567550000000         0.912556793393
   36         16.637380000000         1.790380253755
   37          5.198795000000        -1.544463605634
   38          2.294814000000        -2.367682889437
   39          0.485211000000        -0.140896325897
   40     681358.800000000047         0.000025717154
   41     102126.500000000000         0.000199877628
   42      23243.709999999999         0.001051473518
   43       6582.007000000000         0.004339362846
   44       2146.429000000000         0.015193304031
   45        774.337800000000         0.042759489009
   46        301.670200000000         0.094516075567
   47        123.411800000000         0.094461060389
   48         38.567550000000        -0.326400818318
   49         16.637380000000        -0.684863440586
   50          5.198795000000         0.759297674098
   51          2.294814000000         1.805571118137
   52          0.485211000000        -2.268813564746
   53          0.186270000000         2.226577755487
   54          2.178900000000         1.969089976182
 P 32
    1       4474.270000000000         0.001430167566
    2       1060.579000000000         0.011993265672
    3        342.208100000000         0.059904679149
    4        128.998400000000         0.196301910548
    5         53.087220000000         0.388006295918
    6         22.959420000000         0.365010669749
    7          9.507300000000         0.094480474218
    8          4.083055000000        -0.002360364739
    9          1.750446000000         0.002554347981
   10          0.529190000000        -0.000656681744
   11       4474.270000000000         0.000183264985
   12       1060.579000000000         0.001541338817
   13        342.208100000000         0.007925236397
   14        128.998400000000         0.027035806696
   15         53.087220000000         0.058101730847
   16         22.959420000000         0.048259090453
   17          9.507300000000        -0.080833910087
   18          4.083055000000        -0.176581244460
   19          1.750446000000        -0.081195510086
   20          0.529190000000        -0.003769980367
   21       4474.270000000000        -0.000000616167
   22       1060.579000000000        -0.000005094517
   23        342.208100000000        -0.000026792218
   24        128.998400000000        -0.000089927063
   25         53.087220000000        -0.000201822783
   26         22.959420000000        -0.000149289923
   27          9.507300000000         0.000317341245
   28          4.083055000000         0.000884073297
   29          1.750446000000         0.000106862783
   30          0.529190000000        -0.002177882468
   31          0.164369000000         0.003922406385
   32          2.632000000000         0.229107409908
 P 32
    1       4474.270000000000        -0.000676918872
    2       1060.579000000000        -0.005676585085
    3        342.208100000000        -0.028353745968
    4        128.998400000000        -0.092912516747
    5         53.087220000000        -0.183648958722
    6         22.959420000000        -0.172764798219
    7          9.507300000000        -0.044718966915
    8          4.083055000000         0.001117194569
    9          1.750446000000        -0.001209009626
   10          0.529190000000         0.000310816912
   11       4474.270000000000         0.001387300413
   12       1060.579000000000         0.011667804315
   13        342.208100000000         0.059993368379
   14        128.998400000000         0.204658767162
   15         53.087220000000         0.439825182172
   16         22.959420000000         0.365317227912
   17          9.507300000000        -0.611905853946
   18          4.083055000000        -1.336705066793
   19          1.750446000000        -0.614643135319
   20          0.529190000000        -0.028538432120
   21       4474.270000000000         0.000017760689
   22       1060.579000000000         0.000146846755
   23        342.208100000000         0.000772271510
   24        128.998400000000         0.002592099989
   25         53.087220000000         0.005817434842
   26         22.959420000000         0.004303202980
   27          9.507300000000        -0.009147193359
   28          4.083055000000        -0.025482944660
   29          1.750446000000        -0.003080263123
   30          0.529190000000         0.062776308955
   31          0.164369000000        -0.003878352458
   32          2.632000000000         1.475909764712
 P 32
    1       4474.270000000000        -0.001038340711
    2       1060.579000000000        -0.008707438416
    3        342.208100000000        -0.043492433069
    4        128.998400000000        -0.142520548096
    5         53.087220000000        -0.281703167353
    6         22.959420000000        -0.265007714740
    7          9.507300000000        -0.068595404560
    8          4.083055000000         0.001713689263
    9          1.750446000000        -0.001854526394
   10          0.529190000000         0.000476768880
   11       4474.270000000000         0.001348623108
   12       1060.579000000000         0.011342511233
   13        342.208100000000         0.058320780532
   14        128.998400000000         0.198952973740
   15         53.087220000000         0.427563055971
   16         22.959420000000         0.355132349616
   17          9.507300000000        -0.594846196817
   18          4.083055000000        -1.299438336995
   19          1.750446000000        -0.597507164030
   20          0.529190000000        -0.027742793601
   21       4474.270000000000         0.000014749905
   22       1060.579000000000         0.000121953356
   23        342.208100000000         0.000641356374
   24        128.998400000000         0.002152688309
   25         53.087220000000         0.004831265779
   26         22.959420000000         0.003573725854
   27          9.507300000000        -0.007596565058
   28          4.083055000000        -0.021163086794
   29          1.750446000000        -0.002558098238
   30          0.529190000000         0.052134495944
   31          0.164369000000         0.001324689398
   32          2.632000000000         2.864996685556
 P 32
    1       4474.270000000000        -0.000612768513
    2       1060.579000000000        -0.005138625532
    3        342.208100000000        -0.025666713486
    4        128.998400000000        -0.084107368012
    5         53.087220000000        -0.166244883866
    6         22.959420000000        -0.156392195283
    7          9.507300000000        -0.040481032471
    8          4.083055000000         0.001011320090
    9          1.750446000000        -0.001094434002
   10          0.529190000000         0.000281361363
   11       4474.270000000000         0.001081701340
   12       1060.579000000000         0.009097582214
   13        342.208100000000         0.046777832950
   14        128.998400000000         0.159575864481
   15         53.087220000000         0.342939052350
   16         22.959420000000         0.284843953974
   17          9.507300000000        -0.477113230860
   18          4.083055000000        -1.042251302242
   19          1.750446000000        -0.479247534938
   20          0.529190000000        -0.022251892942
   21       4474.270000000000        -0.000367284849
   22       1060.579000000000        -0.003036739632
   23        342.208100000000        -0.015970305276
   24        128.998400000000        -0.053603723024
   25         53.087220000000        -0.120302522020
   26         22.959420000000        -0.088988735639
   27          9.507300000000         0.189160765914
   28          4.083055000000         0.526978400994
   29          1.750446000000         0.063698766256
   30          0.529190000000        -1.298192157706
   31          0.164369000000         0.261179600062
   32          2.632000000000         1.655510029199
 P 32
    1       4474.270000000000        -0.000225320033
    2       1060.579000000000        -0.001889514963
    3        342.208100000000        -0.009437862106
    4        128.998400000000        -0.030926972471
    5         53.087220000000        -0.061129614066
    6         22.959420000000        -0.057506699264
    7          9.507300000000        -0.014885209303
    8          4.083055000000         0.000371870733
    9          1.750446000000        -0.000402432404
   10          0.529190000000         0.000103458892
   11       4474.270000000000         0.000484415344
   12       1060.579000000000         0.004074145291
   13        342.208100000000         0.020948388631
   14        128.998400000000         0.071462421715
   15         53.087220000000         0.153577455220
   16         22.959420000000         0.127560886655
   17          9.507300000000        -0.213664309577
   18          4.083055000000        -0.466748542056
   19          1.750446000000        -0.214620109119
   20          0.529190000000        -0.009965004185
   21       4474.270000000000        -0.000232869596
   22       1060.579000000000        -0.001925383893
   23        342.208100000000        -0.010125651938
   24        128.998400000000        -0.033986366106
   25         53.087220000000        -0.076275402643
   26         22.959420000000        -0.056421524068
   27          9.507300000000         0.119933591932
   28          4.083055000000         0.334120091956
   29          1.750446000000         0.040386925914
   30          0.529190000000        -0.823092715548
   31          0.164369000000         1.363390295636
   32          2.632000000000         0.543340461309
 D 7
    1        115.525300000000         0.035609342279
    2         33.465250000000         0.214349890656
    3         11.830460000000         0.589304715501
    4          4.339771000000         0.799515263601
    5          1.507524000000         0.432644174815
    6          0.503000000000        -0.063361239209
    7          2.572300000000        -0.908501038453
 D 7
    1        115.525300000000         0.016387113763
    2         33.465250000000         0.098641980402
    3         11.830460000000         0.271192973410
    4          4.339771000000         0.367930063886
    5          1.507524000000         0.199099136848
    6          0.503000000000         0.002326014322
    7          2.572300000000        -1.529457944889
 D 7
    1        115.525300000000         0.003969171894
    2         33.465250000000         0.023892369448
    3         11.830460000000         0.065686462152
    4          4.339771000000         0.089117442507
    5          1.507524000000         0.048224398120
    6          0.503000000000         1.066089035988
    7          2.572300000000        -0.494549147690
 F 1
    1          7.584100000000         1.000000000000
 end
  // -----------------------------------------------
  // The basis set
  // -----------------------------------------------
  BAS[ATNO] = new BFNGauss[NSH];
  // Basis function   1 L = s
  InitBFNGauss(BAS[ATNO][  0]);
  BAS[ATNO][  0].l  = 0;
  BAS[ATNO][  0].ng = 54;
  BAS[ATNO][  0].a[  0] =    681358.800000000047;     BAS[ATNO][  0].d[  0] =         0.000197070406;
  BAS[ATNO][  0].a[  1] =    102126.500000000000;     BAS[ATNO][  0].d[  1] =         0.001529922918;
  BAS[ATNO][  0].a[  2] =     23243.709999999999;     BAS[ATNO][  0].d[  2] =         0.007956880280;
  BAS[ATNO][  0].a[  3] =      6582.007000000000;     BAS[ATNO][  0].d[  3] =         0.032521921566;
  BAS[ATNO][  0].a[  4] =      2146.429000000000;     BAS[ATNO][  0].d[  4] =         0.106816363652;
  BAS[ATNO][  0].a[  5] =       774.337800000000;     BAS[ATNO][  0].d[  5] =         0.267801666953;
  BAS[ATNO][  0].a[  6] =       301.670200000000;     BAS[ATNO][  0].d[  6] =         0.420548746698;
  BAS[ATNO][  0].a[  7] =       123.411800000000;     BAS[ATNO][  0].d[  7] =         0.286048845210;
  BAS[ATNO][  0].a[  8] =        38.567550000000;     BAS[ATNO][  0].d[  8] =         0.032274007196;
  BAS[ATNO][  0].a[  9] =        16.637380000000;     BAS[ATNO][  0].d[  9] =        -0.007689449034;
  BAS[ATNO][  0].a[ 10] =         5.198795000000;     BAS[ATNO][  0].d[ 10] =         0.002941843800;
  BAS[ATNO][  0].a[ 11] =         2.294814000000;     BAS[ATNO][  0].d[ 11] =        -0.001467468914;
  BAS[ATNO][  0].a[ 12] =         0.485211000000;     BAS[ATNO][  0].d[ 12] =         0.000414758640;
  BAS[ATNO][  0].a[ 13] =    681358.800000000047;     BAS[ATNO][  0].d[ 13] =         0.000000014244;
  BAS[ATNO][  0].a[ 14] =    102126.500000000000;     BAS[ATNO][  0].d[ 14] =         0.000000109781;
  BAS[ATNO][  0].a[ 15] =     23243.709999999999;     BAS[ATNO][  0].d[ 15] =         0.000000580300;
  BAS[ATNO][  0].a[ 16] =      6582.007000000000;     BAS[ATNO][  0].d[ 16] =         0.000002373229;
  BAS[ATNO][  0].a[ 17] =      2146.429000000000;     BAS[ATNO][  0].d[ 17] =         0.000008324393;
  BAS[ATNO][  0].a[ 18] =       774.337800000000;     BAS[ATNO][  0].d[ 18] =         0.000022756239;
  BAS[ATNO][  0].a[ 19] =       301.670200000000;     BAS[ATNO][  0].d[ 19] =         0.000049019241;
  BAS[ATNO][  0].a[ 20] =       123.411800000000;     BAS[ATNO][  0].d[ 20] =         0.000043124456;
  BAS[ATNO][  0].a[ 21] =        38.567550000000;     BAS[ATNO][  0].d[ 21] =        -0.000104967827;
  BAS[ATNO][  0].a[ 22] =        16.637380000000;     BAS[ATNO][  0].d[ 22] =        -0.000148061506;
  BAS[ATNO][  0].a[ 23] =         5.198795000000;     BAS[ATNO][  0].d[ 23] =        -0.000019615368;
  BAS[ATNO][  0].a[ 24] =         2.294814000000;     BAS[ATNO][  0].d[ 24] =         0.000003575164;
  BAS[ATNO][  0].a[ 25] =         0.485211000000;     BAS[ATNO][  0].d[ 25] =        -0.000000835609;
  BAS[ATNO][  0].a[ 26] =    681358.800000000047;     BAS[ATNO][  0].d[ 26] =         0.000000260755;
  BAS[ATNO][  0].a[ 27] =    102126.500000000000;     BAS[ATNO][  0].d[ 27] =         0.000002019022;
  BAS[ATNO][  0].a[ 28] =     23243.709999999999;     BAS[ATNO][  0].d[ 28] =         0.000010628140;
  BAS[ATNO][  0].a[ 29] =      6582.007000000000;     BAS[ATNO][  0].d[ 29] =         0.000043833093;
  BAS[ATNO][  0].a[ 30] =      2146.429000000000;     BAS[ATNO][  0].d[ 30] =         0.000153373413;
  BAS[ATNO][  0].a[ 31] =       774.337800000000;     BAS[ATNO][  0].d[ 31] =         0.000430476848;
  BAS[ATNO][  0].a[ 32] =       301.670200000000;     BAS[ATNO][  0].d[ 32] =         0.000946631229;
  BAS[ATNO][  0].a[ 33] =       123.411800000000;     BAS[ATNO][  0].d[ 33] =         0.000932669817;
  BAS[ATNO][  0].a[ 34] =        38.567550000000;     BAS[ATNO][  0].d[ 34] =        -0.003074314914;
  BAS[ATNO][  0].a[ 35] =        16.637380000000;     BAS[ATNO][  0].d[ 35] =        -0.006031616613;
  BAS[ATNO][  0].a[ 36] =         5.198795000000;     BAS[ATNO][  0].d[ 36] =         0.005203147388;
  BAS[ATNO][  0].a[ 37] =         2.294814000000;     BAS[ATNO][  0].d[ 37] =         0.007976492937;
  BAS[ATNO][  0].a[ 38] =         0.485211000000;     BAS[ATNO][  0].d[ 38] =         0.000474665992;
  BAS[ATNO][  0].a[ 39] =    681358.800000000047;     BAS[ATNO][  0].d[ 39] =        -0.000000007661;
  BAS[ATNO][  0].a[ 40] =    102126.500000000000;     BAS[ATNO][  0].d[ 40] =        -0.000000059541;
  BAS[ATNO][  0].a[ 41] =     23243.709999999999;     BAS[ATNO][  0].d[ 41] =        -0.000000313219;
  BAS[ATNO][  0].a[ 42] =      6582.007000000000;     BAS[ATNO][  0].d[ 42] =        -0.000001292634;
  BAS[ATNO][  0].a[ 43] =      2146.429000000000;     BAS[ATNO][  0].d[ 43] =        -0.000004525868;
  BAS[ATNO][  0].a[ 44] =       774.337800000000;     BAS[ATNO][  0].d[ 44] =        -0.000012737441;
  BAS[ATNO][  0].a[ 45] =       301.670200000000;     BAS[ATNO][  0].d[ 45] =        -0.000028154988;
  BAS[ATNO][  0].a[ 46] =       123.411800000000;     BAS[ATNO][  0].d[ 46] =        -0.000028138600;
  BAS[ATNO][  0].a[ 47] =        38.567550000000;     BAS[ATNO][  0].d[ 47] =         0.000097230140;
  BAS[ATNO][  0].a[ 48] =        16.637380000000;     BAS[ATNO][  0].d[ 48] =         0.000204011033;
  BAS[ATNO][  0].a[ 49] =         5.198795000000;     BAS[ATNO][  0].d[ 49] =        -0.000226183927;
  BAS[ATNO][  0].a[ 50] =         2.294814000000;     BAS[ATNO][  0].d[ 50] =        -0.000537853836;
  BAS[ATNO][  0].a[ 51] =         0.485211000000;     BAS[ATNO][  0].d[ 51] =         0.000675847142;
  BAS[ATNO][  0].a[ 52] =         0.186270000000;     BAS[ATNO][  0].d[ 52] =        -0.000639670023;
  BAS[ATNO][  0].a[ 53] =         2.178900000000;     BAS[ATNO][  0].d[ 53] =        -0.010158349464;

  // Basis function   2 L = s
  InitBFNGauss(BAS[ATNO][  1]);
  BAS[ATNO][  1].l  = 0;
  BAS[ATNO][  1].ng = 54;
  BAS[ATNO][  1].a[  0] =    681358.800000000047;     BAS[ATNO][  1].d[  0] =        -0.000005458999;
  BAS[ATNO][  1].a[  1] =    102126.500000000000;     BAS[ATNO][  1].d[  1] =        -0.000042380018;
  BAS[ATNO][  1].a[  2] =     23243.709999999999;     BAS[ATNO][  1].d[  2] =        -0.000220411579;
  BAS[ATNO][  1].a[  3] =      6582.007000000000;     BAS[ATNO][  1].d[  3] =        -0.000900881731;
  BAS[ATNO][  1].a[  4] =      2146.429000000000;     BAS[ATNO][  1].d[  4] =        -0.002958893752;
  BAS[ATNO][  1].a[  5] =       774.337800000000;     BAS[ATNO][  1].d[  5] =        -0.007418307946;
  BAS[ATNO][  1].a[  6] =       301.670200000000;     BAS[ATNO][  1].d[  6] =        -0.011649517140;
  BAS[ATNO][  1].a[  7] =       123.411800000000;     BAS[ATNO][  1].d[  7] =        -0.007923768532;
  BAS[ATNO][  1].a[  8] =        38.567550000000;     BAS[ATNO][  1].d[  8] =        -0.000894014316;
  BAS[ATNO][  1].a[  9] =        16.637380000000;     BAS[ATNO][  1].d[  9] =         0.000213003532;
  BAS[ATNO][  1].a[ 10] =         5.198795000000;     BAS[ATNO][  1].d[ 10] =        -0.000081491290;
  BAS[ATNO][  1].a[ 11] =         2.294814000000;     BAS[ATNO][  1].d[ 11] =         0.000040649995;
  BAS[ATNO][  1].a[ 12] =         0.485211000000;     BAS[ATNO][  1].d[ 12] =        -0.000011489127;
  BAS[ATNO][  1].a[ 13] =    681358.800000000047;     BAS[ATNO][  1].d[ 13] =        -0.000050201124;
  BAS[ATNO][  1].a[ 14] =    102126.500000000000;     BAS[ATNO][  1].d[ 14] =        -0.000386919915;
  BAS[ATNO][  1].a[ 15] =     23243.709999999999;     BAS[ATNO][  1].d[ 15] =        -0.002045251888;
  BAS[ATNO][  1].a[ 16] =      6582.007000000000;     BAS[ATNO][  1].d[ 16] =        -0.008364378861;
  BAS[ATNO][  1].a[ 17] =      2146.429000000000;     BAS[ATNO][  1].d[ 17] =        -0.029339086283;
  BAS[ATNO][  1].a[ 18] =       774.337800000000;     BAS[ATNO][  1].d[ 18] =        -0.080203720291;
  BAS[ATNO][  1].a[ 19] =       301.670200000000;     BAS[ATNO][  1].d[ 19] =        -0.172766924944;
  BAS[ATNO][  1].a[ 20] =       123.411800000000;     BAS[ATNO][  1].d[ 20] =        -0.151990923578;
  BAS[ATNO][  1].a[ 21] =        38.567550000000;     BAS[ATNO][  1].d[ 21] =         0.369956131584;
  BAS[ATNO][  1].a[ 22] =        16.637380000000;     BAS[ATNO][  1].d[ 22] =         0.521838581994;
  BAS[ATNO][  1].a[ 23] =         5.198795000000;     BAS[ATNO][  1].d[ 23] =         0.069133807560;
  BAS[ATNO][  1].a[ 24] =         2.294814000000;     BAS[ATNO][  1].d[ 24] =        -0.012600562748;
  BAS[ATNO][  1].a[ 25] =         0.485211000000;     BAS[ATNO][  1].d[ 25] =         0.002945078782;
  BAS[ATNO][  1].a[ 26] =    681358.800000000047;     BAS[ATNO][  1].d[ 26] =        -0.000010269308;
  BAS[ATNO][  1].a[ 27] =    102126.500000000000;     BAS[ATNO][  1].d[ 27] =        -0.000079514964;
  BAS[ATNO][  1].a[ 28] =     23243.709999999999;     BAS[ATNO][  1].d[ 28] =        -0.000418567098;
  BAS[ATNO][  1].a[ 29] =      6582.007000000000;     BAS[ATNO][  1].d[ 29] =        -0.001726274809;
  BAS[ATNO][  1].a[ 30] =      2146.429000000000;     BAS[ATNO][  1].d[ 30] =        -0.006040291521;
  BAS[ATNO][  1].a[ 31] =       774.337800000000;     BAS[ATNO][  1].d[ 31] =        -0.016953431577;
  BAS[ATNO][  1].a[ 32] =       301.670200000000;     BAS[ATNO][  1].d[ 32] =        -0.037281093832;
  BAS[ATNO][  1].a[ 33] =       123.411800000000;     BAS[ATNO][  1].d[ 33] =        -0.036731252808;
  BAS[ATNO][  1].a[ 34] =        38.567550000000;     BAS[ATNO][  1].d[ 34] =         0.121075471923;
  BAS[ATNO][  1].a[ 35] =        16.637380000000;     BAS[ATNO][  1].d[ 35] =         0.237542622787;
  BAS[ATNO][  1].a[ 36] =         5.198795000000;     BAS[ATNO][  1].d[ 36] =        -0.204915092709;
  BAS[ATNO][  1].a[ 37] =         2.294814000000;     BAS[ATNO][  1].d[ 37] =        -0.314137514813;
  BAS[ATNO][  1].a[ 38] =         0.485211000000;     BAS[ATNO][  1].d[ 38] =        -0.018693728734;
  BAS[ATNO][  1].a[ 39] =    681358.800000000047;     BAS[ATNO][  1].d[ 39] =         0.000000188709;
  BAS[ATNO][  1].a[ 40] =    102126.500000000000;     BAS[ATNO][  1].d[ 40] =         0.000001466671;
  BAS[ATNO][  1].a[ 41] =     23243.709999999999;     BAS[ATNO][  1].d[ 41] =         0.000007715550;
  BAS[ATNO][  1].a[ 42] =      6582.007000000000;     BAS[ATNO][  1].d[ 42] =         0.000031841574;
  BAS[ATNO][  1].a[ 43] =      2146.429000000000;     BAS[ATNO][  1].d[ 43] =         0.000111486117;
  BAS[ATNO][  1].a[ 44] =       774.337800000000;     BAS[ATNO][  1].d[ 44] =         0.000313762522;
  BAS[ATNO][  1].a[ 45] =       301.670200000000;     BAS[ATNO][  1].d[ 45] =         0.000693544355;
  BAS[ATNO][  1].a[ 46] =       123.411800000000;     BAS[ATNO][  1].d[ 46] =         0.000693140662;
  BAS[ATNO][  1].a[ 47] =        38.567550000000;     BAS[ATNO][  1].d[ 47] =        -0.002395078758;
  BAS[ATNO][  1].a[ 48] =        16.637380000000;     BAS[ATNO][  1].d[ 48] =        -0.005025422079;
  BAS[ATNO][  1].a[ 49] =         5.198795000000;     BAS[ATNO][  1].d[ 49] =         0.005571608980;
  BAS[ATNO][  1].a[ 50] =         2.294814000000;     BAS[ATNO][  1].d[ 50] =         0.013249001808;
  BAS[ATNO][  1].a[ 51] =         0.485211000000;     BAS[ATNO][  1].d[ 51] =        -0.016648203285;
  BAS[ATNO][  1].a[ 52] =         0.186270000000;     BAS[ATNO][  1].d[ 52] =         0.012819350144;
  BAS[ATNO][  1].a[ 53] =         2.178900000000;     BAS[ATNO][  1].d[ 53] =         0.383675068880;

  // Basis function   3 L = s
  InitBFNGauss(BAS[ATNO][  2]);
  BAS[ATNO][  2].l  = 0;
  BAS[ATNO][  2].ng = 54;
  BAS[ATNO][  2].a[  0] =    681358.800000000047;     BAS[ATNO][  2].d[  0] =        -0.000042517450;
  BAS[ATNO][  2].a[  1] =    102126.500000000000;     BAS[ATNO][  2].d[  1] =        -0.000330077066;
  BAS[ATNO][  2].a[  2] =     23243.709999999999;     BAS[ATNO][  2].d[  2] =        -0.001716677141;
  BAS[ATNO][  2].a[  3] =      6582.007000000000;     BAS[ATNO][  2].d[  3] =        -0.007016523734;
  BAS[ATNO][  2].a[  4] =      2146.429000000000;     BAS[ATNO][  2].d[  4] =        -0.023045364930;
  BAS[ATNO][  2].a[  5] =       774.337800000000;     BAS[ATNO][  2].d[  5] =        -0.057777543934;
  BAS[ATNO][  2].a[  6] =       301.670200000000;     BAS[ATNO][  2].d[  6] =        -0.090732346684;
  BAS[ATNO][  2].a[  7] =       123.411800000000;     BAS[ATNO][  2].d[  7] =        -0.061714327283;
  BAS[ATNO][  2].a[  8] =        38.567550000000;     BAS[ATNO][  2].d[  8] =        -0.006963036825;
  BAS[ATNO][  2].a[  9] =        16.637380000000;     BAS[ATNO][  2].d[  9] =         0.001658979514;
  BAS[ATNO][  2].a[ 10] =         5.198795000000;     BAS[ATNO][  2].d[ 10] =        -0.000634695487;
  BAS[ATNO][  2].a[ 11] =         2.294814000000;     BAS[ATNO][  2].d[ 11] =         0.000316602770;
  BAS[ATNO][  2].a[ 12] =         0.485211000000;     BAS[ATNO][  2].d[ 12] =        -0.000089483146;
  BAS[ATNO][  2].a[ 13] =    681358.800000000047;     BAS[ATNO][  2].d[ 13] =         0.000082402909;
  BAS[ATNO][  2].a[ 14] =    102126.500000000000;     BAS[ATNO][  2].d[ 14] =         0.000635111812;
  BAS[ATNO][  2].a[ 15] =     23243.709999999999;     BAS[ATNO][  2].d[ 15] =         0.003357189908;
  BAS[ATNO][  2].a[ 16] =      6582.007000000000;     BAS[ATNO][  2].d[ 16] =         0.013729755469;
  BAS[ATNO][  2].a[ 17] =      2146.429000000000;     BAS[ATNO][  2].d[ 17] =         0.048158803784;
  BAS[ATNO][  2].a[ 18] =       774.337800000000;     BAS[ATNO][  2].d[ 18] =         0.131650835716;
  BAS[ATNO][  2].a[ 19] =       301.670200000000;     BAS[ATNO][  2].d[ 19] =         0.283589214694;
  BAS[ATNO][  2].a[ 20] =       123.411800000000;     BAS[ATNO][  2].d[ 20] =         0.249486333521;
  BAS[ATNO][  2].a[ 21] =        38.567550000000;     BAS[ATNO][  2].d[ 21] =        -0.607266517368;
  BAS[ATNO][  2].a[ 22] =        16.637380000000;     BAS[ATNO][  2].d[ 22] =        -0.856574797014;
  BAS[ATNO][  2].a[ 23] =         5.198795000000;     BAS[ATNO][  2].d[ 23] =        -0.113480066866;
  BAS[ATNO][  2].a[ 24] =         2.294814000000;     BAS[ATNO][  2].d[ 24] =         0.020683262699;
  BAS[ATNO][  2].a[ 25] =         0.485211000000;     BAS[ATNO][  2].d[ 25] =        -0.004834215688;
  BAS[ATNO][  2].a[ 26] =    681358.800000000047;     BAS[ATNO][  2].d[ 26] =        -0.000077089775;
  BAS[ATNO][  2].a[ 27] =    102126.500000000000;     BAS[ATNO][  2].d[ 27] =        -0.000596903962;
  BAS[ATNO][  2].a[ 28] =     23243.709999999999;     BAS[ATNO][  2].d[ 28] =        -0.003142104934;
  BAS[ATNO][  2].a[ 29] =      6582.007000000000;     BAS[ATNO][  2].d[ 29] =        -0.012958822171;
  BAS[ATNO][  2].a[ 30] =      2146.429000000000;     BAS[ATNO][  2].d[ 30] =        -0.045343338901;
  BAS[ATNO][  2].a[ 31] =       774.337800000000;     BAS[ATNO][  2].d[ 31] =        -0.127266240531;
  BAS[ATNO][  2].a[ 32] =       301.670200000000;     BAS[ATNO][  2].d[ 32] =        -0.279862199770;
  BAS[ATNO][  2].a[ 33] =       123.411800000000;     BAS[ATNO][  2].d[ 33] =        -0.275734646023;
  BAS[ATNO][  2].a[ 34] =        38.567550000000;     BAS[ATNO][  2].d[ 34] =         0.908890926411;
  BAS[ATNO][  2].a[ 35] =        16.637380000000;     BAS[ATNO][  2].d[ 35] =         1.783188048398;
  BAS[ATNO][  2].a[ 36] =         5.198795000000;     BAS[ATNO][  2].d[ 36] =        -1.538259281500;
  BAS[ATNO][  2].a[ 37] =         2.294814000000;     BAS[ATNO][  2].d[ 37] =        -2.358171579466;
  BAS[ATNO][  2].a[ 38] =         0.485211000000;     BAS[ATNO][  2].d[ 38] =        -0.140330325849;
  BAS[ATNO][  2].a[ 39] =    681358.800000000047;     BAS[ATNO][  2].d[ 39] =        -0.000000202802;
  BAS[ATNO][  2].a[ 40] =    102126.500000000000;     BAS[ATNO][  2].d[ 40] =        -0.000001576205;
  BAS[ATNO][  2].a[ 41] =     23243.709999999999;     BAS[ATNO][  2].d[ 41] =        -0.000008291761;
  BAS[ATNO][  2].a[ 42] =      6582.007000000000;     BAS[ATNO][  2].d[ 42] =        -0.000034219558;
  BAS[ATNO][  2].a[ 43] =      2146.429000000000;     BAS[ATNO][  2].d[ 43] =        -0.000119812093;
  BAS[ATNO][  2].a[ 44] =       774.337800000000;     BAS[ATNO][  2].d[ 44] =        -0.000337194850;
  BAS[ATNO][  2].a[ 45] =       301.670200000000;     BAS[ATNO][  2].d[ 45] =        -0.000745339448;
  BAS[ATNO][  2].a[ 46] =       123.411800000000;     BAS[ATNO][  2].d[ 46] =        -0.000744905607;
  BAS[ATNO][  2].a[ 47] =        38.567550000000;     BAS[ATNO][  2].d[ 47] =         0.002573947389;
  BAS[ATNO][  2].a[ 48] =        16.637380000000;     BAS[ATNO][  2].d[ 48] =         0.005400729304;
  BAS[ATNO][  2].a[ 49] =         5.198795000000;     BAS[ATNO][  2].d[ 49] =        -0.005987706390;
  BAS[ATNO][  2].a[ 50] =         2.294814000000;     BAS[ATNO][  2].d[ 50] =        -0.014238460211;
  BAS[ATNO][  2].a[ 51] =         0.485211000000;     BAS[ATNO][  2].d[ 51] =         0.017891519942;
  BAS[ATNO][  2].a[ 52] =         0.186270000000;     BAS[ATNO][  2].d[ 52] =         0.047366750546;
  BAS[ATNO][  2].a[ 53] =         2.178900000000;     BAS[ATNO][  2].d[ 53] =         2.540430921292;

  // Basis function   4 L = s
  InitBFNGauss(BAS[ATNO][  3]);
  BAS[ATNO][  3].l  = 0;
  BAS[ATNO][  3].ng = 54;
  BAS[ATNO][  3].a[  0] =    681358.800000000047;     BAS[ATNO][  3].d[  0] =        -0.000098643001;
  BAS[ATNO][  3].a[  1] =    102126.500000000000;     BAS[ATNO][  3].d[  1] =        -0.000765798333;
  BAS[ATNO][  3].a[  2] =     23243.709999999999;     BAS[ATNO][  3].d[  2] =        -0.003982792585;
  BAS[ATNO][  3].a[  3] =      6582.007000000000;     BAS[ATNO][  3].d[  3] =        -0.016278750401;
  BAS[ATNO][  3].a[  4] =      2146.429000000000;     BAS[ATNO][  3].d[  4] =        -0.053466610792;
  BAS[ATNO][  3].a[  5] =       774.337800000000;     BAS[ATNO][  3].d[  5] =        -0.134047322029;
  BAS[ATNO][  3].a[  6] =       301.670200000000;     BAS[ATNO][  3].d[  6] =        -0.210504415148;
  BAS[ATNO][  3].a[  7] =       123.411800000000;     BAS[ATNO][  3].d[  7] =        -0.143180892435;
  BAS[ATNO][  3].a[  8] =        38.567550000000;     BAS[ATNO][  3].d[  8] =        -0.016154657605;
  BAS[ATNO][  3].a[  9] =        16.637380000000;     BAS[ATNO][  3].d[  9] =         0.003848930675;
  BAS[ATNO][  3].a[ 10] =         5.198795000000;     BAS[ATNO][  3].d[ 10] =        -0.001472531100;
  BAS[ATNO][  3].a[ 11] =         2.294814000000;     BAS[ATNO][  3].d[ 11] =         0.000734537168;
  BAS[ATNO][  3].a[ 12] =         0.485211000000;     BAS[ATNO][  3].d[ 12] =        -0.000207606195;
  BAS[ATNO][  3].a[ 13] =    681358.800000000047;     BAS[ATNO][  3].d[ 13] =         0.000178327683;
  BAS[ATNO][  3].a[ 14] =    102126.500000000000;     BAS[ATNO][  3].d[ 14] =         0.001374441979;
  BAS[ATNO][  3].a[ 15] =     23243.709999999999;     BAS[ATNO][  3].d[ 15] =         0.007265276220;
  BAS[ATNO][  3].a[ 16] =      6582.007000000000;     BAS[ATNO][  3].d[ 16] =         0.029712488315;
  BAS[ATNO][  3].a[ 17] =      2146.429000000000;     BAS[ATNO][  3].d[ 17] =         0.104220202461;
  BAS[ATNO][  3].a[ 18] =       774.337800000000;     BAS[ATNO][  3].d[ 18] =         0.284904849671;
  BAS[ATNO][  3].a[ 19] =       301.670200000000;     BAS[ATNO][  3].d[ 19] =         0.613713860161;
  BAS[ATNO][  3].a[ 20] =       123.411800000000;     BAS[ATNO][  3].d[ 20] =         0.539912002534;
  BAS[ATNO][  3].a[ 21] =        38.567550000000;     BAS[ATNO][  3].d[ 21] =        -1.314182131087;
  BAS[ATNO][  3].a[ 22] =        16.637380000000;     BAS[ATNO][  3].d[ 22] =        -1.853708808210;
  BAS[ATNO][  3].a[ 23] =         5.198795000000;     BAS[ATNO][  3].d[ 23] =        -0.245581588717;
  BAS[ATNO][  3].a[ 24] =         2.294814000000;     BAS[ATNO][  3].d[ 24] =         0.044760535076;
  BAS[ATNO][  3].a[ 25] =         0.485211000000;     BAS[ATNO][  3].d[ 25] =        -0.010461699589;
  BAS[ATNO][  3].a[ 26] =    681358.800000000047;     BAS[ATNO][  3].d[ 26] =        -0.000114604286;
  BAS[ATNO][  3].a[ 27] =    102126.500000000000;     BAS[ATNO][  3].d[ 27] =        -0.000887377765;
  BAS[ATNO][  3].a[ 28] =     23243.709999999999;     BAS[ATNO][  3].d[ 28] =        -0.004671160235;
  BAS[ATNO][  3].a[ 29] =      6582.007000000000;     BAS[ATNO][  3].d[ 29] =        -0.019265026499;
  BAS[ATNO][  3].a[ 30] =      2146.429000000000;     BAS[ATNO][  3].d[ 30] =        -0.067408952290;
  BAS[ATNO][  3].a[ 31] =       774.337800000000;     BAS[ATNO][  3].d[ 31] =        -0.189198328665;
  BAS[ATNO][  3].a[ 32] =       301.670200000000;     BAS[ATNO][  3].d[ 32] =        -0.416052680051;
  BAS[ATNO][  3].a[ 33] =       123.411800000000;     BAS[ATNO][  3].d[ 33] =        -0.409916518041;
  BAS[ATNO][  3].a[ 34] =        38.567550000000;     BAS[ATNO][  3].d[ 34] =         1.351188213767;
  BAS[ATNO][  3].a[ 35] =        16.637380000000;     BAS[ATNO][  3].d[ 35] =         2.650948099393;
  BAS[ATNO][  3].a[ 36] =         5.198795000000;     BAS[ATNO][  3].d[ 36] =        -2.286828650701;
  BAS[ATNO][  3].a[ 37] =         2.294814000000;     BAS[ATNO][  3].d[ 37] =        -3.505738204248;
  BAS[ATNO][  3].a[ 38] =         0.485211000000;     BAS[ATNO][  3].d[ 38] =        -0.208619842944;
  BAS[ATNO][  3].a[ 39] =    681358.800000000047;     BAS[ATNO][  3].d[ 39] =        -0.000001861607;
  BAS[ATNO][  3].a[ 40] =    102126.500000000000;     BAS[ATNO][  3].d[ 40] =        -0.000014468690;
  BAS[ATNO][  3].a[ 41] =     23243.709999999999;     BAS[ATNO][  3].d[ 41] =        -0.000076113792;
  BAS[ATNO][  3].a[ 42] =      6582.007000000000;     BAS[ATNO][  3].d[ 42] =        -0.000314116670;
  BAS[ATNO][  3].a[ 43] =      2146.429000000000;     BAS[ATNO][  3].d[ 43] =        -0.001099808945;
  BAS[ATNO][  3].a[ 44] =       774.337800000000;     BAS[ATNO][  3].d[ 44] =        -0.003095262783;
  BAS[ATNO][  3].a[ 45] =       301.670200000000;     BAS[ATNO][  3].d[ 45] =        -0.006841805125;
  BAS[ATNO][  3].a[ 46] =       123.411800000000;     BAS[ATNO][  3].d[ 46] =        -0.006837822701;
  BAS[ATNO][  3].a[ 47] =        38.567550000000;     BAS[ATNO][  3].d[ 47] =         0.023627417646;
  BAS[ATNO][  3].a[ 48] =        16.637380000000;     BAS[ATNO][  3].d[ 48] =         0.049575716828;
  BAS[ATNO][  3].a[ 49] =         5.198795000000;     BAS[ATNO][  3].d[ 49] =        -0.054963842787;
  BAS[ATNO][  3].a[ 50] =         2.294814000000;     BAS[ATNO][  3].d[ 50] =        -0.130701213060;
  BAS[ATNO][  3].a[ 51] =         0.485211000000;     BAS[ATNO][  3].d[ 51] =         0.164234286947;
  BAS[ATNO][  3].a[ 52] =         0.186270000000;     BAS[ATNO][  3].d[ 52] =         0.019220111973;
  BAS[ATNO][  3].a[ 53] =         2.178900000000;     BAS[ATNO][  3].d[ 53] =         5.888756015972;

  // Basis function   5 L = s
  InitBFNGauss(BAS[ATNO][  4]);
  BAS[ATNO][  4].l  = 0;
  BAS[ATNO][  4].ng = 54;
  BAS[ATNO][  4].a[  0] =    681358.800000000047;     BAS[ATNO][  4].d[  0] =        -0.000087511791;
  BAS[ATNO][  4].a[  1] =    102126.500000000000;     BAS[ATNO][  4].d[  1] =        -0.000679383059;
  BAS[ATNO][  4].a[  2] =     23243.709999999999;     BAS[ATNO][  4].d[  2] =        -0.003533360799;
  BAS[ATNO][  4].a[  3] =      6582.007000000000;     BAS[ATNO][  4].d[  3] =        -0.014441801150;
  BAS[ATNO][  4].a[  4] =      2146.429000000000;     BAS[ATNO][  4].d[  4] =        -0.047433257604;
  BAS[ATNO][  4].a[  5] =       774.337800000000;     BAS[ATNO][  4].d[  5] =        -0.118920968859;
  BAS[ATNO][  4].a[  6] =       301.670200000000;     BAS[ATNO][  4].d[  6] =        -0.186750385009;
  BAS[ATNO][  4].a[  7] =       123.411800000000;     BAS[ATNO][  4].d[  7] =        -0.127023876290;
  BAS[ATNO][  4].a[  8] =        38.567550000000;     BAS[ATNO][  4].d[  8] =        -0.014331711405;
  BAS[ATNO][  4].a[  9] =        16.637380000000;     BAS[ATNO][  4].d[  9] =         0.003414604321;
  BAS[ATNO][  4].a[ 10] =         5.198795000000;     BAS[ATNO][  4].d[ 10] =        -0.001306365710;
  BAS[ATNO][  4].a[ 11] =         2.294814000000;     BAS[ATNO][  4].d[ 11] =         0.000651649510;
  BAS[ATNO][  4].a[ 12] =         0.485211000000;     BAS[ATNO][  4].d[ 12] =        -0.000184179209;
  BAS[ATNO][  4].a[ 13] =    681358.800000000047;     BAS[ATNO][  4].d[ 13] =         0.000159381851;
  BAS[ATNO][  4].a[ 14] =    102126.500000000000;     BAS[ATNO][  4].d[ 14] =         0.001228418964;
  BAS[ATNO][  4].a[ 15] =     23243.709999999999;     BAS[ATNO][  4].d[ 15] =         0.006493401120;
  BAS[ATNO][  4].a[ 16] =      6582.007000000000;     BAS[ATNO][  4].d[ 16] =         0.026555783847;
  BAS[ATNO][  4].a[ 17] =      2146.429000000000;     BAS[ATNO][  4].d[ 17] =         0.093147673791;
  BAS[ATNO][  4].a[ 18] =       774.337800000000;     BAS[ATNO][  4].d[ 18] =         0.254636081796;
  BAS[ATNO][  4].a[ 19] =       301.670200000000;     BAS[ATNO][  4].d[ 19] =         0.548511872913;
  BAS[ATNO][  4].a[ 20] =       123.411800000000;     BAS[ATNO][  4].d[ 20] =         0.482550848111;
  BAS[ATNO][  4].a[ 21] =        38.567550000000;     BAS[ATNO][  4].d[ 21] =        -1.174561222853;
  BAS[ATNO][  4].a[ 22] =        16.637380000000;     BAS[ATNO][  4].d[ 22] =        -1.656767683169;
  BAS[ATNO][  4].a[ 23] =         5.198795000000;     BAS[ATNO][  4].d[ 23] =        -0.219490589873;
  BAS[ATNO][  4].a[ 24] =         2.294814000000;     BAS[ATNO][  4].d[ 24] =         0.040005100945;
  BAS[ATNO][  4].a[ 25] =         0.485211000000;     BAS[ATNO][  4].d[ 25] =        -0.009350231122;
  BAS[ATNO][  4].a[ 26] =    681358.800000000047;     BAS[ATNO][  4].d[ 26] =        -0.000120927993;
  BAS[ATNO][  4].a[ 27] =    102126.500000000000;     BAS[ATNO][  4].d[ 27] =        -0.000936342051;
  BAS[ATNO][  4].a[ 28] =     23243.709999999999;     BAS[ATNO][  4].d[ 28] =        -0.004928908444;
  BAS[ATNO][  4].a[ 29] =      6582.007000000000;     BAS[ATNO][  4].d[ 29] =        -0.020328044215;
  BAS[ATNO][  4].a[ 30] =      2146.429000000000;     BAS[ATNO][  4].d[ 30] =        -0.071128485742;
  BAS[ATNO][  4].a[ 31] =       774.337800000000;     BAS[ATNO][  4].d[ 31] =        -0.199638032718;
  BAS[ATNO][  4].a[ 32] =       301.670200000000;     BAS[ATNO][  4].d[ 32] =        -0.439009895798;
  BAS[ATNO][  4].a[ 33] =       123.411800000000;     BAS[ATNO][  4].d[ 33] =        -0.432535148791;
  BAS[ATNO][  4].a[ 34] =        38.567550000000;     BAS[ATNO][  4].d[ 34] =         1.425744924551;
  BAS[ATNO][  4].a[ 35] =        16.637380000000;     BAS[ATNO][  4].d[ 35] =         2.797223776415;
  BAS[ATNO][  4].a[ 36] =         5.198795000000;     BAS[ATNO][  4].d[ 36] =        -2.413012716391;
  BAS[ATNO][  4].a[ 37] =         2.294814000000;     BAS[ATNO][  4].d[ 37] =        -3.699180025837;
  BAS[ATNO][  4].a[ 38] =         0.485211000000;     BAS[ATNO][  4].d[ 38] =        -0.220131199494;
  BAS[ATNO][  4].a[ 39] =    681358.800000000047;     BAS[ATNO][  4].d[ 39] =         0.000021636676;
  BAS[ATNO][  4].a[ 40] =    102126.500000000000;     BAS[ATNO][  4].d[ 40] =         0.000168163532;
  BAS[ATNO][  4].a[ 41] =     23243.709999999999;     BAS[ATNO][  4].d[ 41] =         0.000884638774;
  BAS[ATNO][  4].a[ 42] =      6582.007000000000;     BAS[ATNO][  4].d[ 42] =         0.003650846707;
  BAS[ATNO][  4].a[ 43] =      2146.429000000000;     BAS[ATNO][  4].d[ 43] =         0.012782619466;
  BAS[ATNO][  4].a[ 44] =       774.337800000000;     BAS[ATNO][  4].d[ 44] =         0.035974944981;
  BAS[ATNO][  4].a[ 45] =       301.670200000000;     BAS[ATNO][  4].d[ 45] =         0.079519439945;
[...]
  BAS[ATNO][  6].a[ 30] =         0.164369000000;     BAS[ATNO][  6].d[ 30] =         0.003922406385;
  BAS[ATNO][  6].a[ 31] =         2.632000000000;     BAS[ATNO][  6].d[ 31] =         0.229107409908;

  // Basis function   8 L = p
  InitBFNGauss(BAS[ATNO][  7]);
  BAS[ATNO][  7].l  = 1;
  BAS[ATNO][  7].ng = 32;
  BAS[ATNO][  7].a[  0] =      4474.270000000000;     BAS[ATNO][  7].d[  0] =        -0.000676918872;
  BAS[ATNO][  7].a[  1] =      1060.579000000000;     BAS[ATNO][  7].d[  1] =        -0.005676585085;
  BAS[ATNO][  7].a[  2] =       342.208100000000;     BAS[ATNO][  7].d[  2] =        -0.028353745968;
  BAS[ATNO][  7].a[  3] =       128.998400000000;     BAS[ATNO][  7].d[  3] =        -0.092912516747;
  BAS[ATNO][  7].a[  4] =        53.087220000000;     BAS[ATNO][  7].d[  4] =        -0.183648958722;
  BAS[ATNO][  7].a[  5] =        22.959420000000;     BAS[ATNO][  7].d[  5] =        -0.172764798219;
  BAS[ATNO][  7].a[  6] =         9.507300000000;     BAS[ATNO][  7].d[  6] =        -0.044718966915;
  BAS[ATNO][  7].a[  7] =         4.083055000000;     BAS[ATNO][  7].d[  7] =         0.001117194569;
  BAS[ATNO][  7].a[  8] =         1.750446000000;     BAS[ATNO][  7].d[  8] =        -0.001209009626;
  BAS[ATNO][  7].a[  9] =         0.529190000000;     BAS[ATNO][  7].d[  9] =         0.000310816912;
  BAS[ATNO][  7].a[ 10] =      4474.270000000000;     BAS[ATNO][  7].d[ 10] =         0.001387300413;
  BAS[ATNO][  7].a[ 11] =      1060.579000000000;     BAS[ATNO][  7].d[ 11] =         0.011667804315;
  BAS[ATNO][  7].a[ 12] =       342.208100000000;     BAS[ATNO][  7].d[ 12] =         0.059993368379;
  BAS[ATNO][  7].a[ 13] =       128.998400000000;     BAS[ATNO][  7].d[ 13] =         0.204658767162;
  BAS[ATNO][  7].a[ 14] =        53.087220000000;     BAS[ATNO][  7].d[ 14] =         0.439825182172;
  BAS[ATNO][  7].a[ 15] =        22.959420000000;     BAS[ATNO][  7].d[ 15] =         0.365317227912;
  BAS[ATNO][  7].a[ 16] =         9.507300000000;     BAS[ATNO][  7].d[ 16] =        -0.611905853946;
  BAS[ATNO][  7].a[ 17] =         4.083055000000;     BAS[ATNO][  7].d[ 17] =        -1.336705066793;
  BAS[ATNO][  7].a[ 18] =         1.750446000000;     BAS[ATNO][  7].d[ 18] =        -0.614643135319;
  BAS[ATNO][  7].a[ 19] =         0.529190000000;     BAS[ATNO][  7].d[ 19] =        -0.028538432120;
  BAS[ATNO][  7].a[ 20] =      4474.270000000000;     BAS[ATNO][  7].d[ 20] =         0.000017760689;
  BAS[ATNO][  7].a[ 21] =      1060.579000000000;     BAS[ATNO][  7].d[ 21] =         0.000146846755;
  BAS[ATNO][  7].a[ 22] =       342.208100000000;     BAS[ATNO][  7].d[ 22] =         0.000772271510;
  BAS[ATNO][  7].a[ 23] =       128.998400000000;     BAS[ATNO][  7].d[ 23] =         0.002592099989;
  BAS[ATNO][  7].a[ 24] =        53.087220000000;     BAS[ATNO][  7].d[ 24] =         0.005817434842;
  BAS[ATNO][  7].a[ 25] =        22.959420000000;     BAS[ATNO][  7].d[ 25] =         0.004303202980;
  BAS[ATNO][  7].a[ 26] =         9.507300000000;     BAS[ATNO][  7].d[ 26] =        -0.009147193359;
  BAS[ATNO][  7].a[ 27] =         4.083055000000;     BAS[ATNO][  7].d[ 27] =        -0.025482944660;
  BAS[ATNO][  7].a[ 28] =         1.750446000000;     BAS[ATNO][  7].d[ 28] =        -0.003080263123;
  BAS[ATNO][  7].a[ 29] =         0.529190000000;     BAS[ATNO][  7].d[ 29] =         0.062776308955;
  BAS[ATNO][  7].a[ 30] =         0.164369000000;     BAS[ATNO][  7].d[ 30] =        -0.003878352458;
  BAS[ATNO][  7].a[ 31] =         2.632000000000;     BAS[ATNO][  7].d[ 31] =         1.475909764712;

  // Basis function   9 L = p
  InitBFNGauss(BAS[ATNO][  8]);
  BAS[ATNO][  8].l  = 1;
  BAS[ATNO][  8].ng = 32;
  BAS[ATNO][  8].a[  0] =      4474.270000000000;     BAS[ATNO][  8].d[  0] =        -0.001038340711;
  BAS[ATNO][  8].a[  1] =      1060.579000000000;     BAS[ATNO][  8].d[  1] =        -0.008707438416;
  BAS[ATNO][  8].a[  2] =       342.208100000000;     BAS[ATNO][  8].d[  2] =        -0.043492433069;
  BAS[ATNO][  8].a[  3] =       128.998400000000;     BAS[ATNO][  8].d[  3] =        -0.142520548096;
  BAS[ATNO][  8].a[  4] =        53.087220000000;     BAS[ATNO][  8].d[  4] =        -0.281703167353;
  BAS[ATNO][  8].a[  5] =        22.959420000000;     BAS[ATNO][  8].d[  5] =        -0.265007714740;
  BAS[ATNO][  8].a[  6] =         9.507300000000;     BAS[ATNO][  8].d[  6] =        -0.068595404560;
  BAS[ATNO][  8].a[  7] =         4.083055000000;     BAS[ATNO][  8].d[  7] =         0.001713689263;
  BAS[ATNO][  8].a[  8] =         1.750446000000;     BAS[ATNO][  8].d[  8] =        -0.001854526394;
  BAS[ATNO][  8].a[  9] =         0.529190000000;     BAS[ATNO][  8].d[  9] =         0.000476768880;
  BAS[ATNO][  8].a[ 10] =      4474.270000000000;     BAS[ATNO][  8].d[ 10] =         0.001348623108;
  BAS[ATNO][  8].a[ 11] =      1060.579000000000;     BAS[ATNO][  8].d[ 11] =         0.011342511233;
  BAS[ATNO][  8].a[ 12] =       342.208100000000;     BAS[ATNO][  8].d[ 12] =         0.058320780532;
  BAS[ATNO][  8].a[ 13] =       128.998400000000;     BAS[ATNO][  8].d[ 13] =         0.198952973740;
  BAS[ATNO][  8].a[ 14] =        53.087220000000;     BAS[ATNO][  8].d[ 14] =         0.427563055971;
  BAS[ATNO][  8].a[ 15] =        22.959420000000;     BAS[ATNO][  8].d[ 15] =         0.355132349616;
  BAS[ATNO][  8].a[ 16] =         9.507300000000;     BAS[ATNO][  8].d[ 16] =        -0.594846196817;
  BAS[ATNO][  8].a[ 17] =         4.083055000000;     BAS[ATNO][  8].d[ 17] =        -1.299438336995;
  BAS[ATNO][  8].a[ 18] =         1.750446000000;     BAS[ATNO][  8].d[ 18] =        -0.597507164030;
  BAS[ATNO][  8].a[ 19] =         0.529190000000;     BAS[ATNO][  8].d[ 19] =        -0.027742793601;
  BAS[ATNO][  8].a[ 20] =      4474.270000000000;     BAS[ATNO][  8].d[ 20] =         0.000014749905;
  BAS[ATNO][  8].a[ 21] =      1060.579000000000;     BAS[ATNO][  8].d[ 21] =         0.000121953356;
  BAS[ATNO][  8].a[ 22] =       342.208100000000;     BAS[ATNO][  8].d[ 22] =         0.000641356374;
  BAS[ATNO][  8].a[ 23] =       128.998400000000;     BAS[ATNO][  8].d[ 23] =         0.002152688309;
  BAS[ATNO][  8].a[ 24] =        53.087220000000;     BAS[ATNO][  8].d[ 24] =         0.004831265779;
  BAS[ATNO][  8].a[ 25] =        22.959420000000;     BAS[ATNO][  8].d[ 25] =         0.003573725854;
  BAS[ATNO][  8].a[ 26] =         9.507300000000;     BAS[ATNO][  8].d[ 26] =        -0.007596565058;
  BAS[ATNO][  8].a[ 27] =         4.083055000000;     BAS[ATNO][  8].d[ 27] =        -0.021163086794;
  BAS[ATNO][  8].a[ 28] =         1.750446000000;     BAS[ATNO][  8].d[ 28] =        -0.002558098238;
  BAS[ATNO][  8].a[ 29] =         0.529190000000;     BAS[ATNO][  8].d[ 29] =         0.052134495944;
  BAS[ATNO][  8].a[ 30] =         0.164369000000;     BAS[ATNO][  8].d[ 30] =         0.001324689398;
  BAS[ATNO][  8].a[ 31] =         2.632000000000;     BAS[ATNO][  8].d[ 31] =         2.864996685556;

  // Basis function  10 L = p
  InitBFNGauss(BAS[ATNO][  9]);
  BAS[ATNO][  9].l  = 1;
  BAS[ATNO][  9].ng = 32;
  BAS[ATNO][  9].a[  0] =      4474.270000000000;     BAS[ATNO][  9].d[  0] =        -0.000612768513;
  BAS[ATNO][  9].a[  1] =      1060.579000000000;     BAS[ATNO][  9].d[  1] =        -0.005138625532;
  BAS[ATNO][  9].a[  2] =       342.208100000000;     BAS[ATNO][  9].d[  2] =        -0.025666713486;
  BAS[ATNO][  9].a[  3] =       128.998400000000;     BAS[ATNO][  9].d[  3] =        -0.084107368012;
  BAS[ATNO][  9].a[  4] =        53.087220000000;     BAS[ATNO][  9].d[  4] =        -0.166244883866;
  BAS[ATNO][  9].a[  5] =        22.959420000000;     BAS[ATNO][  9].d[  5] =        -0.156392195283;
  BAS[ATNO][  9].a[  6] =         9.507300000000;     BAS[ATNO][  9].d[  6] =        -0.040481032471;
  BAS[ATNO][  9].a[  7] =         4.083055000000;     BAS[ATNO][  9].d[  7] =         0.001011320090;
  BAS[ATNO][  9].a[  8] =         1.750446000000;     BAS[ATNO][  9].d[  8] =        -0.001094434002;
  BAS[ATNO][  9].a[  9] =         0.529190000000;     BAS[ATNO][  9].d[  9] =         0.000281361363;
  BAS[ATNO][  9].a[ 10] =      4474.270000000000;     BAS[ATNO][  9].d[ 10] =         0.001081701340;
  BAS[ATNO][  9].a[ 11] =      1060.579000000000;     BAS[ATNO][  9].d[ 11] =         0.009097582214;
  BAS[ATNO][  9].a[ 12] =       342.208100000000;     BAS[ATNO][  9].d[ 12] =         0.046777832950;
  BAS[ATNO][  9].a[ 13] =       128.998400000000;     BAS[ATNO][  9].d[ 13] =         0.159575864481;
  BAS[ATNO][  9].a[ 14] =        53.087220000000;     BAS[ATNO][  9].d[ 14] =         0.342939052350;
  BAS[ATNO][  9].a[ 15] =        22.959420000000;     BAS[ATNO][  9].d[ 15] =         0.284843953974;
  BAS[ATNO][  9].a[ 16] =         9.507300000000;     BAS[ATNO][  9].d[ 16] =        -0.477113230860;
  BAS[ATNO][  9].a[ 17] =         4.083055000000;     BAS[ATNO][  9].d[ 17] =        -1.042251302242;
  BAS[ATNO][  9].a[ 18] =         1.750446000000;     BAS[ATNO][  9].d[ 18] =        -0.479247534938;
  BAS[ATNO][  9].a[ 19] =         0.529190000000;     BAS[ATNO][  9].d[ 19] =        -0.022251892942;
  BAS[ATNO][  9].a[ 20] =      4474.270000000000;     BAS[ATNO][  9].d[ 20] =        -0.000367284849;
  BAS[ATNO][  9].a[ 21] =      1060.579000000000;     BAS[ATNO][  9].d[ 21] =        -0.003036739632;
  BAS[ATNO][  9].a[ 22] =       342.208100000000;     BAS[ATNO][  9].d[ 22] =        -0.015970305276;
  BAS[ATNO][  9].a[ 23] =       128.998400000000;     BAS[ATNO][  9].d[ 23] =        -0.053603723024;
  BAS[ATNO][  9].a[ 24] =        53.087220000000;     BAS[ATNO][  9].d[ 24] =        -0.120302522020;
  BAS[ATNO][  9].a[ 25] =        22.959420000000;     BAS[ATNO][  9].d[ 25] =        -0.088988735639;
  BAS[ATNO][  9].a[ 26] =         9.507300000000;     BAS[ATNO][  9].d[ 26] =         0.189160765914;
  BAS[ATNO][  9].a[ 27] =         4.083055000000;     BAS[ATNO][  9].d[ 27] =         0.526978400994;
  BAS[ATNO][  9].a[ 28] =         1.750446000000;     BAS[ATNO][  9].d[ 28] =         0.063698766256;
  BAS[ATNO][  9].a[ 29] =         0.529190000000;     BAS[ATNO][  9].d[ 29] =        -1.298192157706;
  BAS[ATNO][  9].a[ 30] =         0.164369000000;     BAS[ATNO][  9].d[ 30] =         0.261179600062;
  BAS[ATNO][  9].a[ 31] =         2.632000000000;     BAS[ATNO][  9].d[ 31] =         1.655510029199;

  // Basis function  11 L = p
  InitBFNGauss(BAS[ATNO][ 10]);
  BAS[ATNO][ 10].l  = 1;
  BAS[ATNO][ 10].ng = 32;
  BAS[ATNO][ 10].a[  0] =      4474.270000000000;     BAS[ATNO][ 10].d[  0] =        -0.000225320033;
  BAS[ATNO][ 10].a[  1] =      1060.579000000000;     BAS[ATNO][ 10].d[  1] =        -0.001889514963;
  BAS[ATNO][ 10].a[  2] =       342.208100000000;     BAS[ATNO][ 10].d[  2] =        -0.009437862106;
  BAS[ATNO][ 10].a[  3] =       128.998400000000;     BAS[ATNO][ 10].d[  3] =        -0.030926972471;
  BAS[ATNO][ 10].a[  4] =        53.087220000000;     BAS[ATNO][ 10].d[  4] =        -0.061129614066;
  BAS[ATNO][ 10].a[  5] =        22.959420000000;     BAS[ATNO][ 10].d[  5] =        -0.057506699264;
  BAS[ATNO][ 10].a[  6] =         9.507300000000;     BAS[ATNO][ 10].d[  6] =        -0.014885209303;
  BAS[ATNO][ 10].a[  7] =         4.083055000000;     BAS[ATNO][ 10].d[  7] =         0.000371870733;
  BAS[ATNO][ 10].a[  8] =         1.750446000000;     BAS[ATNO][ 10].d[  8] =        -0.000402432404;
  BAS[ATNO][ 10].a[  9] =         0.529190000000;     BAS[ATNO][ 10].d[  9] =         0.000103458892;
  BAS[ATNO][ 10].a[ 10] =      4474.270000000000;     BAS[ATNO][ 10].d[ 10] =         0.000484415344;
  BAS[ATNO][ 10].a[ 11] =      1060.579000000000;     BAS[ATNO][ 10].d[ 11] =         0.004074145291;
  BAS[ATNO][ 10].a[ 12] =       342.208100000000;     BAS[ATNO][ 10].d[ 12] =         0.020948388631;
  BAS[ATNO][ 10].a[ 13] =       128.998400000000;     BAS[ATNO][ 10].d[ 13] =         0.071462421715;
  BAS[ATNO][ 10].a[ 14] =        53.087220000000;     BAS[ATNO][ 10].d[ 14] =         0.153577455220;
  BAS[ATNO][ 10].a[ 15] =        22.959420000000;     BAS[ATNO][ 10].d[ 15] =         0.127560886655;
  BAS[ATNO][ 10].a[ 16] =         9.507300000000;     BAS[ATNO][ 10].d[ 16] =        -0.213664309577;
  BAS[ATNO][ 10].a[ 17] =         4.083055000000;     BAS[ATNO][ 10].d[ 17] =        -0.466748542056;
  BAS[ATNO][ 10].a[ 18] =         1.750446000000;     BAS[ATNO][ 10].d[ 18] =        -0.214620109119;
  BAS[ATNO][ 10].a[ 19] =         0.529190000000;     BAS[ATNO][ 10].d[ 19] =        -0.009965004185;
  BAS[ATNO][ 10].a[ 20] =      4474.270000000000;     BAS[ATNO][ 10].d[ 20] =        -0.000232869596;
  BAS[ATNO][ 10].a[ 21] =      1060.579000000000;     BAS[ATNO][ 10].d[ 21] =        -0.001925383893;
  BAS[ATNO][ 10].a[ 22] =       342.208100000000;     BAS[ATNO][ 10].d[ 22] =        -0.010125651938;
  BAS[ATNO][ 10].a[ 23] =       128.998400000000;     BAS[ATNO][ 10].d[ 23] =        -0.033986366106;
  BAS[ATNO][ 10].a[ 24] =        53.087220000000;     BAS[ATNO][ 10].d[ 24] =        -0.076275402643;
  BAS[ATNO][ 10].a[ 25] =        22.959420000000;     BAS[ATNO][ 10].d[ 25] =        -0.056421524068;
  BAS[ATNO][ 10].a[ 26] =         9.507300000000;     BAS[ATNO][ 10].d[ 26] =         0.119933591932;
  BAS[ATNO][ 10].a[ 27] =         4.083055000000;     BAS[ATNO][ 10].d[ 27] =         0.334120091956;
  BAS[ATNO][ 10].a[ 28] =         1.750446000000;     BAS[ATNO][ 10].d[ 28] =         0.040386925914;
  BAS[ATNO][ 10].a[ 29] =         0.529190000000;     BAS[ATNO][ 10].d[ 29] =        -0.823092715548;
  BAS[ATNO][ 10].a[ 30] =         0.164369000000;     BAS[ATNO][ 10].d[ 30] =         1.363390295636;
  BAS[ATNO][ 10].a[ 31] =         2.632000000000;     BAS[ATNO][ 10].d[ 31] =         0.543340461309;

  // Basis function  12 L = d
  InitBFNGauss(BAS[ATNO][ 11]);
  BAS[ATNO][ 11].l  = 2;
  BAS[ATNO][ 11].ng = 7;
  BAS[ATNO][ 11].a[  0] =       115.525300000000;     BAS[ATNO][ 11].d[  0] =        -0.035609342279;
  BAS[ATNO][ 11].a[  1] =        33.465250000000;     BAS[ATNO][ 11].d[  1] =        -0.214349890656;
  BAS[ATNO][ 11].a[  2] =        11.830460000000;     BAS[ATNO][ 11].d[  2] =        -0.589304715501;
  BAS[ATNO][ 11].a[  3] =         4.339771000000;     BAS[ATNO][ 11].d[  3] =        -0.799515263601;
  BAS[ATNO][ 11].a[  4] =         1.507524000000;     BAS[ATNO][ 11].d[  4] =        -0.432644174815;
  BAS[ATNO][ 11].a[  5] =         0.503000000000;     BAS[ATNO][ 11].d[  5] =         0.063361239209;
  BAS[ATNO][ 11].a[  6] =         2.572300000000;     BAS[ATNO][ 11].d[  6] =         0.908501038453;

  // Basis function  13 L = d
  InitBFNGauss(BAS[ATNO][ 12]);
  BAS[ATNO][ 12].l  = 2;
  BAS[ATNO][ 12].ng = 7;
  BAS[ATNO][ 12].a[  0] =       115.525300000000;     BAS[ATNO][ 12].d[  0] =        -0.016387113763;
  BAS[ATNO][ 12].a[  1] =        33.465250000000;     BAS[ATNO][ 12].d[  1] =        -0.098641980402;
  BAS[ATNO][ 12].a[  2] =        11.830460000000;     BAS[ATNO][ 12].d[  2] =        -0.271192973410;
  BAS[ATNO][ 12].a[  3] =         4.339771000000;     BAS[ATNO][ 12].d[  3] =        -0.367930063886;
  BAS[ATNO][ 12].a[  4] =         1.507524000000;     BAS[ATNO][ 12].d[  4] =        -0.199099136848;
  BAS[ATNO][ 12].a[  5] =         0.503000000000;     BAS[ATNO][ 12].d[  5] =        -0.002326014322;
  BAS[ATNO][ 12].a[  6] =         2.572300000000;     BAS[ATNO][ 12].d[  6] =         1.529457944889;

  // Basis function  14 L = d
  InitBFNGauss(BAS[ATNO][ 13]);
  BAS[ATNO][ 13].l  = 2;
  BAS[ATNO][ 13].ng = 7;
  BAS[ATNO][ 13].a[  0] =       115.525300000000;     BAS[ATNO][ 13].d[  0] =         0.003969171894;
  BAS[ATNO][ 13].a[  1] =        33.465250000000;     BAS[ATNO][ 13].d[  1] =         0.023892369448;
  BAS[ATNO][ 13].a[  2] =        11.830460000000;     BAS[ATNO][ 13].d[  2] =         0.065686462152;
  BAS[ATNO][ 13].a[  3] =         4.339771000000;     BAS[ATNO][ 13].d[  3] =         0.089117442507;
  BAS[ATNO][ 13].a[  4] =         1.507524000000;     BAS[ATNO][ 13].d[  4] =         0.048224398120;
  BAS[ATNO][ 13].a[  5] =         0.503000000000;     BAS[ATNO][ 13].d[  5] =         1.066089035988;
  BAS[ATNO][ 13].a[  6] =         2.572300000000;     BAS[ATNO][ 13].d[  6] =        -0.494549147690;

  // Basis function  15 L = f
  InitBFNGauss(BAS[ATNO][ 14]);
  BAS[ATNO][ 14].l  = 3;
  BAS[ATNO][ 14].ng = 1;
  BAS[ATNO][ 14].a[  0] =         7.584100000000;     BAS[ATNO][ 14].d[  0] =         1.000000000000;

-------
TIMINGS
-------

Total SCF time: 0 days 0 hours 0 min 2 sec 

Total time                  ....       2.528 sec
Sum of individual times     ....       2.330 sec  ( 92.1%)

Fock matrix formation       ....       1.571 sec  ( 62.1%)
  XC integration            ....       0.023 sec  (  1.5% of F)
    Basis function eval.    ....       0.008 sec  ( 35.1% of XC)
    Density eval.           ....       0.001 sec  (  5.4% of XC)
    XC-Functional eval.     ....       0.002 sec  (  7.4% of XC)
    XC-Potential eval.      ....       0.001 sec  (  6.3% of XC)
Diagonalization             ....       0.001 sec  (  0.0%)
Density matrix formation    ....       0.000 sec  (  0.0%)
Population analysis         ....       0.001 sec  (  0.0%)
Initial guess               ....       0.094 sec  (  3.7%)
Orbital Transformation      ....       0.000 sec  (  0.0%)
Orbital Orthonormalization  ....       0.000 sec  (  0.0%)
DIIS solution               ....       0.000 sec  (  0.0%)
SOSCF solution              ....       0.001 sec  (  0.0%)
Grid generation             ....       0.663 sec  ( 26.2%)

-------------------------   --------------------
FINAL SINGLE POINT ENERGY     -1270.708244965706
-------------------------   --------------------


                            ***************************************
                            *     ORCA property calculations      *
                            ***************************************

                                    ---------------------
                                    Active property flags
                                    ---------------------
   (+) Dipole Moment


------------------------------------------------------------------------------
                       ORCA ELECTRIC PROPERTIES CALCULATION
------------------------------------------------------------------------------

Dipole Moment Calculation                       ... on
Quadrupole Moment Calculation                   ... off
Polarizability Calculation                      ... off
GBWName                                         ... Kr_cc-pcvdz_.gbw
Electron density file                           ... Kr_cc-pcvdz_.scfp
The origin for moment calculation is the CENTER OF MASS  = ( 0.000000,  0.000000  0.000000)

-------------
DIPOLE MOMENT
-------------
                                X             Y             Z
Electronic contribution:      0.00000       0.00000       0.00000
Nuclear contribution   :      0.00000       0.00000       0.00000
                        -----------------------------------------
Total Dipole Moment    :      0.00000       0.00000       0.00000
                        -----------------------------------------
Magnitude (a.u.)       :      0.00000
Magnitude (Debye)      :      0.00000



--------------------
Rotational spectrum 
--------------------
 
Rotational constants in cm-1:     0.000000     0.000000     0.000000 
Rotational constants in MHz :     0.000000     0.000000     0.000000 

 Dipole components along the rotational axes: 
x,y,z [a.u.] :     0.000000     0.000000     0.000000 
x,y,z [Debye]:     0.000000     0.000000     0.000000 

 

Timings for individual modules:

Sum of individual times         ...        3.506 sec (=   0.058 min)
GTO integral calculation        ...        0.736 sec (=   0.012 min)  21.0 %
SCF iterations                  ...        2.770 sec (=   0.046 min)  79.0 %
                             ****ORCA TERMINATED NORMALLY****
TOTAL RUN TIME: 0 days 0 hours 0 minutes 3 seconds 852 msec
