
                                 *****************
                                 * O   R   C   A *
                                 *****************

           --- An Ab Initio, DFT and Semiempirical electronic structure package ---

                  #######################################################
                  #                        -***-                        #
                  #          Department of theory and spectroscopy      #
                  #               Directorship: Frank Neese             #
                  #        Max Planck Institute fuer Kohlenforschung    #
                  #                Kaiser Wilhelm Platz 1               #
                  #                 D-45470 Muelheim/Ruhr               #
                  #                      Germany                        #
                  #                                                     #
                  #                  All rights reserved                #
                  #                        -***-                        #
                  #######################################################


                         Program Version 4.2.1 -  RELEASE  -


 With contributions from (in alphabetic order):
   Daniel Aravena         : Magnetic Suceptibility
   Michael Atanasov       : Ab Initio Ligand Field Theory (pilot matlab implementation)
   Alexander A. Auer      : GIAO ZORA, VPT2
   Ute Becker             : Parallelization
   Giovanni Bistoni       : ED, misc. LED, open-shell LED, HFLD
   Martin Brehm           : Molecular dynamics
   Dmytro Bykov           : SCF Hessian
   Vijay G. Chilkuri      : MRCI spin determinant printing, contributions to CSF-ICE
   Dipayan Datta          : RHF DLPNO-CCSD density
   Achintya Kumar Dutta   : EOM-CC, STEOM-CC
   Dmitry Ganyushin       : Spin-Orbit,Spin-Spin,Magnetic field MRCI
   Miquel Garcia          : C-PCM Hessian, Gaussian charge scheme
   Yang Guo               : DLPNO-NEVPT2, CIM, IAO-localization
   Andreas Hansen         : Spin unrestricted coupled pair/coupled cluster methods
   Benjamin Helmich-Paris : CASSCF linear response (MC-RPA)
   Lee Huntington         : MR-EOM, pCC
   Robert Izsak           : Overlap fitted RIJCOSX, COSX-SCS-MP3, EOM
   Christian Kollmar      : KDIIS, OOCD, Brueckner-CCSD(T), CCSD density
   Simone Kossmann        : Meta GGA functionals, TD-DFT gradient, OOMP2, MP2 Hessian
   Martin Krupicka        : AUTO-CI
   Lucas Lang             : DCDCAS
   Dagmar Lenk            : GEPOL surface, SMD
   Dimitrios Liakos       : Extrapolation schemes; Compound Job, initial MDCI parallelization
   Dimitrios Manganas     : Further ROCIS development; embedding schemes
   Dimitrios Pantazis     : SARC Basis sets
   Taras Petrenko         : DFT Hessian,TD-DFT gradient, ASA, ECA, R-Raman, ABS, FL, XAS/XES, NRVS
   Peter Pinski           : DLPNO-MP2, DLPNO-MP2 Gradient
   Christoph Reimann      : Effective Core Potentials
   Marius Retegan         : Local ZFS, SOC
   Christoph Riplinger    : Optimizer, TS searches, QM/MM, DLPNO-CCSD(T), (RO)-DLPNO pert. Triples
   Tobias Risthaus        : Range-separated hybrids, TD-DFT gradient, RPA, STAB
   Michael Roemelt        : Original ROCIS implementation
   Masaaki Saitow         : Open-shell DLPNO-CCSD energy and density
   Barbara Sandhoefer     : DKH picture change effects
   Avijit Sen             : IP-ROCIS
   Kantharuban Sivalingam : CASSCF convergence, NEVPT2, FIC-MRCI
   Bernardo de Souza      : ESD, SOC TD-DFT
   Georgi Stoychev        : AutoAux, RI-MP2 NMR
   Willem Van den Heuvel  : Paramagnetic NMR
   Boris Wezisla          : Elementary symmetry handling
   Frank Wennmohs         : Technical directorship


 We gratefully acknowledge several colleagues who have allowed us to
 interface, adapt or use parts of their codes:
   Stefan Grimme, W. Hujo, H. Kruse,             : VdW corrections, initial TS optimization,
                  C. Bannwarth                     DFT functionals, gCP, sTDA/sTD-DF
   Ed Valeev, F. Pavosevic, A. Kumar             : LibInt (2-el integral package), F12 methods
   Garnet Chan, S. Sharma, J. Yang, R. Olivares  : DMRG
   Ulf Ekstrom                                   : XCFun DFT Library
   Mihaly Kallay                                 : mrcc  (arbitrary order and MRCC methods)
   Andreas Klamt, Michael Diedenhofen            : otool_cosmo (COSMO solvation model)
   Jiri Pittner, Ondrej Demel                    : Mk-CCSD
   Frank Weinhold                                : gennbo (NPA and NBO analysis)
   Christopher J. Cramer and Donald G. Truhlar   : smd solvation model
   Lars Goerigk                                  : TD-DFT with DH, B97 family of functionals
   V. Asgeirsson, H. Jonsson                     : NEB implementation
   FAccTs GmbH                                   : IRC, NEB, NEB-TS, Multilevel, MM, QM/MM, CI optimization
   S Lehtola, MJT Oliveira, MAL Marques          : LibXC Library


 Your calculation uses the libint2 library for the computation of 2-el integrals
 For citations please refer to: http://libint.valeyev.net

 Your ORCA version has been built with support for libXC version: 4.2.3
 For citations please refer to: https://tddft.org/programs/libxc/

 This ORCA versions uses:
   CBLAS   interface :  Fast vector & matrix operations
   LAPACKE interface :  Fast linear algebra routines
   SCALAPACK package :  Parallel linear algebra routines


----- Orbital basis set information -----
Your calculation utilizes the basis: pc-2
   H, C-F              : F. Jensen, J. Chem. Phys. 115, 9113 (2001).
                         F. Jensen, J. Chem. Phys. 116, 7372 (2002).
                         F. Jensen, J. Chem. Phys. 117, 9234 (2002).
   Si-Cl               : F. Jensen, T. Helgaker, J. Chem. Phys. 121, 3463 (2004).
   He-B, Ne-Mg, Al, Ar : F. Jensen, J. Phys. Chem. A 111, 11198 (2007).
   K, Ca, Ga-Kr        : F. Jensen, J. Chem. Phys. 136, 094110 (2012).
   Sc-Zn               : F. Jensen, J. Chem. Phys. 138, 014107 (2013).

================================================================================
                                        WARNINGS
                       Please study these warnings very carefully!
================================================================================


INFO   : the flag for use of LIBINT has been found!

================================================================================
                                       INPUT FILE
================================================================================
NAME = Kr_pc-2_.inp
|  1> ! LDA pc-2 nori grid5 finalgrid6 verytightscf
|  2> %Pal NProcs 18 End
|  3> 
|  4> *xyz 34 1
|  5> Kr 0.0 0.0 0.0
|  6> **                         ****END OF INPUT****
================================================================================

                       ****************************
                       * Single Point Calculation *
                       ****************************

---------------------------------
CARTESIAN COORDINATES (ANGSTROEM)
---------------------------------
  Kr     0.000000    0.000000    0.000000

----------------------------
CARTESIAN COORDINATES (A.U.)
----------------------------
  NO LB      ZA    FRAG     MASS         X           Y           Z
   0 Kr   36.0000    0    83.800    0.000000    0.000000    0.000000

--------------------------------
INTERNAL COORDINATES (ANGSTROEM)
--------------------------------
 Kr     0   0   0     0.000000000000     0.00000000     0.00000000

---------------------------
INTERNAL COORDINATES (A.U.)
---------------------------
 Kr     0   0   0     0.000000000000     0.00000000     0.00000000

---------------------
BASIS SET INFORMATION
---------------------
There are 1 groups of distinct atoms

 Group   1 Type Kr  : 58s35p9d1f contracted to 6s5p3d1f pattern {1414141411/11111111/711/1}

Atom   0Kr   basis set group =>   1


           ************************************************************
           *        Program running with 18 parallel MPI-processes    *
           *              working on a common directory               *
           ************************************************************
------------------------------------------------------------------------------
                           ORCA GTO INTEGRAL CALCULATION
------------------------------------------------------------------------------

                         BASIS SET STATISTICS AND STARTUP INFO

 # of primitive gaussian shells          ...  103
 # of primitive gaussian functions       ...  215
 # of contracted shells                  ...   15
 # of contracted basis functions         ...   43
 Highest angular momentum                ...    3
 Maximum contraction depth               ...   14
 Integral package used                   ... LIBINT
 Integral threshhold            Thresh   ...  1.000e-12
 Primitive cut-off              TCut     ...  1.000e-14


------------------------------ INTEGRAL EVALUATION ----------------------------


 * One electron integrals 
 Pre-screening matrix                    ... done
 Shell pair data                         ... done (   0.000 sec)



           ************************************************************
           *        Program running with 18 parallel MPI-processes    *
           *              working on a common directory               *
           ************************************************************
-------------------------------------------------------------------------------
                                 ORCA SCF
-------------------------------------------------------------------------------

------------
SCF SETTINGS
------------
Hamiltonian:
 Density Functional     Method          .... DFT(GTOs)
 Exchange Functional    Exchange        .... Slater
   X-Alpha parameter    XAlpha          ....  0.666667
 Correlation Functional Correlation     .... VWN-5
 Gradients option       PostSCFGGA      .... off
   Density functional embedding theory  .... OFF


General Settings:
 Integral files         IntName         .... Kr_pc-2_
 Hartree-Fock type      HFTyp           .... RHF
 Total Charge           Charge          ....   34
 Multiplicity           Mult            ....    1
 Number of Electrons    NEL             ....    2
 Basis Dimension        Dim             ....   43
 Nuclear Repulsion      ENuc            ....      0.0000000000 Eh

Convergence Acceleration:
 DIIS                   CNVDIIS         .... on
   Start iteration      DIISMaxIt       ....    12
   Startup error        DIISStart       ....  0.200000
   # of expansion vecs  DIISMaxEq       ....     5
   Bias factor          DIISBfac        ....   1.050
   Max. coefficient     DIISMaxC        ....  10.000
 Newton-Raphson         CNVNR           .... off
 SOSCF                  CNVSOSCF        .... on
   Start iteration      SOSCFMaxIt      ....   150
   Startup grad/error   SOSCFStart      ....  0.003300
 Level Shifting         CNVShift        .... on
   Level shift para.    LevelShift      ....    0.2500
   Turn off err/grad.   ShiftErr        ....    0.0010
 Zerner damping         CNVZerner       .... off
 Static damping         CNVDamp         .... on
   Fraction old density DampFac         ....    0.7000
   Max. Damping (<1)    DampMax         ....    0.9800
   Min. Damping (>=0)   DampMin         ....    0.0000
   Turn off err/grad.   DampErr         ....    0.1000
 Fernandez-Rico         CNVRico         .... off

SCF Procedure:
 Maximum # iterations   MaxIter         ....   125
 SCF integral mode      SCFMode         .... Direct
   Integral package                     .... LIBINT
 Reset frequency        DirectResetFreq ....    20
 Integral Threshold     Thresh          ....  1.000e-12 Eh
 Primitive CutOff       TCut            ....  1.000e-14 Eh

Convergence Tolerance:
 Convergence Check Mode ConvCheckMode   .... Total+1el-Energy
 Convergence forced     ConvForced      .... 0
 Energy Change          TolE            ....  1.000e-09 Eh
 1-El. energy change                    ....  1.000e-06 Eh
 Orbital Gradient       TolG            ....  2.000e-06
 Orbital Rotation angle TolX            ....  2.000e-06
 DIIS Error             TolErr          ....  1.000e-08


Diagonalization of the overlap matrix:
Smallest eigenvalue                        ... 3.309e-04
Time for diagonalization                   ...    0.001 sec
Threshold for overlap eigenvalues          ... 1.000e-08
Number of eigenvalues below threshold      ... 0
Time for construction of square roots      ...    0.001 sec
Total time needed                          ...    0.002 sec

-------------------
DFT GRID GENERATION
-------------------

General Integration Accuracy     IntAcc      ...  5.010
Radial Grid Type                 RadialGrid  ... Gauss-Chebyshev
Angular Grid (max. acc.)         AngularGrid ... Lebedev-434
Angular grid pruning method      GridPruning ... 3 (G Style)
Weight generation scheme         WeightScheme... Becke
Basis function cutoff            BFCut       ...    1.0000e-12
Integration weight cutoff        WCut        ...    1.0000e-14
Grids for H and He will be reduced by one unit

# of grid points (after initial pruning)     ...  16106 (   0.0 sec)
# of grid points (after weights+screening)   ...  16106 (   0.0 sec)
Grid point division into batches done        ...    0.2 sec
Reduced shell lists constructed in    0.2 sec

Total number of grid points                  ...    16106
Total number of batches                      ...      252
Average number of points per batch           ...       63
Average number of grid points per atom       ...    16106
Average number of shells per batch           ...     0.53 ( 3.56%)
Average number of basis functions per batch  ...     1.60 ( 3.72%)
Average number of large shells per batch     ...     0.53 (100.00%)
Average number of large basis fcns per batch ...     1.60 (100.00%)
Maximum spatial batch extension              ...  17.34, 17.34, 17.34 au
Average spatial batch extension              ...   0.86,  0.87,  0.87 au

Time for grid setup =    0.238 sec

------------------------------
INITIAL GUESS: MODEL POTENTIAL
------------------------------
Loading Hartree-Fock densities                     ... done
Calculating cut-offs                               ... done
Setting up the integral package                    ... done
Initializing the effective Hamiltonian             ... done
Starting the Coulomb interaction                   ... done (   0.0 sec)
Reading the grid                                   ... done
Mapping shells                                     ... done
Starting the XC term evaluation                    ... done (   0.0 sec)
  promolecular density results
     # of electrons  =     35.999999729
     EX              =    -88.624060943
     EC              =     -3.283969203
     EX+EC           =    -91.908030146
Transforming the Hamiltonian                       ... done (   0.0 sec)
Diagonalizing the Hamiltonian                      ... done (   0.0 sec)
Back transforming the eigenvectors                 ... done (   0.0 sec)
Now organizing SCF variables                       ... done
                      ------------------
                      INITIAL GUESS DONE (   0.3 sec)
                      ------------------
--------------
SCF ITERATIONS
--------------
ITER       Energy         Delta-E        Max-DP      RMS-DP      [F,P]     Damp
               ***  Starting incremental Fock matrix formation  ***
  0  -1270.6745434834   0.000000000000 0.04027043  0.00130732  5.2016487 0.7000
                      *** Initiating the SOSCF procedure ***
                      *** Re-Reading the Fockian *** 
                      *** Removing any level shift *** 
ITER      Energy       Delta-E        Grad      Rot      Max-DP    RMS-DP
  1  -1270.68537642  -0.0108329370  0.002086  0.002086  0.093755  0.003044
               *** Restarting incremental Fock matrix formation ***
  2  -1270.71053712  -0.0251607004  0.008175  0.000017  0.000627  0.000020
  3  -1270.71053749  -0.0000003729  0.000037  0.000000  0.000003  0.000000
                 **** Energy Check signals convergence ****
              ***Rediagonalizing the Fockian in SOSCF/NRSCF***

               *****************************************************
               *                     SUCCESS                       *
               *           SCF CONVERGED AFTER   4 CYCLES          *
               *****************************************************

Setting up the final grid:

General Integration Accuracy     IntAcc      ...  5.340
Radial Grid Type                 RadialGrid  ... Gauss-Chebyshev
Angular Grid (max. acc.)         AngularGrid ... Lebedev-590
Angular grid pruning method      GridPruning ... 3 (G Style)
Weight generation scheme         WeightScheme... Becke
Basis function cutoff            BFCut       ...    1.0000e-12
Integration weight cutoff        WCut        ...    1.0000e-14
Grids for H and He will be reduced by one unit

# of grid points (after initial pruning)     ...  24180 (   0.0 sec)
# of grid points (after weights+screening)   ...  24180 (   0.0 sec)
Grid point division into batches done        ...    0.4 sec
Reduced shell lists constructed in    0.4 sec

Total number of grid points                  ...    24180
Total number of batches                      ...      378
Average number of points per batch           ...       63
Average number of grid points per atom       ...    24180
Average number of shells per batch           ...     0.14 ( 0.91%)
Average number of basis functions per batch  ...     0.41 ( 0.95%)
Average number of large shells per batch     ...     0.14 (100.00%)
Average number of large basis fcns per batch ...     0.41 (100.00%)
Maximum spatial batch extension              ...  17.58, 17.58, 17.58 au
Average spatial batch extension              ...   0.77,  0.77,  0.77 au

Final grid set up in    0.5 sec
Final integration                            ... done (   0.0 sec)
Change in XC energy                          ...     0.000003996
Integrated number of electrons               ...     2.000000016
Previous integrated no of electrons          ...     2.000000030

----------------
TOTAL SCF ENERGY
----------------

Total Energy       :        -1270.71053350 Eh          -34577.79152 eV

Components:
Nuclear Repulsion  :            0.00000000 Eh               0.00000 eV
Electronic Energy  :        -1270.71053350 Eh          -34577.79152 eV
One Electron Energy:        -1295.77917570 Eh          -35259.94395 eV
Two Electron Energy:           25.06864220 Eh             682.15243 eV

Virial components:
Potential Energy   :        -2536.94457127 Eh          -69033.77139 eV
Kinetic Energy     :         1266.23403777 Eh           34455.97988 eV
Virial Ratio       :            2.00353528


DFT components:
N(Alpha)           :        1.000000007831 electrons
N(Beta)            :        1.000000007831 electrons
N(Total)           :        2.000000015663 electrons
E(X)               :      -19.042212516588 Eh       
E(C)               :       -0.277834761955 Eh       
E(XC)              :      -19.320047278542 Eh       
DFET-embed. en.    :        0.000000000000 Eh       

---------------
SCF CONVERGENCE
---------------

  Last Energy change         ...   -8.6402e-12  Tolerance :   1.0000e-09
  Last MAX-Density change    ...    0.0000e+00  Tolerance :   1.0000e-08
  Last RMS-Density change    ...    0.0000e+00  Tolerance :   1.0000e-09
  Last Orbital Gradient      ...    2.3139e-11  Tolerance :   2.0000e-06
  Last Orbital Rotation      ...    0.0000e+00  Tolerance :   2.0000e-06

================================================================================
                                        WARNING
Number of found core electrons (2) does not match given number of chemical core electrons (18)
================================================================================
             **** THE GBW FILE WAS UPDATED (Kr_pc-2_.gbw) ****
             **** DENSITY FILE WAS UPDATED (Kr_pc-2_.scfp) ****
             **** ENERGY FILE WAS UPDATED (Kr_pc-2_.en.tmp) ****
             **** THE GBW FILE WAS UPDATED (Kr_pc-2_.gbw) ****
             **** DENSITY FILE WAS UPDATED (Kr_pc-2_.scfp) ****
----------------
ORBITAL ENERGIES
----------------

  NO   OCC          E(Eh)            E(eV) 
   0   2.0000    -616.344463    -16771.5855 
   1   0.0000    -148.548361     -4042.2064 
   2   0.0000    -146.381652     -3983.2473 
   3   0.0000    -146.381652     -3983.2473 
   4   0.0000    -146.381652     -3983.2473 
   5   0.0000     -63.390540     -1724.9443 
   6   0.0000     -59.325757     -1614.3359 
   7   0.0000     -59.325757     -1614.3359 
   8   0.0000     -59.325757     -1614.3359 
   9   0.0000     -56.262048     -1530.9682 
  10   0.0000     -56.262048     -1530.9682 
  11   0.0000     -56.262048     -1530.9682 
  12   0.0000     -56.262048     -1530.9682 
  13   0.0000     -56.262048     -1530.9682 
  14   0.0000     -31.849850      -866.6785 
  15   0.0000     -26.872960      -731.2504 
  16   0.0000     -26.872960      -731.2504 
  17   0.0000     -26.872960      -731.2504 
  18   0.0000     -22.896819      -623.0541 
  19   0.0000     -22.896819      -623.0541 
  20   0.0000     -22.896819      -623.0541 
  21   0.0000     -22.896819      -623.0541 
  22   0.0000     -22.896819      -623.0541 
  23   0.0000     -17.955833      -488.6030 
  24   0.0000     -16.398675      -446.2306 
  25   0.0000     -16.398675      -446.2306 
  26   0.0000     -16.398675      -446.2306 
  27   0.0000     -16.398675      -446.2306 
  28   0.0000     -16.398675      -446.2306 
  29   0.0000     -16.398675      -446.2306 
  30   0.0000     -16.398675      -446.2306 
  31   0.0000     -14.449837      -393.2001 
  32   0.0000     -14.449837      -393.2001 
  33   0.0000     -14.449837      -393.2001 
  34   0.0000     -12.462602      -339.1246 
  35   0.0000     -12.462602      -339.1246 
  36   0.0000     -12.462602      -339.1246 
  37   0.0000     -12.462602      -339.1246 
  38   0.0000     -12.462602      -339.1246 
  39   0.0000     -11.394691      -310.0653 
  40   0.0000      -8.314031      -226.2363 
  41   0.0000      -8.314031      -226.2363 
  42   0.0000      -8.314031      -226.2363 

                    ********************************
                    * MULLIKEN POPULATION ANALYSIS *
                    ********************************

-----------------------
MULLIKEN ATOMIC CHARGES
-----------------------
   0 Kr:   34.000000
Sum of atomic charges:   34.0000000

--------------------------------
MULLIKEN REDUCED ORBITAL CHARGES
--------------------------------
  0 Krs       :     2.000000  s :     2.000000
      pz      :     0.000000  p :     0.000000
      px      :     0.000000
      py      :     0.000000
      dz2     :     0.000000  d :     0.000000
      dxz     :     0.000000
      dyz     :     0.000000
      dx2y2   :     0.000000
      dxy     :     0.000000
      f0      :     0.000000  f :     0.000000
      f+1     :     0.000000
      f-1     :     0.000000
      f+2     :     0.000000
      f-2     :     0.000000
      f+3     :     0.000000
      f-3     :     0.000000


                     *******************************
                     * LOEWDIN POPULATION ANALYSIS *
                     *******************************

----------------------
LOEWDIN ATOMIC CHARGES
----------------------
   0 Kr:   34.000000

-------------------------------
LOEWDIN REDUCED ORBITAL CHARGES
-------------------------------
  0 Krs       :     2.000000  s :     2.000000
      pz      :     0.000000  p :     0.000000
      px      :     0.000000
      py      :     0.000000
      dz2     :     0.000000  d :     0.000000
      dxz     :     0.000000
      dyz     :     0.000000
      dx2y2   :     0.000000
      dxy     :     0.000000
      f0      :     0.000000  f :     0.000000
      f+1     :     0.000000
      f-1     :     0.000000
      f+2     :     0.000000
      f-2     :     0.000000
      f+3     :     0.000000
      f-3     :     0.000000


                      *****************************
                      * MAYER POPULATION ANALYSIS *
                      *****************************

  NA   - Mulliken gross atomic population
  ZA   - Total nuclear charge
  QA   - Mulliken gross atomic charge
  VA   - Mayer's total valence
  BVA  - Mayer's bonded valence
  FA   - Mayer's free valence

  ATOM       NA         ZA         QA         VA         BVA        FA
  0 Kr     2.0000    36.0000    34.0000     0.0000     0.0000     0.0000

  Mayer bond orders larger than 0.100000


--------------------------
ATOM BASIS FOR ELEMENT Kr
--------------------------
 NewGTO Kr
 S 58
    1    1931600.000000000000         0.000053830490
    2     289380.000000000000         0.000418237574
    3      65857.000000000000         0.002193042995
    4      18650.000000000000         0.009161985047
    5       6081.800000000000         0.032292782023
    6       2193.200000000000         0.096266679452
    7        852.720000000000         0.230335733706
    8        351.460000000000         0.382770097225
    9        150.290000000000         0.328868412134
   10         61.400000000000         0.073864676742
   11         29.044000000000        -0.007347272016
   12         13.399000000000         0.003019902959
   13          4.835800000000        -0.001108578756
   14          2.081300000000         0.000476900920
   15    1931600.000000000000        -0.000000165201
   16     289380.000000000000        -0.000001283949
   17      65857.000000000000        -0.000006744784
   18      18650.000000000000        -0.000028337116
   19       6081.800000000000        -0.000101532590
   20       2193.200000000000        -0.000315758437
   21        852.720000000000        -0.000836764523
   22        351.460000000000        -0.001734666147
   23        150.290000000000        -0.002204036797
   24         61.400000000000         0.000710981116
   25         29.044000000000         0.005829243049
   26         13.399000000000         0.004486068866
   27          4.835800000000         0.000400632216
   28          2.081300000000        -0.000062756465
   29    1931600.000000000000         0.000000358156
   30     289380.000000000000         0.000002792571
   31      65857.000000000000         0.000014606240
   32      18650.000000000000         0.000061781751
   33       6081.800000000000         0.000220135600
   34       2193.200000000000         0.000695051689
   35        852.720000000000         0.001843577959
   36        351.460000000000         0.004008988319
   37        150.290000000000         0.005270162924
   38         61.400000000000        -0.001776581992
   39         29.044000000000        -0.023380753320
   40         13.399000000000        -0.021333110401
   41          4.835800000000         0.033114050503
   42          2.081300000000         0.034966579907
   43    1931600.000000000000        -0.000000178421
   44     289380.000000000000        -0.000001388560
   45      65857.000000000000        -0.000007282853
   46      18650.000000000000        -0.000030698292
   47       6081.800000000000        -0.000109912080
   48       2193.200000000000        -0.000345341185
   49        852.720000000000        -0.000924694259
   50        351.460000000000        -0.001999286325
   51        150.290000000000        -0.002705012984
   52         61.400000000000         0.001031530514
   53         29.044000000000         0.012438013814
   54         13.399000000000         0.013067973945
   55          4.835800000000        -0.027129556205
   56          2.081300000000        -0.038934495128
   57          0.515380000000         0.001292345935
   58          0.191030000000        -0.000501350322
 S 58
    1    1931600.000000000000         0.000003825956
    2     289380.000000000000         0.000029725878
    3      65857.000000000000         0.000155868655
    4      18650.000000000000         0.000651180250
    5       6081.800000000000         0.002295181860
    6       2193.200000000000         0.006842071900
    7        852.720000000000         0.016370915254
    8        351.460000000000         0.027205057256
    9        150.290000000000         0.023374041093
   10         61.400000000000         0.005249868719
   11         29.044000000000        -0.000522201074
   12         13.399000000000         0.000214637020
   13          4.835800000000        -0.000078791287
   14          2.081300000000         0.000033895325
   15    1931600.000000000000         0.000008289469
   16     289380.000000000000         0.000064426198
   17      65857.000000000000         0.000338440827
   18      18650.000000000000         0.001421904266
   19       6081.800000000000         0.005094718201
   20       2193.200000000000         0.015844176388
   21        852.720000000000         0.041987301428
   22        351.460000000000         0.087042349902
   23        150.290000000000         0.110594503992
   24         61.400000000000        -0.035675721933
   25         29.044000000000        -0.292500671760
   26         13.399000000000        -0.225102666973
   27          4.835800000000        -0.020102986169
   28          2.081300000000         0.003149003732
   29    1931600.000000000000         0.000012353188
   30     289380.000000000000         0.000096318878
   31      65857.000000000000         0.000503785454
   32      18650.000000000000         0.002130921296
   33       6081.800000000000         0.007592721696
   34       2193.200000000000         0.023973105787
   35        852.720000000000         0.063587054247
   36        351.460000000000         0.138274465964
   37        150.290000000000         0.181773780746
   38         61.400000000000        -0.061276288828
   39         29.044000000000        -0.806428186263
   40         13.399000000000        -0.735802704572
   41          4.835800000000         1.142140431542
   42          2.081300000000         1.206036231064
   43    1931600.000000000000        -0.000006044736
   44     289380.000000000000        -0.000047043043
   45      65857.000000000000        -0.000246735906
   46      18650.000000000000        -0.001040027974
   47       6081.800000000000        -0.003723713279
   48       2193.200000000000        -0.011699820064
   49        852.720000000000        -0.031327733039
   50        351.460000000000        -0.067733856487
   51        150.290000000000        -0.091643182342
   52         61.400000000000         0.034947240385
   53         29.044000000000         0.421387688282
   54         13.399000000000         0.442730118622
   55          4.835800000000        -0.919122710808
   56          2.081300000000        -1.319062443754
   57          0.515380000000         0.034725925301
   58          0.191030000000        -0.012973256094
 S 58
    1    1931600.000000000000         0.000022967817
    2     289380.000000000000         0.000178449126
    3      65857.000000000000         0.000935704084
    4      18650.000000000000         0.003909137597
    5       6081.800000000000         0.013778338174
    6       2193.200000000000         0.041074035166
    7        852.720000000000         0.098277182510
    8        351.460000000000         0.163316243204
    9        150.290000000000         0.140318049836
   10         61.400000000000         0.031515788716
   11         29.044000000000        -0.003134855288
   12         13.399000000000         0.001288499832
   13          4.835800000000        -0.000472996504
   14          2.081300000000         0.000203478974
   15    1931600.000000000000        -0.000049129458
   16     289380.000000000000        -0.000381836784
   17      65857.000000000000        -0.002005847950
   18      18650.000000000000        -0.008427244963
   19       6081.800000000000        -0.030195027423
   20       2193.200000000000        -0.093904181094
   21        852.720000000000        -0.248847466757
   22        351.460000000000        -0.515876646912
   23        150.290000000000        -0.655463943133
   24         61.400000000000         0.211440429029
   25         29.044000000000         1.733572978400
   26         13.399000000000         1.334123092717
   27          4.835800000000         0.119145003659
   28          2.081300000000        -0.018663299971
   29    1931600.000000000000         0.000072695426
   30     289380.000000000000         0.000566812544
   31      65857.000000000000         0.002964651604
   32      18650.000000000000         0.012539939736
   33       6081.800000000000         0.044681271283
   34       2193.200000000000         0.141075741478
   35        852.720000000000         0.374193936577
   36        351.460000000000         0.813710705114
   37        150.290000000000         1.069693310842
   38         61.400000000000        -0.360595659085
   39         29.044000000000        -4.745628511332
   40         13.399000000000        -4.330015186737
   41          4.835800000000         6.721211247572
   42          2.081300000000         7.097222073000
   43    1931600.000000000000        -0.000033612448
   44     289380.000000000000        -0.000261588253
   45      65857.000000000000        -0.001372003395
   46      18650.000000000000        -0.005783195209
   47       6081.800000000000        -0.020706136106
   48       2193.200000000000        -0.065058195549
   49        852.720000000000        -0.174201463876
   50        351.460000000000        -0.376641901897
   51        150.290000000000        -0.509592459128
   52         61.400000000000         0.194328150903
   53         29.044000000000         2.343174722104
   54         13.399000000000         2.461851761495
   55          4.835800000000        -5.110887580173
   56          2.081300000000        -7.334798479009
   57          0.515380000000         0.049904292991
   58          0.191030000000        -0.015278971859
 S 58
    1    1931600.000000000000         0.000049034967
    2     289380.000000000000         0.000380978622
    3      65857.000000000000         0.001997674406
    4      18650.000000000000         0.008345783952
    5       6081.800000000000         0.029415959595
    6       2193.200000000000         0.087690702868
    7        852.720000000000         0.209816132635
    8        351.460000000000         0.348670786751
    9        150.290000000000         0.299570966561
   10         61.400000000000         0.067284396403
   11         29.044000000000        -0.006692735752
   12         13.399000000000         0.002750873039
   13          4.835800000000        -0.001009820333
   14          2.081300000000         0.000434415907
   15    1931600.000000000000        -0.000101690629
   16     289380.000000000000        -0.000790345021
   17      65857.000000000000        -0.004151805183
   18      18650.000000000000        -0.017443136359
   19       6081.800000000000        -0.062499189597
   20       2193.200000000000        -0.194367606822
   21        852.720000000000        -0.515077028667
   22        351.460000000000        -1.067787484086
   23        150.290000000000        -1.356712305037
   24         61.400000000000         0.437650056654
   25         29.044000000000         3.588236723188
   26         13.399000000000         2.761435217431
   27          4.835800000000         0.246612333511
   28          2.081300000000        -0.038630238914
   29    1931600.000000000000         0.000138806521
   30     289380.000000000000         0.001082286483
   31      65857.000000000000         0.005660782201
   32      18650.000000000000         0.023944084206
   33       6081.800000000000         0.085315571248
   34       2193.200000000000         0.269373657640
   35        852.720000000000         0.714495549029
   36        351.460000000000         1.553720197393
   37        150.290000000000         2.042499983873
   38         61.400000000000        -0.688530647430
   39         29.044000000000        -9.061425419430
   40         13.399000000000        -8.267842623148
   41          4.835800000000        12.833654025527
   42          2.081300000000        13.551618788966
   43    1931600.000000000000        -0.000070730841
   44     289380.000000000000        -0.000550461469
   45      65857.000000000000        -0.002887113607
   46      18650.000000000000        -0.012169606609
   47       6081.800000000000        -0.043572025793
   48       2193.200000000000        -0.136902286353
   49        852.720000000000        -0.366573011893
   50        351.460000000000        -0.792569438346
   51        150.290000000000        -1.072337961022
   52         61.400000000000         0.408925700088
   53         29.044000000000         4.930754289657
   54         13.399000000000         5.180486977339
   55          4.835800000000       -10.754866302615
   56          2.081300000000       -15.434653132340
   57          0.515380000000        -0.415468740652
   58          0.191030000000         0.145178953317
 S 58
    1    1931600.000000000000         0.000057036454
    2     289380.000000000000         0.000443146408
    3      65857.000000000000         0.002323653312
    4      18650.000000000000         0.009707642280
    5       6081.800000000000         0.034216032278
    6       2193.200000000000         0.102000001398
    7        852.720000000000         0.244053760801
    8        351.460000000000         0.405566605957
    9        150.290000000000         0.348454716506
   10         61.400000000000         0.078263810218
   11         29.044000000000        -0.007784851001
   12         13.399000000000         0.003199758294
   13          4.835800000000        -0.001174602004
   14          2.081300000000         0.000505303546
   15    1931600.000000000000        -0.000118109131
   16     289380.000000000000        -0.000917950503
   17      65857.000000000000        -0.004822136609
   18      18650.000000000000        -0.020259425167
   19       6081.800000000000        -0.072590022148
   20       2193.200000000000        -0.225749309310
   21        852.720000000000        -0.598239003734
   22        351.460000000000        -1.240187554729
   23        150.290000000000        -1.575760852353
   24         61.400000000000         0.508311027876
   25         29.044000000000         4.167576969989
   26         13.399000000000         3.207283884564
   27          4.835800000000         0.286429229993
   28          2.081300000000        -0.044867300144
   29    1931600.000000000000         0.000164525823
   30     289380.000000000000         0.001282822115
   31      65857.000000000000         0.006709662101
   32      18650.000000000000         0.028380656358
   33       6081.800000000000         0.101123596491
   34       2193.200000000000         0.319285596545
   35        852.720000000000         0.846883617350
   36        351.460000000000         1.841607247106
   37        150.290000000000         2.420952484770
   38         61.400000000000        -0.816107708640
   39         29.044000000000       -10.740406637911
   40         13.399000000000        -9.799781787141
   41          4.835800000000        15.211587195637
   42          2.081300000000        16.062582834193
   43    1931600.000000000000        -0.000087165566
   44     289380.000000000000        -0.000678364408
   45      65857.000000000000        -0.003557951324
   46      18650.000000000000        -0.014997285813
   47       6081.800000000000        -0.053696240584
   48       2193.200000000000        -0.168712332531
   49        852.720000000000        -0.451748393155
   50        351.460000000000        -0.976727578463
   51        150.290000000000        -1.321501952118
   52         61.400000000000         0.503941975926
   53         29.044000000000         6.076443860090
   54         13.399000000000         6.384203396985
   55          4.835800000000       -13.253822330529
   56          2.081300000000       -19.020984974927
   57          0.515380000000         1.690269609600
   58          0.191030000000         0.011567403939
 S 58
    1    1931600.000000000000         0.000038854636
    2     289380.000000000000         0.000301882237
    3      65857.000000000000         0.001582929813
    4      18650.000000000000         0.006613084792
    5       6081.800000000000         0.023308803123
    6       2193.200000000000         0.069484910809
    7        852.720000000000         0.166255427152
    8        351.460000000000         0.276281951528
    9        150.290000000000         0.237375927114
   10         61.400000000000         0.053315233314
   11         29.044000000000        -0.005303232060
   12         13.399000000000         0.002179754085
   13          4.835800000000        -0.000800167788
   14          2.081300000000         0.000344225209
   15    1931600.000000000000        -0.000080545308
   16     289380.000000000000        -0.000626002451
   17      65857.000000000000        -0.003288488134
   18      18650.000000000000        -0.013816049743
   19       6081.800000000000        -0.049503248420
   20       2193.200000000000        -0.153951243006
   21        852.720000000000        -0.407973067653
   22        351.460000000000        -0.845754151785
   23        150.290000000000        -1.074600594091
   24         61.400000000000         0.346646086380
   25         29.044000000000         2.842106834413
   26         13.399000000000         2.187228577627
   27          4.835800000000         0.195332318516
   28          2.081300000000        -0.030597553758
   29    1931600.000000000000         0.000113308137
   30     289380.000000000000         0.000883473374
   31      65857.000000000000         0.004620911774
   32      18650.000000000000         0.019545620502
   33       6081.800000000000         0.069643330860
   34       2193.200000000000         0.219890443088
   35        852.720000000000         0.583244643286
   36        351.460000000000         1.268305986686
   37        150.290000000000         1.667298244369
   38         61.400000000000        -0.562049424097
   39         29.044000000000        -7.396866003712
   40         13.399000000000        -6.749062227237
   41          4.835800000000        10.476146386557
   42          2.081300000000        11.062222958921
   43    1931600.000000000000        -0.000060760254
   44     289380.000000000000        -0.000472865555
   45      65857.000000000000        -0.002480131042
   46      18650.000000000000        -0.010454115503
   47       6081.800000000000        -0.037429886188
   48       2193.200000000000        -0.117603827315
   49        852.720000000000        -0.314898971650
   50        351.460000000000        -0.680844723967
   51        150.290000000000        -0.921175619130
   52         61.400000000000         0.351281404416
   53         29.044000000000         4.235689494029
   54         13.399000000000         4.450218561873
   55          4.835800000000        -9.238804355598
   56          2.081300000000       -13.258904069457
   57          0.515380000000         2.806506535491
   58          0.191030000000        -2.221273869422
 P 35
    1       9221.400000000000         0.000436706236
    2       2184.700000000000         0.003796909710
    3        706.270000000000         0.020724227209
    4        269.180000000000         0.079236956675
    5        113.100000000000         0.217496648856
    6         50.433000000000         0.387542583756
    7         23.182000000000         0.360321592673
    8         10.601000000000         0.113487970227
    9          4.811300000000         0.001611557080
   10          2.122100000000         0.001230292686
   11          0.774180000000        -0.000527383450
   12       9221.400000000000         0.000006761424
   13       2184.700000000000         0.000058903789
   14        706.270000000000         0.000325935123
   15        269.180000000000         0.001275238790
   16        113.100000000000         0.003692936537
   17         50.433000000000         0.007024840545
   18         23.182000000000         0.005887493261
   19         10.601000000000        -0.007482829973
   20          4.811300000000        -0.020611585425
   21          2.122100000000        -0.014393482334
   22          0.774180000000        -0.001748109783
   23       9221.400000000000         0.000008826082
   24       2184.700000000000         0.000077262248
   25        706.270000000000         0.000426283900
   26        269.180000000000         0.001681169835
   27        113.100000000000         0.004874227518
   28         50.433000000000         0.009437827347
   29         23.182000000000         0.007608654652
   30         10.601000000000        -0.012391821776
   31          4.811300000000        -0.037459583269
   32          2.122100000000        -0.021576320533
   33          0.774180000000         0.059438899541
   34          0.306500000000        -0.036394334902
   35          0.107760000000         0.011734724796
 P 35
    1       9221.400000000000        -0.000025909207
    2       2184.700000000000        -0.000225265661
    3        706.270000000000        -0.001229541153
    4        269.180000000000        -0.004701024462
    5        113.100000000000        -0.012903790221
    6         50.433000000000        -0.022992391969
    7         23.182000000000        -0.021377406357
    8         10.601000000000        -0.006733092064
    9          4.811300000000        -0.000095611563
   10          2.122100000000        -0.000072991648
   11          0.774180000000         0.000031288967
   12       9221.400000000000         0.000121829265
   13       2184.700000000000         0.001061345178
   14        706.270000000000         0.005872791510
   15        269.180000000000         0.022977614315
   16        113.100000000000         0.066540378239
   17         50.433000000000         0.126575569921
   18         23.182000000000         0.106082523890
   19         10.601000000000        -0.134827753371
   20          4.811300000000        -0.371385393817
   21          2.122100000000        -0.259345848210
   22          0.774180000000        -0.031497938020
   23       9221.400000000000         0.000066996550
   24       2184.700000000000         0.000586478119
   25        706.270000000000         0.003235812916
   26        269.180000000000         0.012761333628
   27        113.100000000000         0.036999024285
   28         50.433000000000         0.071640152602
   29         23.182000000000         0.057755366819
   30         10.601000000000        -0.094063174758
   31          4.811300000000        -0.284346191462
   32          2.122100000000        -0.163780374315
   33          0.774180000000         0.451185604172
   34          0.306500000000        -0.241194264267
   35          0.107760000000         0.074345760260
 P 35
    1       9221.400000000000         0.000026990846
    2       2184.700000000000         0.000234669889
    3        706.270000000000         0.001280871147
    4        269.180000000000         0.004897279430
    5        113.100000000000         0.013442488318
    6         50.433000000000         0.023952261712
    7         23.182000000000         0.022269854849
    8         10.601000000000         0.007014180320
    9          4.811300000000         0.000099603085
   10          2.122100000000         0.000076038850
   11          0.774180000000        -0.000032595196
   12       9221.400000000000        -0.000210128454
   13       2184.700000000000        -0.001830584975
   14        706.270000000000        -0.010129262483
   15        269.180000000000        -0.039631287141
   16        113.100000000000        -0.114767390570
   17         50.433000000000        -0.218314777493
   18         23.182000000000        -0.182968819445
   19         10.601000000000         0.232547963210
   20          4.811300000000         0.640557412984
   21          2.122100000000         0.447314052635
   22          0.774180000000         0.054326955310
   23       9221.400000000000         0.000229227193
   24       2184.700000000000         0.002006621723
   25        706.270000000000         0.011071261269
   26        269.180000000000         0.043662616601
   27        113.100000000000         0.126591331204
   28         50.433000000000         0.245115174274
   29         23.182000000000         0.197608691341
   30         10.601000000000        -0.321835041331
   31          4.811300000000        -0.972884112374
   32          2.122100000000        -0.560370874919
   33          0.774180000000         1.543721418511
   34          0.306500000000        -0.698271983571
   35          0.107760000000         0.194407146590
 P 35
    1       9221.400000000000        -0.000034758359
    2       2184.700000000000        -0.000302203955
    3        706.270000000000        -0.001649484425
    4        269.180000000000        -0.006306634481
    5        113.100000000000        -0.017311011462
    6         50.433000000000        -0.030845321731
    7         23.182000000000        -0.028678746333
    8         10.601000000000        -0.009032744016
    9          4.811300000000        -0.000128267186
   10          2.122100000000        -0.000097921558
   11          0.774180000000         0.000041975548
   12       9221.400000000000         0.000187109370
   13       2184.700000000000         0.001630048647
   14        706.270000000000         0.009019625329
   15        269.180000000000         0.035289771780
   16        113.100000000000         0.102194889775
   17         50.433000000000         0.194398901215
   18         23.182000000000         0.162925010689
   19         10.601000000000        -0.207072874530
   20          4.811300000000        -0.570385837731
   21          2.122100000000        -0.398311838204
   22          0.774180000000        -0.048375563670
   23       9221.400000000000        -0.000169401079
   24       2184.700000000000        -0.001482912565
   25        706.270000000000        -0.008181767524
   26        269.180000000000        -0.032267089523
   27        113.100000000000        -0.093552199450
   28         50.433000000000        -0.181142448332
   29         23.182000000000        -0.146034704980
   30         10.601000000000         0.237839160788
   31          4.811300000000         0.718970625057
   32          2.122100000000         0.414119413690
   33          0.774180000000        -1.140824831102
   34          0.306500000000         1.967794371016
   35          0.107760000000        -0.395918640366
 P 35
    1       9221.400000000000        -0.000017189131
    2       2184.700000000000        -0.000149449610
    3        706.270000000000        -0.000815723287
    4        269.180000000000        -0.003118834306
    5        113.100000000000        -0.008560853905
    6         50.433000000000        -0.015254007171
    7         23.182000000000        -0.014182565707
    8         10.601000000000        -0.004466983460
    9          4.811300000000        -0.000063432263
   10          2.122100000000        -0.000048425371
   11          0.774180000000         0.000020758263
   12       9221.400000000000         0.000087460861
   13       2184.700000000000         0.000761936498
   14        706.270000000000         0.004216059289
   15        269.180000000000         0.016495559923
   16        113.100000000000         0.047769136582
   17         50.433000000000         0.090868219381
   18         23.182000000000         0.076156323526
   19         10.601000000000        -0.096792436958
   20          4.811300000000        -0.266616452617
   21          2.122100000000        -0.186183601191
   22          0.774180000000        -0.022612274579
   23       9221.400000000000        -0.000076871182
   24       2184.700000000000        -0.000672919222
   25        706.270000000000        -0.003712739890
   26        269.180000000000        -0.014642228597
   27        113.100000000000        -0.042452316286
   28         50.433000000000        -0.082199205947
   29         23.182000000000        -0.066267939407
   30         10.601000000000         0.107927160861
   31          4.811300000000         0.326256021287
   32          2.122100000000         0.187919989412
   33          0.774180000000        -0.517685921246
   34          0.306500000000         1.428125547446
   35          0.107760000000        -1.599342305315
 D 9
    1        456.330000000000         0.001521857482
    2        136.350000000000         0.013242907371
    3         51.762000000000         0.063863238217
    4         22.080000000000         0.185500758457
    5         10.022000000000         0.350481709104
    6          4.547600000000         0.423962971287
    7          2.012800000000         0.307890389008
    8          0.830980000000        -0.297279023538
    9          0.308000000000         0.111310738169
 D 9
    1        456.330000000000         0.000305933397
    2        136.350000000000         0.002662172831
    3         51.762000000000         0.012838191259
    4         22.080000000000         0.037290533369
    5         10.022000000000         0.070456045449
    6          4.547600000000         0.085227712596
    7          2.012800000000         0.061894069442
    8          0.830980000000        -1.249464045250
    9          0.308000000000         0.315548049784
 D 9
    1        456.330000000000         0.000104364545
    2        136.350000000000         0.000908159940
    3         51.762000000000         0.004379554502
    4         22.080000000000         0.012721100660
    5         10.022000000000         0.024035012784
    6          4.547600000000         0.029074143300
    7          2.012800000000         0.021114224348
    8          0.830980000000        -0.681456810472
    9          0.308000000000         1.315359200955
 F 1
    1          0.590000000000         1.000000000000
 end
  // -----------------------------------------------
  // The basis set
  // -----------------------------------------------
  BAS[ATNO] = new BFNGauss[NSH];
  // Basis function   1 L = s
  InitBFNGauss(BAS[ATNO][  0]);
  BAS[ATNO][  0].l  = 0;
  BAS[ATNO][  0].ng = 58;
  BAS[ATNO][  0].a[  0] =   1931600.000000000000;     BAS[ATNO][  0].d[  0] =         0.000053830490;
  BAS[ATNO][  0].a[  1] =    289380.000000000000;     BAS[ATNO][  0].d[  1] =         0.000418237574;
  BAS[ATNO][  0].a[  2] =     65857.000000000000;     BAS[ATNO][  0].d[  2] =         0.002193042995;
  BAS[ATNO][  0].a[  3] =     18650.000000000000;     BAS[ATNO][  0].d[  3] =         0.009161985047;
  BAS[ATNO][  0].a[  4] =      6081.800000000000;     BAS[ATNO][  0].d[  4] =         0.032292782023;
  BAS[ATNO][  0].a[  5] =      2193.200000000000;     BAS[ATNO][  0].d[  5] =         0.096266679452;
  BAS[ATNO][  0].a[  6] =       852.720000000000;     BAS[ATNO][  0].d[  6] =         0.230335733706;
  BAS[ATNO][  0].a[  7] =       351.460000000000;     BAS[ATNO][  0].d[  7] =         0.382770097225;
  BAS[ATNO][  0].a[  8] =       150.290000000000;     BAS[ATNO][  0].d[  8] =         0.328868412134;
  BAS[ATNO][  0].a[  9] =        61.400000000000;     BAS[ATNO][  0].d[  9] =         0.073864676742;
  BAS[ATNO][  0].a[ 10] =        29.044000000000;     BAS[ATNO][  0].d[ 10] =        -0.007347272016;
  BAS[ATNO][  0].a[ 11] =        13.399000000000;     BAS[ATNO][  0].d[ 11] =         0.003019902959;
  BAS[ATNO][  0].a[ 12] =         4.835800000000;     BAS[ATNO][  0].d[ 12] =        -0.001108578756;
  BAS[ATNO][  0].a[ 13] =         2.081300000000;     BAS[ATNO][  0].d[ 13] =         0.000476900920;
  BAS[ATNO][  0].a[ 14] =   1931600.000000000000;     BAS[ATNO][  0].d[ 14] =        -0.000000165201;
  BAS[ATNO][  0].a[ 15] =    289380.000000000000;     BAS[ATNO][  0].d[ 15] =        -0.000001283949;
  BAS[ATNO][  0].a[ 16] =     65857.000000000000;     BAS[ATNO][  0].d[ 16] =        -0.000006744784;
  BAS[ATNO][  0].a[ 17] =     18650.000000000000;     BAS[ATNO][  0].d[ 17] =        -0.000028337116;
  BAS[ATNO][  0].a[ 18] =      6081.800000000000;     BAS[ATNO][  0].d[ 18] =        -0.000101532590;
  BAS[ATNO][  0].a[ 19] =      2193.200000000000;     BAS[ATNO][  0].d[ 19] =        -0.000315758437;
  BAS[ATNO][  0].a[ 20] =       852.720000000000;     BAS[ATNO][  0].d[ 20] =        -0.000836764523;
  BAS[ATNO][  0].a[ 21] =       351.460000000000;     BAS[ATNO][  0].d[ 21] =        -0.001734666147;
  BAS[ATNO][  0].a[ 22] =       150.290000000000;     BAS[ATNO][  0].d[ 22] =        -0.002204036797;
  BAS[ATNO][  0].a[ 23] =        61.400000000000;     BAS[ATNO][  0].d[ 23] =         0.000710981116;
  BAS[ATNO][  0].a[ 24] =        29.044000000000;     BAS[ATNO][  0].d[ 24] =         0.005829243049;
  BAS[ATNO][  0].a[ 25] =        13.399000000000;     BAS[ATNO][  0].d[ 25] =         0.004486068866;
  BAS[ATNO][  0].a[ 26] =         4.835800000000;     BAS[ATNO][  0].d[ 26] =         0.000400632216;
  BAS[ATNO][  0].a[ 27] =         2.081300000000;     BAS[ATNO][  0].d[ 27] =        -0.000062756465;
  BAS[ATNO][  0].a[ 28] =   1931600.000000000000;     BAS[ATNO][  0].d[ 28] =         0.000000358156;
  BAS[ATNO][  0].a[ 29] =    289380.000000000000;     BAS[ATNO][  0].d[ 29] =         0.000002792571;
  BAS[ATNO][  0].a[ 30] =     65857.000000000000;     BAS[ATNO][  0].d[ 30] =         0.000014606240;
  BAS[ATNO][  0].a[ 31] =     18650.000000000000;     BAS[ATNO][  0].d[ 31] =         0.000061781751;
  BAS[ATNO][  0].a[ 32] =      6081.800000000000;     BAS[ATNO][  0].d[ 32] =         0.000220135600;
  BAS[ATNO][  0].a[ 33] =      2193.200000000000;     BAS[ATNO][  0].d[ 33] =         0.000695051689;
  BAS[ATNO][  0].a[ 34] =       852.720000000000;     BAS[ATNO][  0].d[ 34] =         0.001843577959;
  BAS[ATNO][  0].a[ 35] =       351.460000000000;     BAS[ATNO][  0].d[ 35] =         0.004008988319;
  BAS[ATNO][  0].a[ 36] =       150.290000000000;     BAS[ATNO][  0].d[ 36] =         0.005270162924;
  BAS[ATNO][  0].a[ 37] =        61.400000000000;     BAS[ATNO][  0].d[ 37] =        -0.001776581992;
  BAS[ATNO][  0].a[ 38] =        29.044000000000;     BAS[ATNO][  0].d[ 38] =        -0.023380753320;
  BAS[ATNO][  0].a[ 39] =        13.399000000000;     BAS[ATNO][  0].d[ 39] =        -0.021333110401;
  BAS[ATNO][  0].a[ 40] =         4.835800000000;     BAS[ATNO][  0].d[ 40] =         0.033114050503;
  BAS[ATNO][  0].a[ 41] =         2.081300000000;     BAS[ATNO][  0].d[ 41] =         0.034966579907;
  BAS[ATNO][  0].a[ 42] =   1931600.000000000000;     BAS[ATNO][  0].d[ 42] =        -0.000000178421;
  BAS[ATNO][  0].a[ 43] =    289380.000000000000;     BAS[ATNO][  0].d[ 43] =        -0.000001388560;
  BAS[ATNO][  0].a[ 44] =     65857.000000000000;     BAS[ATNO][  0].d[ 44] =        -0.000007282853;
  BAS[ATNO][  0].a[ 45] =     18650.000000000000;     BAS[ATNO][  0].d[ 45] =        -0.000030698292;
  BAS[ATNO][  0].a[ 46] =      6081.800000000000;     BAS[ATNO][  0].d[ 46] =        -0.000109912080;
  BAS[ATNO][  0].a[ 47] =      2193.200000000000;     BAS[ATNO][  0].d[ 47] =        -0.000345341185;
  BAS[ATNO][  0].a[ 48] =       852.720000000000;     BAS[ATNO][  0].d[ 48] =        -0.000924694259;
  BAS[ATNO][  0].a[ 49] =       351.460000000000;     BAS[ATNO][  0].d[ 49] =        -0.001999286325;
  BAS[ATNO][  0].a[ 50] =       150.290000000000;     BAS[ATNO][  0].d[ 50] =        -0.002705012984;
  BAS[ATNO][  0].a[ 51] =        61.400000000000;     BAS[ATNO][  0].d[ 51] =         0.001031530514;
  BAS[ATNO][  0].a[ 52] =        29.044000000000;     BAS[ATNO][  0].d[ 52] =         0.012438013814;
  BAS[ATNO][  0].a[ 53] =        13.399000000000;     BAS[ATNO][  0].d[ 53] =         0.013067973945;
  BAS[ATNO][  0].a[ 54] =         4.835800000000;     BAS[ATNO][  0].d[ 54] =        -0.027129556205;
  BAS[ATNO][  0].a[ 55] =         2.081300000000;     BAS[ATNO][  0].d[ 55] =        -0.038934495128;
  BAS[ATNO][  0].a[ 56] =         0.515380000000;     BAS[ATNO][  0].d[ 56] =         0.001292345935;
  BAS[ATNO][  0].a[ 57] =         0.191030000000;     BAS[ATNO][  0].d[ 57] =        -0.000501350322;

  // Basis function   2 L = s
  InitBFNGauss(BAS[ATNO][  1]);
  BAS[ATNO][  1].l  = 0;
  BAS[ATNO][  1].ng = 58;
  BAS[ATNO][  1].a[  0] =   1931600.000000000000;     BAS[ATNO][  1].d[  0] =        -0.000003825956;
  BAS[ATNO][  1].a[  1] =    289380.000000000000;     BAS[ATNO][  1].d[  1] =        -0.000029725878;
  BAS[ATNO][  1].a[  2] =     65857.000000000000;     BAS[ATNO][  1].d[  2] =        -0.000155868655;
  BAS[ATNO][  1].a[  3] =     18650.000000000000;     BAS[ATNO][  1].d[  3] =        -0.000651180250;
  BAS[ATNO][  1].a[  4] =      6081.800000000000;     BAS[ATNO][  1].d[  4] =        -0.002295181860;
  BAS[ATNO][  1].a[  5] =      2193.200000000000;     BAS[ATNO][  1].d[  5] =        -0.006842071900;
  BAS[ATNO][  1].a[  6] =       852.720000000000;     BAS[ATNO][  1].d[  6] =        -0.016370915254;
  BAS[ATNO][  1].a[  7] =       351.460000000000;     BAS[ATNO][  1].d[  7] =        -0.027205057256;
  BAS[ATNO][  1].a[  8] =       150.290000000000;     BAS[ATNO][  1].d[  8] =        -0.023374041093;
  BAS[ATNO][  1].a[  9] =        61.400000000000;     BAS[ATNO][  1].d[  9] =        -0.005249868719;
  BAS[ATNO][  1].a[ 10] =        29.044000000000;     BAS[ATNO][  1].d[ 10] =         0.000522201074;
  BAS[ATNO][  1].a[ 11] =        13.399000000000;     BAS[ATNO][  1].d[ 11] =        -0.000214637020;
  BAS[ATNO][  1].a[ 12] =         4.835800000000;     BAS[ATNO][  1].d[ 12] =         0.000078791287;
  BAS[ATNO][  1].a[ 13] =         2.081300000000;     BAS[ATNO][  1].d[ 13] =        -0.000033895325;
  BAS[ATNO][  1].a[ 14] =   1931600.000000000000;     BAS[ATNO][  1].d[ 14] =        -0.000008289469;
  BAS[ATNO][  1].a[ 15] =    289380.000000000000;     BAS[ATNO][  1].d[ 15] =        -0.000064426198;
  BAS[ATNO][  1].a[ 16] =     65857.000000000000;     BAS[ATNO][  1].d[ 16] =        -0.000338440827;
  BAS[ATNO][  1].a[ 17] =     18650.000000000000;     BAS[ATNO][  1].d[ 17] =        -0.001421904266;
  BAS[ATNO][  1].a[ 18] =      6081.800000000000;     BAS[ATNO][  1].d[ 18] =        -0.005094718201;
  BAS[ATNO][  1].a[ 19] =      2193.200000000000;     BAS[ATNO][  1].d[ 19] =        -0.015844176388;
  BAS[ATNO][  1].a[ 20] =       852.720000000000;     BAS[ATNO][  1].d[ 20] =        -0.041987301428;
  BAS[ATNO][  1].a[ 21] =       351.460000000000;     BAS[ATNO][  1].d[ 21] =        -0.087042349902;
  BAS[ATNO][  1].a[ 22] =       150.290000000000;     BAS[ATNO][  1].d[ 22] =        -0.110594503992;
  BAS[ATNO][  1].a[ 23] =        61.400000000000;     BAS[ATNO][  1].d[ 23] =         0.035675721933;
  BAS[ATNO][  1].a[ 24] =        29.044000000000;     BAS[ATNO][  1].d[ 24] =         0.292500671760;
  BAS[ATNO][  1].a[ 25] =        13.399000000000;     BAS[ATNO][  1].d[ 25] =         0.225102666973;
  BAS[ATNO][  1].a[ 26] =         4.835800000000;     BAS[ATNO][  1].d[ 26] =         0.020102986169;
  BAS[ATNO][  1].a[ 27] =         2.081300000000;     BAS[ATNO][  1].d[ 27] =        -0.003149003732;
  BAS[ATNO][  1].a[ 28] =   1931600.000000000000;     BAS[ATNO][  1].d[ 28] =        -0.000012353188;
  BAS[ATNO][  1].a[ 29] =    289380.000000000000;     BAS[ATNO][  1].d[ 29] =        -0.000096318878;
  BAS[ATNO][  1].a[ 30] =     65857.000000000000;     BAS[ATNO][  1].d[ 30] =        -0.000503785454;
  BAS[ATNO][  1].a[ 31] =     18650.000000000000;     BAS[ATNO][  1].d[ 31] =        -0.002130921296;
  BAS[ATNO][  1].a[ 32] =      6081.800000000000;     BAS[ATNO][  1].d[ 32] =        -0.007592721696;
  BAS[ATNO][  1].a[ 33] =      2193.200000000000;     BAS[ATNO][  1].d[ 33] =        -0.023973105787;
  BAS[ATNO][  1].a[ 34] =       852.720000000000;     BAS[ATNO][  1].d[ 34] =        -0.063587054247;
  BAS[ATNO][  1].a[ 35] =       351.460000000000;     BAS[ATNO][  1].d[ 35] =        -0.138274465964;
  BAS[ATNO][  1].a[ 36] =       150.290000000000;     BAS[ATNO][  1].d[ 36] =        -0.181773780746;
  BAS[ATNO][  1].a[ 37] =        61.400000000000;     BAS[ATNO][  1].d[ 37] =         0.061276288828;
  BAS[ATNO][  1].a[ 38] =        29.044000000000;     BAS[ATNO][  1].d[ 38] =         0.806428186263;
  BAS[ATNO][  1].a[ 39] =        13.399000000000;     BAS[ATNO][  1].d[ 39] =         0.735802704572;
  BAS[ATNO][  1].a[ 40] =         4.835800000000;     BAS[ATNO][  1].d[ 40] =        -1.142140431542;
  BAS[ATNO][  1].a[ 41] =         2.081300000000;     BAS[ATNO][  1].d[ 41] =        -1.206036231064;
  BAS[ATNO][  1].a[ 42] =   1931600.000000000000;     BAS[ATNO][  1].d[ 42] =         0.000006044736;
  BAS[ATNO][  1].a[ 43] =    289380.000000000000;     BAS[ATNO][  1].d[ 43] =         0.000047043043;
  BAS[ATNO][  1].a[ 44] =     65857.000000000000;     BAS[ATNO][  1].d[ 44] =         0.000246735906;
  BAS[ATNO][  1].a[ 45] =     18650.000000000000;     BAS[ATNO][  1].d[ 45] =         0.001040027974;
  BAS[ATNO][  1].a[ 46] =      6081.800000000000;     BAS[ATNO][  1].d[ 46] =         0.003723713279;
  BAS[ATNO][  1].a[ 47] =      2193.200000000000;     BAS[ATNO][  1].d[ 47] =         0.011699820064;
  BAS[ATNO][  1].a[ 48] =       852.720000000000;     BAS[ATNO][  1].d[ 48] =         0.031327733039;
  BAS[ATNO][  1].a[ 49] =       351.460000000000;     BAS[ATNO][  1].d[ 49] =         0.067733856487;
  BAS[ATNO][  1].a[ 50] =       150.290000000000;     BAS[ATNO][  1].d[ 50] =         0.091643182342;
  BAS[ATNO][  1].a[ 51] =        61.400000000000;     BAS[ATNO][  1].d[ 51] =        -0.034947240385;
  BAS[ATNO][  1].a[ 52] =        29.044000000000;     BAS[ATNO][  1].d[ 52] =        -0.421387688282;
  BAS[ATNO][  1].a[ 53] =        13.399000000000;     BAS[ATNO][  1].d[ 53] =        -0.442730118622;
  BAS[ATNO][  1].a[ 54] =         4.835800000000;     BAS[ATNO][  1].d[ 54] =         0.919122710808;
  BAS[ATNO][  1].a[ 55] =         2.081300000000;     BAS[ATNO][  1].d[ 55] =         1.319062443754;
  BAS[ATNO][  1].a[ 56] =         0.515380000000;     BAS[ATNO][  1].d[ 56] =        -0.034725925301;
  BAS[ATNO][  1].a[ 57] =         0.191030000000;     BAS[ATNO][  1].d[ 57] =         0.012973256094;

  // Basis function   3 L = s
  InitBFNGauss(BAS[ATNO][  2]);
  BAS[ATNO][  2].l  = 0;
  BAS[ATNO][  2].ng = 58;
  BAS[ATNO][  2].a[  0] =   1931600.000000000000;     BAS[ATNO][  2].d[  0] =        -0.000022967817;
  BAS[ATNO][  2].a[  1] =    289380.000000000000;     BAS[ATNO][  2].d[  1] =        -0.000178449126;
  BAS[ATNO][  2].a[  2] =     65857.000000000000;     BAS[ATNO][  2].d[  2] =        -0.000935704084;
  BAS[ATNO][  2].a[  3] =     18650.000000000000;     BAS[ATNO][  2].d[  3] =        -0.003909137597;
  BAS[ATNO][  2].a[  4] =      6081.800000000000;     BAS[ATNO][  2].d[  4] =        -0.013778338174;
  BAS[ATNO][  2].a[  5] =      2193.200000000000;     BAS[ATNO][  2].d[  5] =        -0.041074035166;
  BAS[ATNO][  2].a[  6] =       852.720000000000;     BAS[ATNO][  2].d[  6] =        -0.098277182510;
  BAS[ATNO][  2].a[  7] =       351.460000000000;     BAS[ATNO][  2].d[  7] =        -0.163316243204;
  BAS[ATNO][  2].a[  8] =       150.290000000000;     BAS[ATNO][  2].d[  8] =        -0.140318049836;
  BAS[ATNO][  2].a[  9] =        61.400000000000;     BAS[ATNO][  2].d[  9] =        -0.031515788716;
  BAS[ATNO][  2].a[ 10] =        29.044000000000;     BAS[ATNO][  2].d[ 10] =         0.003134855288;
  BAS[ATNO][  2].a[ 11] =        13.399000000000;     BAS[ATNO][  2].d[ 11] =        -0.001288499832;
  BAS[ATNO][  2].a[ 12] =         4.835800000000;     BAS[ATNO][  2].d[ 12] =         0.000472996504;
  BAS[ATNO][  2].a[ 13] =         2.081300000000;     BAS[ATNO][  2].d[ 13] =        -0.000203478974;
  BAS[ATNO][  2].a[ 14] =   1931600.000000000000;     BAS[ATNO][  2].d[ 14] =         0.000049129458;
  BAS[ATNO][  2].a[ 15] =    289380.000000000000;     BAS[ATNO][  2].d[ 15] =         0.000381836784;
  BAS[ATNO][  2].a[ 16] =     65857.000000000000;     BAS[ATNO][  2].d[ 16] =         0.002005847950;
  BAS[ATNO][  2].a[ 17] =     18650.000000000000;     BAS[ATNO][  2].d[ 17] =         0.008427244963;
  BAS[ATNO][  2].a[ 18] =      6081.800000000000;     BAS[ATNO][  2].d[ 18] =         0.030195027423;
  BAS[ATNO][  2].a[ 19] =      2193.200000000000;     BAS[ATNO][  2].d[ 19] =         0.093904181094;
  BAS[ATNO][  2].a[ 20] =       852.720000000000;     BAS[ATNO][  2].d[ 20] =         0.248847466757;
  BAS[ATNO][  2].a[ 21] =       351.460000000000;     BAS[ATNO][  2].d[ 21] =         0.515876646912;
  BAS[ATNO][  2].a[ 22] =       150.290000000000;     BAS[ATNO][  2].d[ 22] =         0.655463943133;
  BAS[ATNO][  2].a[ 23] =        61.400000000000;     BAS[ATNO][  2].d[ 23] =        -0.211440429029;
  BAS[ATNO][  2].a[ 24] =        29.044000000000;     BAS[ATNO][  2].d[ 24] =        -1.733572978400;
  BAS[ATNO][  2].a[ 25] =        13.399000000000;     BAS[ATNO][  2].d[ 25] =        -1.334123092717;
  BAS[ATNO][  2].a[ 26] =         4.835800000000;     BAS[ATNO][  2].d[ 26] =        -0.119145003659;
  BAS[ATNO][  2].a[ 27] =         2.081300000000;     BAS[ATNO][  2].d[ 27] =         0.018663299971;
  BAS[ATNO][  2].a[ 28] =   1931600.000000000000;     BAS[ATNO][  2].d[ 28] =        -0.000072695426;
  BAS[ATNO][  2].a[ 29] =    289380.000000000000;     BAS[ATNO][  2].d[ 29] =        -0.000566812544;
  BAS[ATNO][  2].a[ 30] =     65857.000000000000;     BAS[ATNO][  2].d[ 30] =        -0.002964651604;
  BAS[ATNO][  2].a[ 31] =     18650.000000000000;     BAS[ATNO][  2].d[ 31] =        -0.012539939736;
  BAS[ATNO][  2].a[ 32] =      6081.800000000000;     BAS[ATNO][  2].d[ 32] =        -0.044681271283;
  BAS[ATNO][  2].a[ 33] =      2193.200000000000;     BAS[ATNO][  2].d[ 33] =        -0.141075741478;
  BAS[ATNO][  2].a[ 34] =       852.720000000000;     BAS[ATNO][  2].d[ 34] =        -0.374193936577;
  BAS[ATNO][  2].a[ 35] =       351.460000000000;     BAS[ATNO][  2].d[ 35] =        -0.813710705114;
  BAS[ATNO][  2].a[ 36] =       150.290000000000;     BAS[ATNO][  2].d[ 36] =        -1.069693310842;
  BAS[ATNO][  2].a[ 37] =        61.400000000000;     BAS[ATNO][  2].d[ 37] =         0.360595659085;
  BAS[ATNO][  2].a[ 38] =        29.044000000000;     BAS[ATNO][  2].d[ 38] =         4.745628511332;
  BAS[ATNO][  2].a[ 39] =        13.399000000000;     BAS[ATNO][  2].d[ 39] =         4.330015186737;
  BAS[ATNO][  2].a[ 40] =         4.835800000000;     BAS[ATNO][  2].d[ 40] =        -6.721211247572;
  BAS[ATNO][  2].a[ 41] =         2.081300000000;     BAS[ATNO][  2].d[ 41] =        -7.097222073000;
  BAS[ATNO][  2].a[ 42] =   1931600.000000000000;     BAS[ATNO][  2].d[ 42] =         0.000033612448;
  BAS[ATNO][  2].a[ 43] =    289380.000000000000;     BAS[ATNO][  2].d[ 43] =         0.000261588253;
  BAS[ATNO][  2].a[ 44] =     65857.000000000000;     BAS[ATNO][  2].d[ 44] =         0.001372003395;
  BAS[ATNO][  2].a[ 45] =     18650.000000000000;     BAS[ATNO][  2].d[ 45] =         0.005783195209;
  BAS[ATNO][  2].a[ 46] =      6081.800000000000;     BAS[ATNO][  2].d[ 46] =         0.020706136106;
  BAS[ATNO][  2].a[ 47] =      2193.200000000000;     BAS[ATNO][  2].d[ 47] =         0.065058195549;
  BAS[ATNO][  2].a[ 48] =       852.720000000000;     BAS[ATNO][  2].d[ 48] =         0.174201463876;
  BAS[ATNO][  2].a[ 49] =       351.460000000000;     BAS[ATNO][  2].d[ 49] =         0.376641901897;
  BAS[ATNO][  2].a[ 50] =       150.290000000000;     BAS[ATNO][  2].d[ 50] =         0.509592459128;
  BAS[ATNO][  2].a[ 51] =        61.400000000000;     BAS[ATNO][  2].d[ 51] =        -0.194328150903;
  BAS[ATNO][  2].a[ 52] =        29.044000000000;     BAS[ATNO][  2].d[ 52] =        -2.343174722104;
  BAS[ATNO][  2].a[ 53] =        13.399000000000;     BAS[ATNO][  2].d[ 53] =        -2.461851761495;
  BAS[ATNO][  2].a[ 54] =         4.835800000000;     BAS[ATNO][  2].d[ 54] =         5.110887580173;
  BAS[ATNO][  2].a[ 55] =         2.081300000000;     BAS[ATNO][  2].d[ 55] =         7.334798479009;
  BAS[ATNO][  2].a[ 56] =         0.515380000000;     BAS[ATNO][  2].d[ 56] =        -0.049904292991;
  BAS[ATNO][  2].a[ 57] =         0.191030000000;     BAS[ATNO][  2].d[ 57] =         0.015278971859;

  // Basis function   4 L = s
  InitBFNGauss(BAS[ATNO][  3]);
  BAS[ATNO][  3].l  = 0;
  BAS[ATNO][  3].ng = 58;
  BAS[ATNO][  3].a[  0] =   1931600.000000000000;     BAS[ATNO][  3].d[  0] =        -0.000049034967;
  BAS[ATNO][  3].a[  1] =    289380.000000000000;     BAS[ATNO][  3].d[  1] =        -0.000380978622;
  BAS[ATNO][  3].a[  2] =     65857.000000000000;     BAS[ATNO][  3].d[  2] =        -0.001997674406;
  BAS[ATNO][  3].a[  3] =     18650.000000000000;     BAS[ATNO][  3].d[  3] =        -0.008345783952;
  BAS[ATNO][  3].a[  4] =      6081.800000000000;     BAS[ATNO][  3].d[  4] =        -0.029415959595;
  BAS[ATNO][  3].a[  5] =      2193.200000000000;     BAS[ATNO][  3].d[  5] =        -0.087690702868;
  BAS[ATNO][  3].a[  6] =       852.720000000000;     BAS[ATNO][  3].d[  6] =        -0.209816132635;
  BAS[ATNO][  3].a[  7] =       351.460000000000;     BAS[ATNO][  3].d[  7] =        -0.348670786751;
  BAS[ATNO][  3].a[  8] =       150.290000000000;     BAS[ATNO][  3].d[  8] =        -0.299570966561;
  BAS[ATNO][  3].a[  9] =        61.400000000000;     BAS[ATNO][  3].d[  9] =        -0.067284396403;
  BAS[ATNO][  3].a[ 10] =        29.044000000000;     BAS[ATNO][  3].d[ 10] =         0.006692735752;
  BAS[ATNO][  3].a[ 11] =        13.399000000000;     BAS[ATNO][  3].d[ 11] =        -0.002750873039;
  BAS[ATNO][  3].a[ 12] =         4.835800000000;     BAS[ATNO][  3].d[ 12] =         0.001009820333;
  BAS[ATNO][  3].a[ 13] =         2.081300000000;     BAS[ATNO][  3].d[ 13] =        -0.000434415907;
  BAS[ATNO][  3].a[ 14] =   1931600.000000000000;     BAS[ATNO][  3].d[ 14] =         0.000101690629;
  BAS[ATNO][  3].a[ 15] =    289380.000000000000;     BAS[ATNO][  3].d[ 15] =         0.000790345021;
  BAS[ATNO][  3].a[ 16] =     65857.000000000000;     BAS[ATNO][  3].d[ 16] =         0.004151805183;
  BAS[ATNO][  3].a[ 17] =     18650.000000000000;     BAS[ATNO][  3].d[ 17] =         0.017443136359;
  BAS[ATNO][  3].a[ 18] =      6081.800000000000;     BAS[ATNO][  3].d[ 18] =         0.062499189597;
  BAS[ATNO][  3].a[ 19] =      2193.200000000000;     BAS[ATNO][  3].d[ 19] =         0.194367606822;
  BAS[ATNO][  3].a[ 20] =       852.720000000000;     BAS[ATNO][  3].d[ 20] =         0.515077028667;
  BAS[ATNO][  3].a[ 21] =       351.460000000000;     BAS[ATNO][  3].d[ 21] =         1.067787484086;
  BAS[ATNO][  3].a[ 22] =       150.290000000000;     BAS[ATNO][  3].d[ 22] =         1.356712305037;
  BAS[ATNO][  3].a[ 23] =        61.400000000000;     BAS[ATNO][  3].d[ 23] =        -0.437650056654;
  BAS[ATNO][  3].a[ 24] =        29.044000000000;     BAS[ATNO][  3].d[ 24] =        -3.588236723188;
  BAS[ATNO][  3].a[ 25] =        13.399000000000;     BAS[ATNO][  3].d[ 25] =        -2.761435217431;
  BAS[ATNO][  3].a[ 26] =         4.835800000000;     BAS[ATNO][  3].d[ 26] =        -0.246612333511;
  BAS[ATNO][  3].a[ 27] =         2.081300000000;     BAS[ATNO][  3].d[ 27] =         0.038630238914;
  BAS[ATNO][  3].a[ 28] =   1931600.000000000000;     BAS[ATNO][  3].d[ 28] =        -0.000138806521;
  BAS[ATNO][  3].a[ 29] =    289380.000000000000;     BAS[ATNO][  3].d[ 29] =        -0.001082286483;
  BAS[ATNO][  3].a[ 30] =     65857.000000000000;     BAS[ATNO][  3].d[ 30] =        -0.005660782201;
  BAS[ATNO][  3].a[ 31] =     18650.000000000000;     BAS[ATNO][  3].d[ 31] =        -0.023944084206;
  BAS[ATNO][  3].a[ 32] =      6081.800000000000;     BAS[ATNO][  3].d[ 32] =        -0.085315571248;
  BAS[ATNO][  3].a[ 33] =      2193.200000000000;     BAS[ATNO][  3].d[ 33] =        -0.269373657640;
  BAS[ATNO][  3].a[ 34] =       852.720000000000;     BAS[ATNO][  3].d[ 34] =        -0.714495549029;
  BAS[ATNO][  3].a[ 35] =       351.460000000000;     BAS[ATNO][  3].d[ 35] =        -1.553720197393;
  BAS[ATNO][  3].a[ 36] =       150.290000000000;     BAS[ATNO][  3].d[ 36] =        -2.042499983873;
  BAS[ATNO][  3].a[ 37] =        61.400000000000;     BAS[ATNO][  3].d[ 37] =         0.688530647430;
  BAS[ATNO][  3].a[ 38] =        29.044000000000;     BAS[ATNO][  3].d[ 38] =         9.061425419430;
  BAS[ATNO][  3].a[ 39] =        13.399000000000;     BAS[ATNO][  3].d[ 39] =         8.267842623148;
  BAS[ATNO][  3].a[ 40] =         4.835800000000;     BAS[ATNO][  3].d[ 40] =       -12.833654025527;
  BAS[ATNO][  3].a[ 41] =         2.081300000000;     BAS[ATNO][  3].d[ 41] =       -13.551618788966;
  BAS[ATNO][  3].a[ 42] =   1931600.000000000000;     BAS[ATNO][  3].d[ 42] =         0.000070730841;
  BAS[ATNO][  3].a[ 43] =    289380.000000000000;     BAS[ATNO][  3].d[ 43] =         0.000550461469;
  BAS[ATNO][  3].a[ 44] =     65857.000000000000;     BAS[ATNO][  3].d[ 44] =         0.002887113607;
  BAS[ATNO][  3].a[ 45] =     18650.000000000000;     BAS[ATNO][  3].d[ 45] =         0.012169606609;
  BAS[ATNO][  3].a[ 46] =      6081.800000000000;     BAS[ATNO][  3].d[ 46] =         0.043572025793;
  BAS[ATNO][  3].a[ 47] =      2193.200000000000;     BAS[ATNO][  3].d[ 47] =         0.136902286353;
  BAS[ATNO][  3].a[ 48] =       852.720000000000;     BAS[ATNO][  3].d[ 48] =         0.366573011893;
  BAS[ATNO][  3].a[ 49] =       351.460000000000;     BAS[ATNO][  3].d[ 49] =         0.792569438346;
  BAS[ATNO][  3].a[ 50] =       150.290000000000;     BAS[ATNO][  3].d[ 50] =         1.072337961022;
  BAS[ATNO][  3].a[ 51] =        61.400000000000;     BAS[ATNO][  3].d[ 51] =        -0.408925700088;
  BAS[ATNO][  3].a[ 52] =        29.044000000000;     BAS[ATNO][  3].d[ 52] =        -4.930754289657;
  BAS[ATNO][  3].a[ 53] =        13.399000000000;     BAS[ATNO][  3].d[ 53] =        -5.180486977339;
  BAS[ATNO][  3].a[ 54] =         4.835800000000;     BAS[ATNO][  3].d[ 54] =        10.754866302615;
  BAS[ATNO][  3].a[ 55] =         2.081300000000;     BAS[ATNO][  3].d[ 55] =        15.434653132340;
  BAS[ATNO][  3].a[ 56] =         0.515380000000;     BAS[ATNO][  3].d[ 56] =         0.415468740652;
  BAS[ATNO][  3].a[ 57] =         0.191030000000;     BAS[ATNO][  3].d[ 57] =        -0.145178953317;

  // Basis function   5 L = s
  InitBFNGauss(BAS[ATNO][  4]);
  BAS[ATNO][  4].l  = 0;
  BAS[ATNO][  4].ng = 58;
  BAS[ATNO][  4].a[  0] =   1931600.000000000000;     BAS[ATNO][  4].d[  0] =        -0.000057036454;
  BAS[ATNO][  4].a[  1] =    289380.000000000000;     BAS[ATNO][  4].d[  1] =        -0.000443146408;
  BAS[ATNO][  4].a[  2] =     65857.000000000000;     BAS[ATNO][  4].d[  2] =        -0.002323653312;
  BAS[ATNO][  4].a[  3] =     18650.000000000000;     BAS[ATNO][  4].d[  3] =        -0.009707642280;
  BAS[ATNO][  4].a[  4] =      6081.800000000000;     BAS[ATNO][  4].d[  4] =        -0.034216032278;
  BAS[ATNO][  4].a[  5] =      2193.200000000000;     BAS[ATNO][  4].d[  5] =        -0.102000001398;
  BAS[ATNO][  4].a[  6] =       852.720000000000;     BAS[ATNO][  4].d[  6] =        -0.244053760801;
  BAS[ATNO][  4].a[  7] =       351.460000000000;     BAS[ATNO][  4].d[  7] =        -0.405566605957;
  BAS[ATNO][  4].a[  8] =       150.290000000000;     BAS[ATNO][  4].d[  8] =        -0.348454716506;
  BAS[ATNO][  4].a[  9] =        61.400000000000;     BAS[ATNO][  4].d[  9] =        -0.078263810218;
  BAS[ATNO][  4].a[ 10] =        29.044000000000;     BAS[ATNO][  4].d[ 10] =         0.007784851001;
  BAS[ATNO][  4].a[ 11] =        13.399000000000;     BAS[ATNO][  4].d[ 11] =        -0.003199758294;
  BAS[ATNO][  4].a[ 12] =         4.835800000000;     BAS[ATNO][  4].d[ 12] =         0.001174602004;
  BAS[ATNO][  4].a[ 13] =         2.081300000000;     BAS[ATNO][  4].d[ 13] =        -0.000505303546;
  BAS[ATNO][  4].a[ 14] =   1931600.000000000000;     BAS[ATNO][  4].d[ 14] =         0.000118109131;
[...]
  BAS[ATNO][  7].a[ 15] =       113.100000000000;     BAS[ATNO][  7].d[ 15] =         0.066540378239;
  BAS[ATNO][  7].a[ 16] =        50.433000000000;     BAS[ATNO][  7].d[ 16] =         0.126575569921;
  BAS[ATNO][  7].a[ 17] =        23.182000000000;     BAS[ATNO][  7].d[ 17] =         0.106082523890;
  BAS[ATNO][  7].a[ 18] =        10.601000000000;     BAS[ATNO][  7].d[ 18] =        -0.134827753371;
  BAS[ATNO][  7].a[ 19] =         4.811300000000;     BAS[ATNO][  7].d[ 19] =        -0.371385393817;
  BAS[ATNO][  7].a[ 20] =         2.122100000000;     BAS[ATNO][  7].d[ 20] =        -0.259345848210;
  BAS[ATNO][  7].a[ 21] =         0.774180000000;     BAS[ATNO][  7].d[ 21] =        -0.031497938020;
  BAS[ATNO][  7].a[ 22] =      9221.400000000000;     BAS[ATNO][  7].d[ 22] =         0.000066996550;
  BAS[ATNO][  7].a[ 23] =      2184.700000000000;     BAS[ATNO][  7].d[ 23] =         0.000586478119;
  BAS[ATNO][  7].a[ 24] =       706.270000000000;     BAS[ATNO][  7].d[ 24] =         0.003235812916;
  BAS[ATNO][  7].a[ 25] =       269.180000000000;     BAS[ATNO][  7].d[ 25] =         0.012761333628;
  BAS[ATNO][  7].a[ 26] =       113.100000000000;     BAS[ATNO][  7].d[ 26] =         0.036999024285;
  BAS[ATNO][  7].a[ 27] =        50.433000000000;     BAS[ATNO][  7].d[ 27] =         0.071640152602;
  BAS[ATNO][  7].a[ 28] =        23.182000000000;     BAS[ATNO][  7].d[ 28] =         0.057755366819;
  BAS[ATNO][  7].a[ 29] =        10.601000000000;     BAS[ATNO][  7].d[ 29] =        -0.094063174758;
  BAS[ATNO][  7].a[ 30] =         4.811300000000;     BAS[ATNO][  7].d[ 30] =        -0.284346191462;
  BAS[ATNO][  7].a[ 31] =         2.122100000000;     BAS[ATNO][  7].d[ 31] =        -0.163780374315;
  BAS[ATNO][  7].a[ 32] =         0.774180000000;     BAS[ATNO][  7].d[ 32] =         0.451185604172;
  BAS[ATNO][  7].a[ 33] =         0.306500000000;     BAS[ATNO][  7].d[ 33] =        -0.241194264267;
  BAS[ATNO][  7].a[ 34] =         0.107760000000;     BAS[ATNO][  7].d[ 34] =         0.074345760260;

  // Basis function   9 L = p
  InitBFNGauss(BAS[ATNO][  8]);
  BAS[ATNO][  8].l  = 1;
  BAS[ATNO][  8].ng = 35;
  BAS[ATNO][  8].a[  0] =      9221.400000000000;     BAS[ATNO][  8].d[  0] =         0.000026990846;
  BAS[ATNO][  8].a[  1] =      2184.700000000000;     BAS[ATNO][  8].d[  1] =         0.000234669889;
  BAS[ATNO][  8].a[  2] =       706.270000000000;     BAS[ATNO][  8].d[  2] =         0.001280871147;
  BAS[ATNO][  8].a[  3] =       269.180000000000;     BAS[ATNO][  8].d[  3] =         0.004897279430;
  BAS[ATNO][  8].a[  4] =       113.100000000000;     BAS[ATNO][  8].d[  4] =         0.013442488318;
  BAS[ATNO][  8].a[  5] =        50.433000000000;     BAS[ATNO][  8].d[  5] =         0.023952261712;
  BAS[ATNO][  8].a[  6] =        23.182000000000;     BAS[ATNO][  8].d[  6] =         0.022269854849;
  BAS[ATNO][  8].a[  7] =        10.601000000000;     BAS[ATNO][  8].d[  7] =         0.007014180320;
  BAS[ATNO][  8].a[  8] =         4.811300000000;     BAS[ATNO][  8].d[  8] =         0.000099603085;
  BAS[ATNO][  8].a[  9] =         2.122100000000;     BAS[ATNO][  8].d[  9] =         0.000076038850;
  BAS[ATNO][  8].a[ 10] =         0.774180000000;     BAS[ATNO][  8].d[ 10] =        -0.000032595196;
  BAS[ATNO][  8].a[ 11] =      9221.400000000000;     BAS[ATNO][  8].d[ 11] =        -0.000210128454;
  BAS[ATNO][  8].a[ 12] =      2184.700000000000;     BAS[ATNO][  8].d[ 12] =        -0.001830584975;
  BAS[ATNO][  8].a[ 13] =       706.270000000000;     BAS[ATNO][  8].d[ 13] =        -0.010129262483;
  BAS[ATNO][  8].a[ 14] =       269.180000000000;     BAS[ATNO][  8].d[ 14] =        -0.039631287141;
  BAS[ATNO][  8].a[ 15] =       113.100000000000;     BAS[ATNO][  8].d[ 15] =        -0.114767390570;
  BAS[ATNO][  8].a[ 16] =        50.433000000000;     BAS[ATNO][  8].d[ 16] =        -0.218314777493;
  BAS[ATNO][  8].a[ 17] =        23.182000000000;     BAS[ATNO][  8].d[ 17] =        -0.182968819445;
  BAS[ATNO][  8].a[ 18] =        10.601000000000;     BAS[ATNO][  8].d[ 18] =         0.232547963210;
  BAS[ATNO][  8].a[ 19] =         4.811300000000;     BAS[ATNO][  8].d[ 19] =         0.640557412984;
  BAS[ATNO][  8].a[ 20] =         2.122100000000;     BAS[ATNO][  8].d[ 20] =         0.447314052635;
  BAS[ATNO][  8].a[ 21] =         0.774180000000;     BAS[ATNO][  8].d[ 21] =         0.054326955310;
  BAS[ATNO][  8].a[ 22] =      9221.400000000000;     BAS[ATNO][  8].d[ 22] =         0.000229227193;
  BAS[ATNO][  8].a[ 23] =      2184.700000000000;     BAS[ATNO][  8].d[ 23] =         0.002006621723;
  BAS[ATNO][  8].a[ 24] =       706.270000000000;     BAS[ATNO][  8].d[ 24] =         0.011071261269;
  BAS[ATNO][  8].a[ 25] =       269.180000000000;     BAS[ATNO][  8].d[ 25] =         0.043662616601;
  BAS[ATNO][  8].a[ 26] =       113.100000000000;     BAS[ATNO][  8].d[ 26] =         0.126591331204;
  BAS[ATNO][  8].a[ 27] =        50.433000000000;     BAS[ATNO][  8].d[ 27] =         0.245115174274;
  BAS[ATNO][  8].a[ 28] =        23.182000000000;     BAS[ATNO][  8].d[ 28] =         0.197608691341;
  BAS[ATNO][  8].a[ 29] =        10.601000000000;     BAS[ATNO][  8].d[ 29] =        -0.321835041331;
  BAS[ATNO][  8].a[ 30] =         4.811300000000;     BAS[ATNO][  8].d[ 30] =        -0.972884112374;
  BAS[ATNO][  8].a[ 31] =         2.122100000000;     BAS[ATNO][  8].d[ 31] =        -0.560370874919;
  BAS[ATNO][  8].a[ 32] =         0.774180000000;     BAS[ATNO][  8].d[ 32] =         1.543721418511;
  BAS[ATNO][  8].a[ 33] =         0.306500000000;     BAS[ATNO][  8].d[ 33] =        -0.698271983571;
  BAS[ATNO][  8].a[ 34] =         0.107760000000;     BAS[ATNO][  8].d[ 34] =         0.194407146590;

  // Basis function  10 L = p
  InitBFNGauss(BAS[ATNO][  9]);
  BAS[ATNO][  9].l  = 1;
  BAS[ATNO][  9].ng = 35;
  BAS[ATNO][  9].a[  0] =      9221.400000000000;     BAS[ATNO][  9].d[  0] =        -0.000034758359;
  BAS[ATNO][  9].a[  1] =      2184.700000000000;     BAS[ATNO][  9].d[  1] =        -0.000302203955;
  BAS[ATNO][  9].a[  2] =       706.270000000000;     BAS[ATNO][  9].d[  2] =        -0.001649484425;
  BAS[ATNO][  9].a[  3] =       269.180000000000;     BAS[ATNO][  9].d[  3] =        -0.006306634481;
  BAS[ATNO][  9].a[  4] =       113.100000000000;     BAS[ATNO][  9].d[  4] =        -0.017311011462;
  BAS[ATNO][  9].a[  5] =        50.433000000000;     BAS[ATNO][  9].d[  5] =        -0.030845321731;
  BAS[ATNO][  9].a[  6] =        23.182000000000;     BAS[ATNO][  9].d[  6] =        -0.028678746333;
  BAS[ATNO][  9].a[  7] =        10.601000000000;     BAS[ATNO][  9].d[  7] =        -0.009032744016;
  BAS[ATNO][  9].a[  8] =         4.811300000000;     BAS[ATNO][  9].d[  8] =        -0.000128267186;
  BAS[ATNO][  9].a[  9] =         2.122100000000;     BAS[ATNO][  9].d[  9] =        -0.000097921558;
  BAS[ATNO][  9].a[ 10] =         0.774180000000;     BAS[ATNO][  9].d[ 10] =         0.000041975548;
  BAS[ATNO][  9].a[ 11] =      9221.400000000000;     BAS[ATNO][  9].d[ 11] =         0.000187109370;
  BAS[ATNO][  9].a[ 12] =      2184.700000000000;     BAS[ATNO][  9].d[ 12] =         0.001630048647;
  BAS[ATNO][  9].a[ 13] =       706.270000000000;     BAS[ATNO][  9].d[ 13] =         0.009019625329;
  BAS[ATNO][  9].a[ 14] =       269.180000000000;     BAS[ATNO][  9].d[ 14] =         0.035289771780;
  BAS[ATNO][  9].a[ 15] =       113.100000000000;     BAS[ATNO][  9].d[ 15] =         0.102194889775;
  BAS[ATNO][  9].a[ 16] =        50.433000000000;     BAS[ATNO][  9].d[ 16] =         0.194398901215;
  BAS[ATNO][  9].a[ 17] =        23.182000000000;     BAS[ATNO][  9].d[ 17] =         0.162925010689;
  BAS[ATNO][  9].a[ 18] =        10.601000000000;     BAS[ATNO][  9].d[ 18] =        -0.207072874530;
  BAS[ATNO][  9].a[ 19] =         4.811300000000;     BAS[ATNO][  9].d[ 19] =        -0.570385837731;
  BAS[ATNO][  9].a[ 20] =         2.122100000000;     BAS[ATNO][  9].d[ 20] =        -0.398311838204;
  BAS[ATNO][  9].a[ 21] =         0.774180000000;     BAS[ATNO][  9].d[ 21] =        -0.048375563670;
  BAS[ATNO][  9].a[ 22] =      9221.400000000000;     BAS[ATNO][  9].d[ 22] =        -0.000169401079;
  BAS[ATNO][  9].a[ 23] =      2184.700000000000;     BAS[ATNO][  9].d[ 23] =        -0.001482912565;
  BAS[ATNO][  9].a[ 24] =       706.270000000000;     BAS[ATNO][  9].d[ 24] =        -0.008181767524;
  BAS[ATNO][  9].a[ 25] =       269.180000000000;     BAS[ATNO][  9].d[ 25] =        -0.032267089523;
  BAS[ATNO][  9].a[ 26] =       113.100000000000;     BAS[ATNO][  9].d[ 26] =        -0.093552199450;
  BAS[ATNO][  9].a[ 27] =        50.433000000000;     BAS[ATNO][  9].d[ 27] =        -0.181142448332;
  BAS[ATNO][  9].a[ 28] =        23.182000000000;     BAS[ATNO][  9].d[ 28] =        -0.146034704980;
  BAS[ATNO][  9].a[ 29] =        10.601000000000;     BAS[ATNO][  9].d[ 29] =         0.237839160788;
  BAS[ATNO][  9].a[ 30] =         4.811300000000;     BAS[ATNO][  9].d[ 30] =         0.718970625057;
  BAS[ATNO][  9].a[ 31] =         2.122100000000;     BAS[ATNO][  9].d[ 31] =         0.414119413690;
  BAS[ATNO][  9].a[ 32] =         0.774180000000;     BAS[ATNO][  9].d[ 32] =        -1.140824831102;
  BAS[ATNO][  9].a[ 33] =         0.306500000000;     BAS[ATNO][  9].d[ 33] =         1.967794371016;
  BAS[ATNO][  9].a[ 34] =         0.107760000000;     BAS[ATNO][  9].d[ 34] =        -0.395918640366;

  // Basis function  11 L = p
  InitBFNGauss(BAS[ATNO][ 10]);
  BAS[ATNO][ 10].l  = 1;
  BAS[ATNO][ 10].ng = 35;
  BAS[ATNO][ 10].a[  0] =      9221.400000000000;     BAS[ATNO][ 10].d[  0] =         0.000017189131;
  BAS[ATNO][ 10].a[  1] =      2184.700000000000;     BAS[ATNO][ 10].d[  1] =         0.000149449610;
  BAS[ATNO][ 10].a[  2] =       706.270000000000;     BAS[ATNO][ 10].d[  2] =         0.000815723287;
  BAS[ATNO][ 10].a[  3] =       269.180000000000;     BAS[ATNO][ 10].d[  3] =         0.003118834306;
  BAS[ATNO][ 10].a[  4] =       113.100000000000;     BAS[ATNO][ 10].d[  4] =         0.008560853905;
  BAS[ATNO][ 10].a[  5] =        50.433000000000;     BAS[ATNO][ 10].d[  5] =         0.015254007171;
  BAS[ATNO][ 10].a[  6] =        23.182000000000;     BAS[ATNO][ 10].d[  6] =         0.014182565707;
  BAS[ATNO][ 10].a[  7] =        10.601000000000;     BAS[ATNO][ 10].d[  7] =         0.004466983460;
  BAS[ATNO][ 10].a[  8] =         4.811300000000;     BAS[ATNO][ 10].d[  8] =         0.000063432263;
  BAS[ATNO][ 10].a[  9] =         2.122100000000;     BAS[ATNO][ 10].d[  9] =         0.000048425371;
  BAS[ATNO][ 10].a[ 10] =         0.774180000000;     BAS[ATNO][ 10].d[ 10] =        -0.000020758263;
  BAS[ATNO][ 10].a[ 11] =      9221.400000000000;     BAS[ATNO][ 10].d[ 11] =        -0.000087460861;
  BAS[ATNO][ 10].a[ 12] =      2184.700000000000;     BAS[ATNO][ 10].d[ 12] =        -0.000761936498;
  BAS[ATNO][ 10].a[ 13] =       706.270000000000;     BAS[ATNO][ 10].d[ 13] =        -0.004216059289;
  BAS[ATNO][ 10].a[ 14] =       269.180000000000;     BAS[ATNO][ 10].d[ 14] =        -0.016495559923;
  BAS[ATNO][ 10].a[ 15] =       113.100000000000;     BAS[ATNO][ 10].d[ 15] =        -0.047769136582;
  BAS[ATNO][ 10].a[ 16] =        50.433000000000;     BAS[ATNO][ 10].d[ 16] =        -0.090868219381;
  BAS[ATNO][ 10].a[ 17] =        23.182000000000;     BAS[ATNO][ 10].d[ 17] =        -0.076156323526;
  BAS[ATNO][ 10].a[ 18] =        10.601000000000;     BAS[ATNO][ 10].d[ 18] =         0.096792436958;
  BAS[ATNO][ 10].a[ 19] =         4.811300000000;     BAS[ATNO][ 10].d[ 19] =         0.266616452617;
  BAS[ATNO][ 10].a[ 20] =         2.122100000000;     BAS[ATNO][ 10].d[ 20] =         0.186183601191;
  BAS[ATNO][ 10].a[ 21] =         0.774180000000;     BAS[ATNO][ 10].d[ 21] =         0.022612274579;
  BAS[ATNO][ 10].a[ 22] =      9221.400000000000;     BAS[ATNO][ 10].d[ 22] =         0.000076871182;
  BAS[ATNO][ 10].a[ 23] =      2184.700000000000;     BAS[ATNO][ 10].d[ 23] =         0.000672919222;
  BAS[ATNO][ 10].a[ 24] =       706.270000000000;     BAS[ATNO][ 10].d[ 24] =         0.003712739890;
  BAS[ATNO][ 10].a[ 25] =       269.180000000000;     BAS[ATNO][ 10].d[ 25] =         0.014642228597;
  BAS[ATNO][ 10].a[ 26] =       113.100000000000;     BAS[ATNO][ 10].d[ 26] =         0.042452316286;
  BAS[ATNO][ 10].a[ 27] =        50.433000000000;     BAS[ATNO][ 10].d[ 27] =         0.082199205947;
  BAS[ATNO][ 10].a[ 28] =        23.182000000000;     BAS[ATNO][ 10].d[ 28] =         0.066267939407;
  BAS[ATNO][ 10].a[ 29] =        10.601000000000;     BAS[ATNO][ 10].d[ 29] =        -0.107927160861;
  BAS[ATNO][ 10].a[ 30] =         4.811300000000;     BAS[ATNO][ 10].d[ 30] =        -0.326256021287;
  BAS[ATNO][ 10].a[ 31] =         2.122100000000;     BAS[ATNO][ 10].d[ 31] =        -0.187919989412;
  BAS[ATNO][ 10].a[ 32] =         0.774180000000;     BAS[ATNO][ 10].d[ 32] =         0.517685921246;
  BAS[ATNO][ 10].a[ 33] =         0.306500000000;     BAS[ATNO][ 10].d[ 33] =        -1.428125547446;
  BAS[ATNO][ 10].a[ 34] =         0.107760000000;     BAS[ATNO][ 10].d[ 34] =         1.599342305315;

  // Basis function  12 L = d
  InitBFNGauss(BAS[ATNO][ 11]);
  BAS[ATNO][ 11].l  = 2;
  BAS[ATNO][ 11].ng = 9;
  BAS[ATNO][ 11].a[  0] =       456.330000000000;     BAS[ATNO][ 11].d[  0] =         0.001521857482;
  BAS[ATNO][ 11].a[  1] =       136.350000000000;     BAS[ATNO][ 11].d[  1] =         0.013242907371;
  BAS[ATNO][ 11].a[  2] =        51.762000000000;     BAS[ATNO][ 11].d[  2] =         0.063863238217;
  BAS[ATNO][ 11].a[  3] =        22.080000000000;     BAS[ATNO][ 11].d[  3] =         0.185500758457;
  BAS[ATNO][ 11].a[  4] =        10.022000000000;     BAS[ATNO][ 11].d[  4] =         0.350481709104;
  BAS[ATNO][ 11].a[  5] =         4.547600000000;     BAS[ATNO][ 11].d[  5] =         0.423962971287;
  BAS[ATNO][ 11].a[  6] =         2.012800000000;     BAS[ATNO][ 11].d[  6] =         0.307890389008;
  BAS[ATNO][ 11].a[  7] =         0.830980000000;     BAS[ATNO][ 11].d[  7] =        -0.297279023538;
  BAS[ATNO][ 11].a[  8] =         0.308000000000;     BAS[ATNO][ 11].d[  8] =         0.111310738169;

  // Basis function  13 L = d
  InitBFNGauss(BAS[ATNO][ 12]);
  BAS[ATNO][ 12].l  = 2;
  BAS[ATNO][ 12].ng = 9;
  BAS[ATNO][ 12].a[  0] =       456.330000000000;     BAS[ATNO][ 12].d[  0] =        -0.000305933397;
  BAS[ATNO][ 12].a[  1] =       136.350000000000;     BAS[ATNO][ 12].d[  1] =        -0.002662172831;
  BAS[ATNO][ 12].a[  2] =        51.762000000000;     BAS[ATNO][ 12].d[  2] =        -0.012838191259;
  BAS[ATNO][ 12].a[  3] =        22.080000000000;     BAS[ATNO][ 12].d[  3] =        -0.037290533369;
  BAS[ATNO][ 12].a[  4] =        10.022000000000;     BAS[ATNO][ 12].d[  4] =        -0.070456045449;
  BAS[ATNO][ 12].a[  5] =         4.547600000000;     BAS[ATNO][ 12].d[  5] =        -0.085227712596;
  BAS[ATNO][ 12].a[  6] =         2.012800000000;     BAS[ATNO][ 12].d[  6] =        -0.061894069442;
  BAS[ATNO][ 12].a[  7] =         0.830980000000;     BAS[ATNO][ 12].d[  7] =         1.249464045250;
  BAS[ATNO][ 12].a[  8] =         0.308000000000;     BAS[ATNO][ 12].d[  8] =        -0.315548049784;

  // Basis function  14 L = d
  InitBFNGauss(BAS[ATNO][ 13]);
  BAS[ATNO][ 13].l  = 2;
  BAS[ATNO][ 13].ng = 9;
  BAS[ATNO][ 13].a[  0] =       456.330000000000;     BAS[ATNO][ 13].d[  0] =         0.000104364545;
  BAS[ATNO][ 13].a[  1] =       136.350000000000;     BAS[ATNO][ 13].d[  1] =         0.000908159940;
  BAS[ATNO][ 13].a[  2] =        51.762000000000;     BAS[ATNO][ 13].d[  2] =         0.004379554502;
  BAS[ATNO][ 13].a[  3] =        22.080000000000;     BAS[ATNO][ 13].d[  3] =         0.012721100660;
  BAS[ATNO][ 13].a[  4] =        10.022000000000;     BAS[ATNO][ 13].d[  4] =         0.024035012784;
  BAS[ATNO][ 13].a[  5] =         4.547600000000;     BAS[ATNO][ 13].d[  5] =         0.029074143300;
  BAS[ATNO][ 13].a[  6] =         2.012800000000;     BAS[ATNO][ 13].d[  6] =         0.021114224348;
  BAS[ATNO][ 13].a[  7] =         0.830980000000;     BAS[ATNO][ 13].d[  7] =        -0.681456810472;
  BAS[ATNO][ 13].a[  8] =         0.308000000000;     BAS[ATNO][ 13].d[  8] =         1.315359200955;

  // Basis function  15 L = f
  InitBFNGauss(BAS[ATNO][ 14]);
  BAS[ATNO][ 14].l  = 3;
  BAS[ATNO][ 14].ng = 1;
  BAS[ATNO][ 14].a[  0] =         0.590000000000;     BAS[ATNO][ 14].d[  0] =         1.000000000000;

-------
TIMINGS
-------

Total SCF time: 0 days 0 hours 0 min 3 sec 

Total time                  ....       3.054 sec
Sum of individual times     ....       2.839 sec  ( 93.0%)

Fock matrix formation       ....       2.033 sec  ( 66.6%)
  XC integration            ....       0.029 sec  (  1.4% of F)
    Basis function eval.    ....       0.007 sec  ( 24.3% of XC)
    Density eval.           ....       0.001 sec  (  4.2% of XC)
    XC-Functional eval.     ....       0.002 sec  (  5.7% of XC)
    XC-Potential eval.      ....       0.002 sec  (  5.3% of XC)
Diagonalization             ....       0.001 sec  (  0.0%)
Density matrix formation    ....       0.000 sec  (  0.0%)
Population analysis         ....       0.001 sec  (  0.0%)
Initial guess               ....       0.073 sec  (  2.4%)
Orbital Transformation      ....       0.000 sec  (  0.0%)
Orbital Orthonormalization  ....       0.000 sec  (  0.0%)
DIIS solution               ....       0.000 sec  (  0.0%)
SOSCF solution              ....       0.005 sec  (  0.2%)
Grid generation             ....       0.726 sec  ( 23.8%)

-------------------------   --------------------
FINAL SINGLE POINT ENERGY     -1270.710533497304
-------------------------   --------------------


                            ***************************************
                            *     ORCA property calculations      *
                            ***************************************

                                    ---------------------
                                    Active property flags
                                    ---------------------
   (+) Dipole Moment


------------------------------------------------------------------------------
                       ORCA ELECTRIC PROPERTIES CALCULATION
------------------------------------------------------------------------------

Dipole Moment Calculation                       ... on
Quadrupole Moment Calculation                   ... off
Polarizability Calculation                      ... off
GBWName                                         ... Kr_pc-2_.gbw
Electron density file                           ... Kr_pc-2_.scfp
The origin for moment calculation is the CENTER OF MASS  = ( 0.000000,  0.000000  0.000000)

-------------
DIPOLE MOMENT
-------------
                                X             Y             Z
Electronic contribution:     -0.00000      -0.00000      -0.00000
Nuclear contribution   :      0.00000       0.00000       0.00000
                        -----------------------------------------
Total Dipole Moment    :     -0.00000      -0.00000      -0.00000
                        -----------------------------------------
Magnitude (a.u.)       :      0.00000
Magnitude (Debye)      :      0.00000



--------------------
Rotational spectrum 
--------------------
 
Rotational constants in cm-1:     0.000000     0.000000     0.000000 
Rotational constants in MHz :     0.000000     0.000000     0.000000 

 Dipole components along the rotational axes: 
x,y,z [a.u.] :    -0.000000    -0.000000    -0.000000 
x,y,z [Debye]:    -0.000000    -0.000000    -0.000000 

 

Timings for individual modules:

Sum of individual times         ...        4.219 sec (=   0.070 min)
GTO integral calculation        ...        0.914 sec (=   0.015 min)  21.7 %
SCF iterations                  ...        3.305 sec (=   0.055 min)  78.3 %
                             ****ORCA TERMINATED NORMALLY****
TOTAL RUN TIME: 0 days 0 hours 0 minutes 4 seconds 539 msec
