
                                 *****************
                                 * O   R   C   A *
                                 *****************

           --- An Ab Initio, DFT and Semiempirical electronic structure package ---

                  #######################################################
                  #                        -***-                        #
                  #          Department of theory and spectroscopy      #
                  #               Directorship: Frank Neese             #
                  #        Max Planck Institute fuer Kohlenforschung    #
                  #                Kaiser Wilhelm Platz 1               #
                  #                 D-45470 Muelheim/Ruhr               #
                  #                      Germany                        #
                  #                                                     #
                  #                  All rights reserved                #
                  #                        -***-                        #
                  #######################################################


                         Program Version 4.2.1 -  RELEASE  -


 With contributions from (in alphabetic order):
   Daniel Aravena         : Magnetic Suceptibility
   Michael Atanasov       : Ab Initio Ligand Field Theory (pilot matlab implementation)
   Alexander A. Auer      : GIAO ZORA, VPT2
   Ute Becker             : Parallelization
   Giovanni Bistoni       : ED, misc. LED, open-shell LED, HFLD
   Martin Brehm           : Molecular dynamics
   Dmytro Bykov           : SCF Hessian
   Vijay G. Chilkuri      : MRCI spin determinant printing, contributions to CSF-ICE
   Dipayan Datta          : RHF DLPNO-CCSD density
   Achintya Kumar Dutta   : EOM-CC, STEOM-CC
   Dmitry Ganyushin       : Spin-Orbit,Spin-Spin,Magnetic field MRCI
   Miquel Garcia          : C-PCM Hessian, Gaussian charge scheme
   Yang Guo               : DLPNO-NEVPT2, CIM, IAO-localization
   Andreas Hansen         : Spin unrestricted coupled pair/coupled cluster methods
   Benjamin Helmich-Paris : CASSCF linear response (MC-RPA)
   Lee Huntington         : MR-EOM, pCC
   Robert Izsak           : Overlap fitted RIJCOSX, COSX-SCS-MP3, EOM
   Christian Kollmar      : KDIIS, OOCD, Brueckner-CCSD(T), CCSD density
   Simone Kossmann        : Meta GGA functionals, TD-DFT gradient, OOMP2, MP2 Hessian
   Martin Krupicka        : AUTO-CI
   Lucas Lang             : DCDCAS
   Dagmar Lenk            : GEPOL surface, SMD
   Dimitrios Liakos       : Extrapolation schemes; Compound Job, initial MDCI parallelization
   Dimitrios Manganas     : Further ROCIS development; embedding schemes
   Dimitrios Pantazis     : SARC Basis sets
   Taras Petrenko         : DFT Hessian,TD-DFT gradient, ASA, ECA, R-Raman, ABS, FL, XAS/XES, NRVS
   Peter Pinski           : DLPNO-MP2, DLPNO-MP2 Gradient
   Christoph Reimann      : Effective Core Potentials
   Marius Retegan         : Local ZFS, SOC
   Christoph Riplinger    : Optimizer, TS searches, QM/MM, DLPNO-CCSD(T), (RO)-DLPNO pert. Triples
   Tobias Risthaus        : Range-separated hybrids, TD-DFT gradient, RPA, STAB
   Michael Roemelt        : Original ROCIS implementation
   Masaaki Saitow         : Open-shell DLPNO-CCSD energy and density
   Barbara Sandhoefer     : DKH picture change effects
   Avijit Sen             : IP-ROCIS
   Kantharuban Sivalingam : CASSCF convergence, NEVPT2, FIC-MRCI
   Bernardo de Souza      : ESD, SOC TD-DFT
   Georgi Stoychev        : AutoAux, RI-MP2 NMR
   Willem Van den Heuvel  : Paramagnetic NMR
   Boris Wezisla          : Elementary symmetry handling
   Frank Wennmohs         : Technical directorship


 We gratefully acknowledge several colleagues who have allowed us to
 interface, adapt or use parts of their codes:
   Stefan Grimme, W. Hujo, H. Kruse,             : VdW corrections, initial TS optimization,
                  C. Bannwarth                     DFT functionals, gCP, sTDA/sTD-DF
   Ed Valeev, F. Pavosevic, A. Kumar             : LibInt (2-el integral package), F12 methods
   Garnet Chan, S. Sharma, J. Yang, R. Olivares  : DMRG
   Ulf Ekstrom                                   : XCFun DFT Library
   Mihaly Kallay                                 : mrcc  (arbitrary order and MRCC methods)
   Andreas Klamt, Michael Diedenhofen            : otool_cosmo (COSMO solvation model)
   Jiri Pittner, Ondrej Demel                    : Mk-CCSD
   Frank Weinhold                                : gennbo (NPA and NBO analysis)
   Christopher J. Cramer and Donald G. Truhlar   : smd solvation model
   Lars Goerigk                                  : TD-DFT with DH, B97 family of functionals
   V. Asgeirsson, H. Jonsson                     : NEB implementation
   FAccTs GmbH                                   : IRC, NEB, NEB-TS, Multilevel, MM, QM/MM, CI optimization
   S Lehtola, MJT Oliveira, MAL Marques          : LibXC Library


 Your calculation uses the libint2 library for the computation of 2-el integrals
 For citations please refer to: http://libint.valeyev.net

 Your ORCA version has been built with support for libXC version: 4.2.3
 For citations please refer to: https://tddft.org/programs/libxc/

 This ORCA versions uses:
   CBLAS   interface :  Fast vector & matrix operations
   LAPACKE interface :  Fast linear algebra routines
   SCALAPACK package :  Parallel linear algebra routines


----- Orbital basis set information -----
Your calculation utilizes the basis: ZORA-def2-SVP 
   Exponents from def2-SVP [F. Weigend and R. Ahlrichs, Phys. Chem. Chem. Phys. 7, 3297 (2005)],
   recontracted for ZORA by D. A. Pantazis.

================================================================================
                                        WARNINGS
                       Please study these warnings very carefully!
================================================================================


INFO   : the flag for use of LIBINT has been found!

================================================================================
                                       INPUT FILE
================================================================================
NAME = Kr_zora-def2-svp_.inp
|  1> ! LDA zora-def2-svp nori grid5 finalgrid6 verytightscf
|  2> %Pal NProcs 18 End
|  3> 
|  4> *xyz 34 1
|  5> Kr 0.0 0.0 0.0
|  6> **                         ****END OF INPUT****
================================================================================

                       ****************************
                       * Single Point Calculation *
                       ****************************

---------------------------------
CARTESIAN COORDINATES (ANGSTROEM)
---------------------------------
  Kr     0.000000    0.000000    0.000000

----------------------------
CARTESIAN COORDINATES (A.U.)
----------------------------
  NO LB      ZA    FRAG     MASS         X           Y           Z
   0 Kr   36.0000    0    83.800    0.000000    0.000000    0.000000

--------------------------------
INTERNAL COORDINATES (ANGSTROEM)
--------------------------------
 Kr     0   0   0     0.000000000000     0.00000000     0.00000000

---------------------------
INTERNAL COORDINATES (A.U.)
---------------------------
 Kr     0   0   0     0.000000000000     0.00000000     0.00000000

---------------------
BASIS SET INFORMATION
---------------------
There are 1 groups of distinct atoms

 Group   1 Type Kr  : 14s10p6d contracted to 9s6p3d pattern {611111111/511111/411}

Atom   0Kr   basis set group =>   1


           ************************************************************
           *        Program running with 18 parallel MPI-processes    *
           *              working on a common directory               *
           ************************************************************
------------------------------------------------------------------------------
                           ORCA GTO INTEGRAL CALCULATION
------------------------------------------------------------------------------

                         BASIS SET STATISTICS AND STARTUP INFO

 # of primitive gaussian shells          ...   30
 # of primitive gaussian functions       ...   74
 # of contracted shells                  ...   18
 # of contracted basis functions         ...   42
 Highest angular momentum                ...    2
 Maximum contraction depth               ...    6
 Integral package used                   ... LIBINT
 Integral threshhold            Thresh   ...  1.000e-12
 Primitive cut-off              TCut     ...  1.000e-14


------------------------------ INTEGRAL EVALUATION ----------------------------


 * One electron integrals 
 Pre-screening matrix                    ... done
 Shell pair data                         ... done (   0.000 sec)



           ************************************************************
           *        Program running with 18 parallel MPI-processes    *
           *              working on a common directory               *
           ************************************************************
-------------------------------------------------------------------------------
                                 ORCA SCF
-------------------------------------------------------------------------------

------------
SCF SETTINGS
------------
Hamiltonian:
 Density Functional     Method          .... DFT(GTOs)
 Exchange Functional    Exchange        .... Slater
   X-Alpha parameter    XAlpha          ....  0.666667
 Correlation Functional Correlation     .... VWN-5
 Gradients option       PostSCFGGA      .... off
   Density functional embedding theory  .... OFF


General Settings:
 Integral files         IntName         .... Kr_zora-def2-svp_
 Hartree-Fock type      HFTyp           .... RHF
 Total Charge           Charge          ....   34
 Multiplicity           Mult            ....    1
 Number of Electrons    NEL             ....    2
 Basis Dimension        Dim             ....   42
 Nuclear Repulsion      ENuc            ....      0.0000000000 Eh

Convergence Acceleration:
 DIIS                   CNVDIIS         .... on
   Start iteration      DIISMaxIt       ....    12
   Startup error        DIISStart       ....  0.200000
   # of expansion vecs  DIISMaxEq       ....     5
   Bias factor          DIISBfac        ....   1.050
   Max. coefficient     DIISMaxC        ....  10.000
 Newton-Raphson         CNVNR           .... off
 SOSCF                  CNVSOSCF        .... on
   Start iteration      SOSCFMaxIt      ....   150
   Startup grad/error   SOSCFStart      ....  0.003300
 Level Shifting         CNVShift        .... on
   Level shift para.    LevelShift      ....    0.2500
   Turn off err/grad.   ShiftErr        ....    0.0010
 Zerner damping         CNVZerner       .... off
 Static damping         CNVDamp         .... on
   Fraction old density DampFac         ....    0.7000
   Max. Damping (<1)    DampMax         ....    0.9800
   Min. Damping (>=0)   DampMin         ....    0.0000
   Turn off err/grad.   DampErr         ....    0.1000
 Fernandez-Rico         CNVRico         .... off

SCF Procedure:
 Maximum # iterations   MaxIter         ....   125
 SCF integral mode      SCFMode         .... Direct
   Integral package                     .... LIBINT
 Reset frequency        DirectResetFreq ....    20
 Integral Threshold     Thresh          ....  1.000e-12 Eh
 Primitive CutOff       TCut            ....  1.000e-14 Eh

Convergence Tolerance:
 Convergence Check Mode ConvCheckMode   .... Total+1el-Energy
 Convergence forced     ConvForced      .... 0
 Energy Change          TolE            ....  1.000e-09 Eh
 1-El. energy change                    ....  1.000e-06 Eh
 Orbital Gradient       TolG            ....  2.000e-06
 Orbital Rotation angle TolX            ....  2.000e-06
 DIIS Error             TolErr          ....  1.000e-08


Diagonalization of the overlap matrix:
Smallest eigenvalue                        ... 5.579e-04
Time for diagonalization                   ...    0.001 sec
Threshold for overlap eigenvalues          ... 1.000e-08
Number of eigenvalues below threshold      ... 0
Time for construction of square roots      ...    0.001 sec
Total time needed                          ...    0.002 sec

-------------------
DFT GRID GENERATION
-------------------

General Integration Accuracy     IntAcc      ...  5.010
Radial Grid Type                 RadialGrid  ... Gauss-Chebyshev
Angular Grid (max. acc.)         AngularGrid ... Lebedev-434
Angular grid pruning method      GridPruning ... 3 (G Style)
Weight generation scheme         WeightScheme... Becke
Basis function cutoff            BFCut       ...    1.0000e-12
Integration weight cutoff        WCut        ...    1.0000e-14
Grids for H and He will be reduced by one unit

# of grid points (after initial pruning)     ...  16106 (   0.0 sec)
# of grid points (after weights+screening)   ...  16106 (   0.0 sec)
Grid point division into batches done        ...    0.2 sec
Reduced shell lists constructed in    0.2 sec

Total number of grid points                  ...    16106
Total number of batches                      ...      252
Average number of points per batch           ...       63
Average number of grid points per atom       ...    16106
Average number of shells per batch           ...     0.00 ( 0.00%)
Average number of basis functions per batch  ...     0.00 ( 0.00%)
Average number of large shells per batch     ...     0.00 ( -nan%)
Average number of large basis fcns per batch ...     0.00 ( -nan%)
Maximum spatial batch extension              ...  17.34, 17.34, 17.34 au
Average spatial batch extension              ...   0.86,  0.87,  0.87 au

Time for grid setup =    0.251 sec

------------------------------
INITIAL GUESS: MODEL POTENTIAL
------------------------------
Loading Hartree-Fock densities                     ... done
Calculating cut-offs                               ... done
Setting up the integral package                    ... done
Initializing the effective Hamiltonian             ... done
Starting the Coulomb interaction                   ... done (   0.0 sec)
Reading the grid                                   ... done
Mapping shells                                     ... done
Starting the XC term evaluation                    ... done (   0.0 sec)
  promolecular density results
     # of electrons  =     35.999999729
     EX              =    -88.624060943
     EC              =     -3.283969203
     EX+EC           =    -91.908030146
Transforming the Hamiltonian                       ... done (   0.0 sec)
Diagonalizing the Hamiltonian                      ... done (   0.0 sec)
Back transforming the eigenvectors                 ... done (   0.0 sec)
Now organizing SCF variables                       ... done
                      ------------------
                      INITIAL GUESS DONE (   0.3 sec)
                      ------------------
--------------
SCF ITERATIONS
--------------
ITER       Energy         Delta-E        Max-DP      RMS-DP      [F,P]     Damp
               ***  Starting incremental Fock matrix formation  ***
  0  -1269.3669968827   0.000000000000 0.03010954  0.00107963  5.5445531 0.7000
  1  -1269.3832229354  -0.016226052665 0.02099779  0.00075297  3.8671220 0.7000
  2  -1269.3945216172  -0.011298681795 0.01463507  0.00052486  2.6966425 0.7000
  3  -1269.4024018737  -0.007880256509 0.01020046  0.00036585  1.8804770 0.7000
  4  -1269.4079041031  -0.005502229404 0.00710965  0.00025502  1.3113544 0.7000
  5  -1269.4117489100  -0.003844806898 0.00495542  0.00017777  0.9144888 0.7000
                      *** Initiating the SOSCF procedure ***
                      *** Re-Reading the Fockian *** 
                      *** Removing any level shift *** 
ITER      Energy       Delta-E        Grad      Rot      Max-DP    RMS-DP
  6  -1269.41443700  -0.0026880947  0.002649  0.002649  0.011513  0.000413
               *** Restarting incremental Fock matrix formation ***
  7  -1269.42069889  -0.0062618894  0.006148  0.000005  0.000115  0.000004
  8  -1269.42069899  -0.0000000954  0.000081  0.000000  0.000002  0.000000
                 **** Energy Check signals convergence ****
              ***Rediagonalizing the Fockian in SOSCF/NRSCF***

               *****************************************************
               *                     SUCCESS                       *
               *           SCF CONVERGED AFTER   9 CYCLES          *
               *****************************************************

Setting up the final grid:

General Integration Accuracy     IntAcc      ...  5.340
Radial Grid Type                 RadialGrid  ... Gauss-Chebyshev
Angular Grid (max. acc.)         AngularGrid ... Lebedev-590
Angular grid pruning method      GridPruning ... 3 (G Style)
Weight generation scheme         WeightScheme... Becke
Basis function cutoff            BFCut       ...    1.0000e-12
Integration weight cutoff        WCut        ...    1.0000e-14
Grids for H and He will be reduced by one unit

# of grid points (after initial pruning)     ...  24180 (   0.0 sec)
# of grid points (after weights+screening)   ...  24180 (   0.0 sec)
Grid point division into batches done        ...    0.4 sec
Reduced shell lists constructed in    0.4 sec

Total number of grid points                  ...    24180
Total number of batches                      ...      378
Average number of points per batch           ...       63
Average number of grid points per atom       ...    24180
Average number of shells per batch           ...     0.00 ( 0.00%)
Average number of basis functions per batch  ...     0.00 ( 0.00%)
Average number of large shells per batch     ...     0.00 ( -nan%)
Average number of large basis fcns per batch ...     0.00 ( -nan%)
Maximum spatial batch extension              ...  17.58, 17.58, 17.58 au
Average spatial batch extension              ...   0.77,  0.77,  0.77 au

Final grid set up in    0.4 sec
Final integration                            ... done (   0.0 sec)
Change in XC energy                          ...     0.000003938
Integrated number of electrons               ...     1.999999743
Previous integrated no of electrons          ...     1.999999530

----------------
TOTAL SCF ENERGY
----------------

Total Energy       :        -1269.42069505 Eh          -34542.69323 eV

Components:
Nuclear Repulsion  :            0.00000000 Eh               0.00000 eV
Electronic Energy  :        -1269.42069505 Eh          -34542.69323 eV
One Electron Energy:        -1294.42044164 Eh          -35222.97092 eV
Two Electron Energy:           24.99974659 Eh             680.27769 eV

Virial components:
Potential Energy   :        -2541.64520310 Eh          -69161.68209 eV
Kinetic Energy     :         1272.22450805 Eh           34618.98886 eV
Virial Ratio       :            1.99779613


DFT components:
N(Alpha)           :        0.999999871269 electrons
N(Beta)            :        0.999999871269 electrons
N(Total)           :        1.999999742538 electrons
E(X)               :      -18.999022667603 Eh       
E(C)               :       -0.277750771012 Eh       
E(XC)              :      -19.276773438615 Eh       
DFET-embed. en.    :        0.000000000000 Eh       

---------------
SCF CONVERGENCE
---------------

  Last Energy change         ...   -1.7735e-11  Tolerance :   1.0000e-09
  Last MAX-Density change    ...    0.0000e+00  Tolerance :   1.0000e-08
  Last RMS-Density change    ...    0.0000e+00  Tolerance :   1.0000e-09
  Last Orbital Gradient      ...    3.3964e-10  Tolerance :   2.0000e-06
  Last Orbital Rotation      ...    0.0000e+00  Tolerance :   2.0000e-06

================================================================================
                                        WARNING
Number of found core electrons (2) does not match given number of chemical core electrons (18)
================================================================================
             **** THE GBW FILE WAS UPDATED (Kr_zora-def2-svp_.gbw) ****
             **** DENSITY FILE WAS UPDATED (Kr_zora-def2-svp_.scfp) ****
             **** ENERGY FILE WAS UPDATED (Kr_zora-def2-svp_.en.tmp) ****
             **** THE GBW FILE WAS UPDATED (Kr_zora-def2-svp_.gbw) ****
             **** DENSITY FILE WAS UPDATED (Kr_zora-def2-svp_.scfp) ****
----------------
ORBITAL ENERGIES
----------------

  NO   OCC          E(Eh)            E(eV) 
   0   2.0000    -615.748430    -16755.3666 
   1   0.0000    -148.766955     -4048.1547 
   2   0.0000    -147.023554     -4000.7143 
   3   0.0000    -147.023554     -4000.7143 
   4   0.0000    -147.023554     -4000.7143 
   5   0.0000     -65.301762     -1776.9513 
   6   0.0000     -64.379121     -1751.8450 
   7   0.0000     -64.379121     -1751.8450 
   8   0.0000     -64.379121     -1751.8450 
   9   0.0000     -58.853000     -1601.4715 
  10   0.0000     -58.853000     -1601.4715 
  11   0.0000     -58.853000     -1601.4715 
  12   0.0000     -58.853000     -1601.4715 
  13   0.0000     -58.853000     -1601.4715 
  14   0.0000     -36.338178      -988.8121 
  15   0.0000     -35.992646      -979.4097 
  16   0.0000     -35.992646      -979.4097 
  17   0.0000     -35.992646      -979.4097 
  18   0.0000     -27.847330      -757.7644 
  19   0.0000     -27.847330      -757.7644 
  20   0.0000     -27.847330      -757.7644 
  21   0.0000     -27.847330      -757.7644 
  22   0.0000     -27.847330      -757.7644 
  23   0.0000     -22.965734      -624.9294 
  24   0.0000     -22.965734      -624.9294 
  25   0.0000     -22.965734      -624.9294 
  26   0.0000     -22.163928      -603.1111 
  27   0.0000     -15.900844      -432.6840 
  28   0.0000     -15.900844      -432.6840 
  29   0.0000     -15.900844      -432.6840 
  30   0.0000     -15.188036      -413.2875 
  31   0.0000     -15.121666      -411.4815 
  32   0.0000     -15.121666      -411.4815 
  33   0.0000     -15.121666      -411.4815 
  34   0.0000     -15.121666      -411.4815 
  35   0.0000     -15.121666      -411.4815 
  36   0.0000     -10.560550      -287.3672 
  37   0.0000     -10.518261      -286.2164 
  38   0.0000     -10.518261      -286.2164 
  39   0.0000     -10.518261      -286.2164 
  40   0.0000      44.871605      1221.0185 
  41   0.0000    1199.749381     32646.8404 

                    ********************************
                    * MULLIKEN POPULATION ANALYSIS *
                    ********************************

-----------------------
MULLIKEN ATOMIC CHARGES
-----------------------
   0 Kr:   34.000000
Sum of atomic charges:   34.0000000

--------------------------------
MULLIKEN REDUCED ORBITAL CHARGES
--------------------------------
  0 Krs       :     2.000000  s :     2.000000
      pz      :     0.000000  p :     0.000000
      px      :     0.000000
      py      :     0.000000
      dz2     :     0.000000  d :     0.000000
      dxz     :     0.000000
      dyz     :     0.000000
      dx2y2   :     0.000000
      dxy     :     0.000000


                     *******************************
                     * LOEWDIN POPULATION ANALYSIS *
                     *******************************

----------------------
LOEWDIN ATOMIC CHARGES
----------------------
   0 Kr:   34.000000

-------------------------------
LOEWDIN REDUCED ORBITAL CHARGES
-------------------------------
  0 Krs       :     2.000000  s :     2.000000
      pz      :     0.000000  p :     0.000000
      px      :     0.000000
      py      :     0.000000
      dz2     :     0.000000  d :     0.000000
      dxz     :     0.000000
      dyz     :     0.000000
      dx2y2   :     0.000000
      dxy     :     0.000000


                      *****************************
                      * MAYER POPULATION ANALYSIS *
                      *****************************

  NA   - Mulliken gross atomic population
  ZA   - Total nuclear charge
  QA   - Mulliken gross atomic charge
  VA   - Mayer's total valence
  BVA  - Mayer's bonded valence
  FA   - Mayer's free valence

  ATOM       NA         ZA         QA         VA         BVA        FA
  0 Kr     2.0000    36.0000    34.0000    -0.0000     0.0000    -0.0000

  Mayer bond orders larger than 0.100000


--------------------------
ATOM BASIS FOR ELEMENT Kr
--------------------------
 NewGTO Kr
 S 14
    1     120165.648799999995         0.002780875850
    2      18042.500169999999         0.015710179139
    3       4105.180039000000         0.068011753866
    4       1159.444725000000         0.218039157691
    5        378.138103500000         0.404075709909
    6        130.676100500000         0.283459497394
    7        250.963733500000         0.124726860582
    8         30.265930380000         0.126848212750
    9         12.668110760000         0.031662778169
   10         22.697940100000        -0.122822040854
   11          3.867301740000        -0.006499155788
   12          1.801370667000         0.002961910614
   13          0.403086391400        -0.000736153470
   14          0.151705277500         0.000287456702
 S 14
    1     120165.648799999995         0.001067413859
    2      18042.500169999999         0.006030209129
    3       4105.180039000000         0.026105692073
    4       1159.444725000000         0.083692344146
    5        378.138103500000         0.155100779753
    6        130.676100500000         0.108803345502
    7        250.963733500000         0.181995227840
    8         30.265930380000        -1.041228937385
    9         12.668110760000        -0.367222310561
   10         22.697940100000         0.244424337540
   11          3.867301740000         0.035886404356
   12          1.801370667000        -0.017321793321
   13          0.403086391400         0.004368926177
   14          0.151705277500        -0.001698838818
 S 14
    1     120165.648799999995         0.000581650848
    2      18042.500169999999         0.003285957197
    3       4105.180039000000         0.014225408259
    4       1159.444725000000         0.045605294061
    5        378.138103500000         0.084516890307
    6        130.676100500000         0.059288679473
    7        250.963733500000         0.114417393081
    8         30.265930380000        -0.690439607833
    9         12.668110760000         0.959695105476
   10         22.697940100000        -0.841522886105
   11          3.867301740000         1.030185920860
   12          1.801370667000        -0.238896337052
   13          0.403086391400         0.050291461735
   14          0.151705277500        -0.018821462722
 S 14
    1     120165.648799999995        -0.000377977283
    2      18042.500169999999        -0.002135331151
    3       4105.180039000000        -0.009244173180
    4       1159.444725000000        -0.029635932308
    5        378.138103500000        -0.054922063142
    6        130.676100500000        -0.038527879881
    7        250.963733500000        -0.074777081425
    8         30.265930380000         0.068829930344
    9         12.668110760000        -2.366541763740
   10         22.697940100000         1.905182832015
   11          3.867301740000        -0.543856950237
   12          1.801370667000         1.691679285562
   13          0.403086391400        -0.158224328273
   14          0.151705277500         0.056456971407
 S 14
    1     120165.648799999995        -0.000309116888
    2      18042.500169999999        -0.001746313730
    3       4105.180039000000        -0.007560057623
    4       1159.444725000000        -0.024236819409
    5        378.138103500000        -0.044916289864
    6        130.676100500000        -0.031508820346
    7        250.963733500000        -0.057703637318
    8         30.265930380000        -0.605083853414
    9         12.668110760000        -4.070891263085
   10         22.697940100000         3.289156183319
   11          3.867301740000         2.532423566716
   12          1.801370667000        -0.488583619995
   13          0.403086391400        -1.283291974783
   14          0.151705277500         0.350723342564
 S 14
    1     120165.648799999995        -0.000322364765
    2      18042.500169999999        -0.001821155809
    3       4105.180039000000        -0.007884060364
    4       1159.444725000000        -0.025275541112
    5        378.138103500000        -0.046841275331
    6        130.676100500000        -0.032859199494
    7        250.963733500000        -0.059793306214
    8         30.265930380000        -0.847667514978
    9         12.668110760000        -5.375253959358
   10         22.697940100000         4.129412615766
   11          3.867301740000         5.431106039332
   12          1.801370667000        -4.292426408401
   13          0.403086391400         1.425022226124
   14          0.151705277500         0.037096522516
 S 14
    1     120165.648799999995        -0.000127883607
    2      18042.500169999999        -0.000722461008
    3       4105.180039000000        -0.003127643537
    4       1159.444725000000        -0.010026925107
    5        378.138103500000        -0.018582152507
    6        130.676100500000        -0.013035397776
    7        250.963733500000        -0.024660939801
    8         30.265930380000        -0.263922716616
    9         12.668110760000        -2.210348416293
   10         22.697940100000         1.558646608409
   11          3.867301740000         2.693460133308
   12          1.801370667000        -2.697490976728
   13          0.403086391400         2.688769791856
   14          0.151705277500        -2.225910517245
 S 14
    1     120165.648799999995         0.001044628716
    2      18042.500169999999         0.005901487569
    3       4105.180039000000         0.025548436872
    4       1159.444725000000         0.081905837435
    5        378.138103500000         0.151789980101
    6        130.676100500000         0.106480816376
    7        250.963733500000         0.356125363936
    8         30.265930380000       -20.503463785800
    9         12.668110760000       -14.029874889208
   10         22.697940100000        31.265701007397
   11          3.867301740000         4.469657622327
   12          1.801370667000        -2.235190100308
   13          0.403086391400         0.607528765955
   14          0.151705277500        -0.246176353346
 S 14
    1     120165.648799999995        -0.010651883763
    2      18042.500169999999        -0.060176365682
    3       4105.180039000000        -0.260512635474
    4       1159.444725000000        -0.835178515151
    5        378.138103500000        -1.547774055740
    6        130.676100500000        -1.085764982058
    7        250.963733500000         3.720242507698
    8         30.265930380000        -5.483692326386
    9         12.668110760000        -2.834184453690
   10         22.697940100000         7.507433501943
   11          3.867301740000         0.770042793639
   12          1.801370667000        -0.372009092960
   13          0.403086391400         0.096352549610
   14          0.151705277500        -0.037988970841
 P 10
    1       1668.573662000000         0.010934984107
    2        394.138628000000         0.072975621279
    3        125.466448500000         0.276350080476
    4         45.704992730000         0.544641054258
    5         17.270133230000         0.369402269219
    6          9.269948777000        -0.188505361720
    7          3.836461772000         0.113171184854
    8          1.646716331000        -0.058710678132
    9          0.614796864900         0.021319304675
   10          0.183194674100        -0.005372145626
 P 10
    1       1668.573662000000         0.006549155546
    2        394.138628000000         0.043706391353
    3        125.466448500000         0.165510954974
    4         45.704992730000         0.326195168291
    5         17.270133230000         0.221241557964
    6          9.269948777000        -1.225842568406
    7          3.836461772000         0.031843467077
    8          1.646716331000        -0.096105951573
    9          0.614796864900         0.037140875401
   10          0.183194674100        -0.009358745297
 P 10
    1       1668.573662000000         0.004182299417
    2        394.138628000000         0.027910959483
    3        125.466448500000         0.105695515355
    4         45.704992730000         0.208308667087
    5         17.270133230000         0.141285152337
    6          9.269948777000        -1.487831229252
    7          3.836461772000         1.349039570669
    8          1.646716331000         0.293173877328
    9          0.614796864900        -0.010001783152
   10          0.183194674100         0.000426248762
 P 10
    1       1668.573662000000         0.002980034884
    2        394.138628000000         0.019887536639
    3        125.466448500000         0.075311758289
    4         45.704992730000         0.148427224490
    5         17.270133230000         0.100670621710
    6          9.269948777000        -1.442531732466
    7          3.836461772000         2.566667189940
    8          1.646716331000        -1.641849647559
    9          0.614796864900        -0.287897317309
   10          0.183194674100         0.034800651046
 P 10
    1       1668.573662000000         0.001948152643
    2        394.138628000000         0.013001175683
    3        125.466448500000         0.049233920636
    4         45.704992730000         0.097032048604
    5         17.270133230000         0.065811893285
    6          9.269948777000        -1.085887592524
    7          3.836461772000         2.518707810448
    8          1.646716331000        -3.053535067822
    9          0.614796864900         1.944113063009
   10          0.183194674100        -0.066168463556
 P 10
    1       1668.573662000000         0.000696152493
    2        394.138628000000         0.004645837633
    3        125.466448500000         0.017593239785
    4         45.704992730000         0.034673413693
    5         17.270133230000         0.023517209361
    6          9.269948777000        -0.410438340271
    7          3.836461772000         1.057383880979
    8          1.646716331000        -1.595670108560
    9          0.614796864900         1.782712721400
   10          0.183194674100        -1.510328680752
 D 6
    1        115.558686000000         0.028730061027
    2         33.477985860000         0.169415980961
    3         11.834450210000         0.464392899952
    4          4.340825489000         0.631108417360
    5          1.507927316000        -0.246295318377
    6          0.443000000000         0.071741628279
 D 6
    1        115.558686000000         0.009092361445
    2         33.477985860000         0.053616013278
    3         11.834450210000         0.146968991643
    4          4.340825489000         0.199730374273
    5          1.507927316000        -1.198084419606
    6          0.443000000000         0.168438531636
 D 6
    1        115.558686000000         0.002933460620
    2         33.477985860000         0.017298087467
    3         11.834450210000         0.047416477222
    4          4.340825489000         0.064438835950
    5          1.507927316000        -0.577983314277
    6          0.443000000000         1.195723066798
 end
  // -----------------------------------------------
  // The basis set
  // -----------------------------------------------
  BAS[ATNO] = new BFNGauss[NSH];
  // Basis function   1 L = s
  InitBFNGauss(BAS[ATNO][  0]);
  BAS[ATNO][  0].l  = 0;
  BAS[ATNO][  0].ng = 14;
  BAS[ATNO][  0].a[  0] =    120165.648799999995;     BAS[ATNO][  0].d[  0] =         0.002780875850;
  BAS[ATNO][  0].a[  1] =     18042.500169999999;     BAS[ATNO][  0].d[  1] =         0.015710179139;
  BAS[ATNO][  0].a[  2] =      4105.180039000000;     BAS[ATNO][  0].d[  2] =         0.068011753866;
  BAS[ATNO][  0].a[  3] =      1159.444725000000;     BAS[ATNO][  0].d[  3] =         0.218039157691;
  BAS[ATNO][  0].a[  4] =       378.138103500000;     BAS[ATNO][  0].d[  4] =         0.404075709909;
  BAS[ATNO][  0].a[  5] =       130.676100500000;     BAS[ATNO][  0].d[  5] =         0.283459497394;
  BAS[ATNO][  0].a[  6] =       250.963733500000;     BAS[ATNO][  0].d[  6] =         0.124726860582;
  BAS[ATNO][  0].a[  7] =        30.265930380000;     BAS[ATNO][  0].d[  7] =         0.126848212750;
  BAS[ATNO][  0].a[  8] =        12.668110760000;     BAS[ATNO][  0].d[  8] =         0.031662778169;
  BAS[ATNO][  0].a[  9] =        22.697940100000;     BAS[ATNO][  0].d[  9] =        -0.122822040854;
  BAS[ATNO][  0].a[ 10] =         3.867301740000;     BAS[ATNO][  0].d[ 10] =        -0.006499155788;
  BAS[ATNO][  0].a[ 11] =         1.801370667000;     BAS[ATNO][  0].d[ 11] =         0.002961910614;
  BAS[ATNO][  0].a[ 12] =         0.403086391400;     BAS[ATNO][  0].d[ 12] =        -0.000736153470;
  BAS[ATNO][  0].a[ 13] =         0.151705277500;     BAS[ATNO][  0].d[ 13] =         0.000287456702;

  // Basis function   2 L = s
  InitBFNGauss(BAS[ATNO][  1]);
  BAS[ATNO][  1].l  = 0;
  BAS[ATNO][  1].ng = 14;
  BAS[ATNO][  1].a[  0] =    120165.648799999995;     BAS[ATNO][  1].d[  0] =        -0.001067413859;
  BAS[ATNO][  1].a[  1] =     18042.500169999999;     BAS[ATNO][  1].d[  1] =        -0.006030209129;
  BAS[ATNO][  1].a[  2] =      4105.180039000000;     BAS[ATNO][  1].d[  2] =        -0.026105692073;
  BAS[ATNO][  1].a[  3] =      1159.444725000000;     BAS[ATNO][  1].d[  3] =        -0.083692344146;
  BAS[ATNO][  1].a[  4] =       378.138103500000;     BAS[ATNO][  1].d[  4] =        -0.155100779753;
  BAS[ATNO][  1].a[  5] =       130.676100500000;     BAS[ATNO][  1].d[  5] =        -0.108803345502;
  BAS[ATNO][  1].a[  6] =       250.963733500000;     BAS[ATNO][  1].d[  6] =        -0.181995227840;
  BAS[ATNO][  1].a[  7] =        30.265930380000;     BAS[ATNO][  1].d[  7] =         1.041228937385;
  BAS[ATNO][  1].a[  8] =        12.668110760000;     BAS[ATNO][  1].d[  8] =         0.367222310561;
  BAS[ATNO][  1].a[  9] =        22.697940100000;     BAS[ATNO][  1].d[  9] =        -0.244424337540;
  BAS[ATNO][  1].a[ 10] =         3.867301740000;     BAS[ATNO][  1].d[ 10] =        -0.035886404356;
  BAS[ATNO][  1].a[ 11] =         1.801370667000;     BAS[ATNO][  1].d[ 11] =         0.017321793321;
  BAS[ATNO][  1].a[ 12] =         0.403086391400;     BAS[ATNO][  1].d[ 12] =        -0.004368926177;
  BAS[ATNO][  1].a[ 13] =         0.151705277500;     BAS[ATNO][  1].d[ 13] =         0.001698838818;

  // Basis function   3 L = s
  InitBFNGauss(BAS[ATNO][  2]);
  BAS[ATNO][  2].l  = 0;
  BAS[ATNO][  2].ng = 14;
  BAS[ATNO][  2].a[  0] =    120165.648799999995;     BAS[ATNO][  2].d[  0] =         0.000581650848;
  BAS[ATNO][  2].a[  1] =     18042.500169999999;     BAS[ATNO][  2].d[  1] =         0.003285957197;
  BAS[ATNO][  2].a[  2] =      4105.180039000000;     BAS[ATNO][  2].d[  2] =         0.014225408259;
  BAS[ATNO][  2].a[  3] =      1159.444725000000;     BAS[ATNO][  2].d[  3] =         0.045605294061;
  BAS[ATNO][  2].a[  4] =       378.138103500000;     BAS[ATNO][  2].d[  4] =         0.084516890307;
  BAS[ATNO][  2].a[  5] =       130.676100500000;     BAS[ATNO][  2].d[  5] =         0.059288679473;
  BAS[ATNO][  2].a[  6] =       250.963733500000;     BAS[ATNO][  2].d[  6] =         0.114417393081;
  BAS[ATNO][  2].a[  7] =        30.265930380000;     BAS[ATNO][  2].d[  7] =        -0.690439607833;
  BAS[ATNO][  2].a[  8] =        12.668110760000;     BAS[ATNO][  2].d[  8] =         0.959695105476;
  BAS[ATNO][  2].a[  9] =        22.697940100000;     BAS[ATNO][  2].d[  9] =        -0.841522886105;
  BAS[ATNO][  2].a[ 10] =         3.867301740000;     BAS[ATNO][  2].d[ 10] =         1.030185920860;
  BAS[ATNO][  2].a[ 11] =         1.801370667000;     BAS[ATNO][  2].d[ 11] =        -0.238896337052;
  BAS[ATNO][  2].a[ 12] =         0.403086391400;     BAS[ATNO][  2].d[ 12] =         0.050291461735;
  BAS[ATNO][  2].a[ 13] =         0.151705277500;     BAS[ATNO][  2].d[ 13] =        -0.018821462722;

  // Basis function   4 L = s
  InitBFNGauss(BAS[ATNO][  3]);
  BAS[ATNO][  3].l  = 0;
  BAS[ATNO][  3].ng = 14;
  BAS[ATNO][  3].a[  0] =    120165.648799999995;     BAS[ATNO][  3].d[  0] =         0.000377977283;
  BAS[ATNO][  3].a[  1] =     18042.500169999999;     BAS[ATNO][  3].d[  1] =         0.002135331151;
  BAS[ATNO][  3].a[  2] =      4105.180039000000;     BAS[ATNO][  3].d[  2] =         0.009244173180;
  BAS[ATNO][  3].a[  3] =      1159.444725000000;     BAS[ATNO][  3].d[  3] =         0.029635932308;
  BAS[ATNO][  3].a[  4] =       378.138103500000;     BAS[ATNO][  3].d[  4] =         0.054922063142;
  BAS[ATNO][  3].a[  5] =       130.676100500000;     BAS[ATNO][  3].d[  5] =         0.038527879881;
  BAS[ATNO][  3].a[  6] =       250.963733500000;     BAS[ATNO][  3].d[  6] =         0.074777081425;
  BAS[ATNO][  3].a[  7] =        30.265930380000;     BAS[ATNO][  3].d[  7] =        -0.068829930344;
  BAS[ATNO][  3].a[  8] =        12.668110760000;     BAS[ATNO][  3].d[  8] =         2.366541763740;
  BAS[ATNO][  3].a[  9] =        22.697940100000;     BAS[ATNO][  3].d[  9] =        -1.905182832015;
  BAS[ATNO][  3].a[ 10] =         3.867301740000;     BAS[ATNO][  3].d[ 10] =         0.543856950237;
  BAS[ATNO][  3].a[ 11] =         1.801370667000;     BAS[ATNO][  3].d[ 11] =        -1.691679285562;
  BAS[ATNO][  3].a[ 12] =         0.403086391400;     BAS[ATNO][  3].d[ 12] =         0.158224328273;
  BAS[ATNO][  3].a[ 13] =         0.151705277500;     BAS[ATNO][  3].d[ 13] =        -0.056456971407;

  // Basis function   5 L = s
  InitBFNGauss(BAS[ATNO][  4]);
  BAS[ATNO][  4].l  = 0;
  BAS[ATNO][  4].ng = 14;
  BAS[ATNO][  4].a[  0] =    120165.648799999995;     BAS[ATNO][  4].d[  0] =         0.000309116888;
  BAS[ATNO][  4].a[  1] =     18042.500169999999;     BAS[ATNO][  4].d[  1] =         0.001746313730;
  BAS[ATNO][  4].a[  2] =      4105.180039000000;     BAS[ATNO][  4].d[  2] =         0.007560057623;
  BAS[ATNO][  4].a[  3] =      1159.444725000000;     BAS[ATNO][  4].d[  3] =         0.024236819409;
  BAS[ATNO][  4].a[  4] =       378.138103500000;     BAS[ATNO][  4].d[  4] =         0.044916289864;
  BAS[ATNO][  4].a[  5] =       130.676100500000;     BAS[ATNO][  4].d[  5] =         0.031508820346;
  BAS[ATNO][  4].a[  6] =       250.963733500000;     BAS[ATNO][  4].d[  6] =         0.057703637318;
  BAS[ATNO][  4].a[  7] =        30.265930380000;     BAS[ATNO][  4].d[  7] =         0.605083853414;
  BAS[ATNO][  4].a[  8] =        12.668110760000;     BAS[ATNO][  4].d[  8] =         4.070891263085;
  BAS[ATNO][  4].a[  9] =        22.697940100000;     BAS[ATNO][  4].d[  9] =        -3.289156183319;
  BAS[ATNO][  4].a[ 10] =         3.867301740000;     BAS[ATNO][  4].d[ 10] =        -2.532423566716;
  BAS[ATNO][  4].a[ 11] =         1.801370667000;     BAS[ATNO][  4].d[ 11] =         0.488583619995;
  BAS[ATNO][  4].a[ 12] =         0.403086391400;     BAS[ATNO][  4].d[ 12] =         1.283291974783;
  BAS[ATNO][  4].a[ 13] =         0.151705277500;     BAS[ATNO][  4].d[ 13] =        -0.350723342564;

  // Basis function   6 L = s
  InitBFNGauss(BAS[ATNO][  5]);
  BAS[ATNO][  5].l  = 0;
  BAS[ATNO][  5].ng = 14;
  BAS[ATNO][  5].a[  0] =    120165.648799999995;     BAS[ATNO][  5].d[  0] =        -0.000322364765;
  BAS[ATNO][  5].a[  1] =     18042.500169999999;     BAS[ATNO][  5].d[  1] =        -0.001821155809;
  BAS[ATNO][  5].a[  2] =      4105.180039000000;     BAS[ATNO][  5].d[  2] =        -0.007884060364;
  BAS[ATNO][  5].a[  3] =      1159.444725000000;     BAS[ATNO][  5].d[  3] =        -0.025275541112;
  BAS[ATNO][  5].a[  4] =       378.138103500000;     BAS[ATNO][  5].d[  4] =        -0.046841275331;
  BAS[ATNO][  5].a[  5] =       130.676100500000;     BAS[ATNO][  5].d[  5] =        -0.032859199494;
  BAS[ATNO][  5].a[  6] =       250.963733500000;     BAS[ATNO][  5].d[  6] =        -0.059793306214;
  BAS[ATNO][  5].a[  7] =        30.265930380000;     BAS[ATNO][  5].d[  7] =        -0.847667514978;
  BAS[ATNO][  5].a[  8] =        12.668110760000;     BAS[ATNO][  5].d[  8] =        -5.375253959358;
  BAS[ATNO][  5].a[  9] =        22.697940100000;     BAS[ATNO][  5].d[  9] =         4.129412615766;
  BAS[ATNO][  5].a[ 10] =         3.867301740000;     BAS[ATNO][  5].d[ 10] =         5.431106039332;
  BAS[ATNO][  5].a[ 11] =         1.801370667000;     BAS[ATNO][  5].d[ 11] =        -4.292426408401;
  BAS[ATNO][  5].a[ 12] =         0.403086391400;     BAS[ATNO][  5].d[ 12] =         1.425022226124;
  BAS[ATNO][  5].a[ 13] =         0.151705277500;     BAS[ATNO][  5].d[ 13] =         0.037096522516;

  // Basis function   7 L = s
  InitBFNGauss(BAS[ATNO][  6]);
  BAS[ATNO][  6].l  = 0;
  BAS[ATNO][  6].ng = 14;
  BAS[ATNO][  6].a[  0] =    120165.648799999995;     BAS[ATNO][  6].d[  0] =         0.000127883607;
  BAS[ATNO][  6].a[  1] =     18042.500169999999;     BAS[ATNO][  6].d[  1] =         0.000722461008;
  BAS[ATNO][  6].a[  2] =      4105.180039000000;     BAS[ATNO][  6].d[  2] =         0.003127643537;
  BAS[ATNO][  6].a[  3] =      1159.444725000000;     BAS[ATNO][  6].d[  3] =         0.010026925107;
  BAS[ATNO][  6].a[  4] =       378.138103500000;     BAS[ATNO][  6].d[  4] =         0.018582152507;
  BAS[ATNO][  6].a[  5] =       130.676100500000;     BAS[ATNO][  6].d[  5] =         0.013035397776;
  BAS[ATNO][  6].a[  6] =       250.963733500000;     BAS[ATNO][  6].d[  6] =         0.024660939801;
  BAS[ATNO][  6].a[  7] =        30.265930380000;     BAS[ATNO][  6].d[  7] =         0.263922716616;
  BAS[ATNO][  6].a[  8] =        12.668110760000;     BAS[ATNO][  6].d[  8] =         2.210348416293;
  BAS[ATNO][  6].a[  9] =        22.697940100000;     BAS[ATNO][  6].d[  9] =        -1.558646608409;
  BAS[ATNO][  6].a[ 10] =         3.867301740000;     BAS[ATNO][  6].d[ 10] =        -2.693460133308;
  BAS[ATNO][  6].a[ 11] =         1.801370667000;     BAS[ATNO][  6].d[ 11] =         2.697490976728;
  BAS[ATNO][  6].a[ 12] =         0.403086391400;     BAS[ATNO][  6].d[ 12] =        -2.688769791856;
  BAS[ATNO][  6].a[ 13] =         0.151705277500;     BAS[ATNO][  6].d[ 13] =         2.225910517245;

  // Basis function   8 L = s
  InitBFNGauss(BAS[ATNO][  7]);
  BAS[ATNO][  7].l  = 0;
  BAS[ATNO][  7].ng = 14;
  BAS[ATNO][  7].a[  0] =    120165.648799999995;     BAS[ATNO][  7].d[  0] =         0.001044628716;
  BAS[ATNO][  7].a[  1] =     18042.500169999999;     BAS[ATNO][  7].d[  1] =         0.005901487569;
  BAS[ATNO][  7].a[  2] =      4105.180039000000;     BAS[ATNO][  7].d[  2] =         0.025548436872;
  BAS[ATNO][  7].a[  3] =      1159.444725000000;     BAS[ATNO][  7].d[  3] =         0.081905837435;
  BAS[ATNO][  7].a[  4] =       378.138103500000;     BAS[ATNO][  7].d[  4] =         0.151789980101;
  BAS[ATNO][  7].a[  5] =       130.676100500000;     BAS[ATNO][  7].d[  5] =         0.106480816376;
  BAS[ATNO][  7].a[  6] =       250.963733500000;     BAS[ATNO][  7].d[  6] =         0.356125363936;
  BAS[ATNO][  7].a[  7] =        30.265930380000;     BAS[ATNO][  7].d[  7] =       -20.503463785800;
  BAS[ATNO][  7].a[  8] =        12.668110760000;     BAS[ATNO][  7].d[  8] =       -14.029874889208;
  BAS[ATNO][  7].a[  9] =        22.697940100000;     BAS[ATNO][  7].d[  9] =        31.265701007397;
  BAS[ATNO][  7].a[ 10] =         3.867301740000;     BAS[ATNO][  7].d[ 10] =         4.469657622327;
  BAS[ATNO][  7].a[ 11] =         1.801370667000;     BAS[ATNO][  7].d[ 11] =        -2.235190100308;
  BAS[ATNO][  7].a[ 12] =         0.403086391400;     BAS[ATNO][  7].d[ 12] =         0.607528765955;
  BAS[ATNO][  7].a[ 13] =         0.151705277500;     BAS[ATNO][  7].d[ 13] =        -0.246176353346;

  // Basis function   9 L = s
  InitBFNGauss(BAS[ATNO][  8]);
  BAS[ATNO][  8].l  = 0;
  BAS[ATNO][  8].ng = 14;
  BAS[ATNO][  8].a[  0] =    120165.648799999995;     BAS[ATNO][  8].d[  0] =        -0.010651883763;
  BAS[ATNO][  8].a[  1] =     18042.500169999999;     BAS[ATNO][  8].d[  1] =        -0.060176365682;
  BAS[ATNO][  8].a[  2] =      4105.180039000000;     BAS[ATNO][  8].d[  2] =        -0.260512635474;
  BAS[ATNO][  8].a[  3] =      1159.444725000000;     BAS[ATNO][  8].d[  3] =        -0.835178515151;
  BAS[ATNO][  8].a[  4] =       378.138103500000;     BAS[ATNO][  8].d[  4] =        -1.547774055740;
  BAS[ATNO][  8].a[  5] =       130.676100500000;     BAS[ATNO][  8].d[  5] =        -1.085764982058;
  BAS[ATNO][  8].a[  6] =       250.963733500000;     BAS[ATNO][  8].d[  6] =         3.720242507698;
  BAS[ATNO][  8].a[  7] =        30.265930380000;     BAS[ATNO][  8].d[  7] =        -5.483692326386;
  BAS[ATNO][  8].a[  8] =        12.668110760000;     BAS[ATNO][  8].d[  8] =        -2.834184453690;
  BAS[ATNO][  8].a[  9] =        22.697940100000;     BAS[ATNO][  8].d[  9] =         7.507433501943;
  BAS[ATNO][  8].a[ 10] =         3.867301740000;     BAS[ATNO][  8].d[ 10] =         0.770042793639;
  BAS[ATNO][  8].a[ 11] =         1.801370667000;     BAS[ATNO][  8].d[ 11] =        -0.372009092960;
  BAS[ATNO][  8].a[ 12] =         0.403086391400;     BAS[ATNO][  8].d[ 12] =         0.096352549610;
  BAS[ATNO][  8].a[ 13] =         0.151705277500;     BAS[ATNO][  8].d[ 13] =        -0.037988970841;

  // Basis function  10 L = p
  InitBFNGauss(BAS[ATNO][  9]);
  BAS[ATNO][  9].l  = 1;
  BAS[ATNO][  9].ng = 10;
  BAS[ATNO][  9].a[  0] =      1668.573662000000;     BAS[ATNO][  9].d[  0] =         0.010934984107;
  BAS[ATNO][  9].a[  1] =       394.138628000000;     BAS[ATNO][  9].d[  1] =         0.072975621279;
  BAS[ATNO][  9].a[  2] =       125.466448500000;     BAS[ATNO][  9].d[  2] =         0.276350080476;
  BAS[ATNO][  9].a[  3] =        45.704992730000;     BAS[ATNO][  9].d[  3] =         0.544641054258;
  BAS[ATNO][  9].a[  4] =        17.270133230000;     BAS[ATNO][  9].d[  4] =         0.369402269219;
  BAS[ATNO][  9].a[  5] =         9.269948777000;     BAS[ATNO][  9].d[  5] =        -0.188505361720;
  BAS[ATNO][  9].a[  6] =         3.836461772000;     BAS[ATNO][  9].d[  6] =         0.113171184854;
  BAS[ATNO][  9].a[  7] =         1.646716331000;     BAS[ATNO][  9].d[  7] =        -0.058710678132;
  BAS[ATNO][  9].a[  8] =         0.614796864900;     BAS[ATNO][  9].d[  8] =         0.021319304675;
  BAS[ATNO][  9].a[  9] =         0.183194674100;     BAS[ATNO][  9].d[  9] =        -0.005372145626;

  // Basis function  11 L = p
  InitBFNGauss(BAS[ATNO][ 10]);
  BAS[ATNO][ 10].l  = 1;
  BAS[ATNO][ 10].ng = 10;
  BAS[ATNO][ 10].a[  0] =      1668.573662000000;     BAS[ATNO][ 10].d[  0] =        -0.006549155546;
  BAS[ATNO][ 10].a[  1] =       394.138628000000;     BAS[ATNO][ 10].d[  1] =        -0.043706391353;
  BAS[ATNO][ 10].a[  2] =       125.466448500000;     BAS[ATNO][ 10].d[  2] =        -0.165510954974;
  BAS[ATNO][ 10].a[  3] =        45.704992730000;     BAS[ATNO][ 10].d[  3] =        -0.326195168291;
  BAS[ATNO][ 10].a[  4] =        17.270133230000;     BAS[ATNO][ 10].d[  4] =        -0.221241557964;
  BAS[ATNO][ 10].a[  5] =         9.269948777000;     BAS[ATNO][ 10].d[  5] =         1.225842568406;
  BAS[ATNO][ 10].a[  6] =         3.836461772000;     BAS[ATNO][ 10].d[  6] =        -0.031843467077;
  BAS[ATNO][ 10].a[  7] =         1.646716331000;     BAS[ATNO][ 10].d[  7] =         0.096105951573;
  BAS[ATNO][ 10].a[  8] =         0.614796864900;     BAS[ATNO][ 10].d[  8] =        -0.037140875401;
  BAS[ATNO][ 10].a[  9] =         0.183194674100;     BAS[ATNO][ 10].d[  9] =         0.009358745297;

  // Basis function  12 L = p
  InitBFNGauss(BAS[ATNO][ 11]);
  BAS[ATNO][ 11].l  = 1;
  BAS[ATNO][ 11].ng = 10;
  BAS[ATNO][ 11].a[  0] =      1668.573662000000;     BAS[ATNO][ 11].d[  0] =        -0.004182299417;
  BAS[ATNO][ 11].a[  1] =       394.138628000000;     BAS[ATNO][ 11].d[  1] =        -0.027910959483;
  BAS[ATNO][ 11].a[  2] =       125.466448500000;     BAS[ATNO][ 11].d[  2] =        -0.105695515355;
  BAS[ATNO][ 11].a[  3] =        45.704992730000;     BAS[ATNO][ 11].d[  3] =        -0.208308667087;
  BAS[ATNO][ 11].a[  4] =        17.270133230000;     BAS[ATNO][ 11].d[  4] =        -0.141285152337;
  BAS[ATNO][ 11].a[  5] =         9.269948777000;     BAS[ATNO][ 11].d[  5] =         1.487831229252;
  BAS[ATNO][ 11].a[  6] =         3.836461772000;     BAS[ATNO][ 11].d[  6] =        -1.349039570669;
  BAS[ATNO][ 11].a[  7] =         1.646716331000;     BAS[ATNO][ 11].d[  7] =        -0.293173877328;
  BAS[ATNO][ 11].a[  8] =         0.614796864900;     BAS[ATNO][ 11].d[  8] =         0.010001783152;
  BAS[ATNO][ 11].a[  9] =         0.183194674100;     BAS[ATNO][ 11].d[  9] =        -0.000426248762;

  // Basis function  13 L = p
  InitBFNGauss(BAS[ATNO][ 12]);
  BAS[ATNO][ 12].l  = 1;
  BAS[ATNO][ 12].ng = 10;
  BAS[ATNO][ 12].a[  0] =      1668.573662000000;     BAS[ATNO][ 12].d[  0] =         0.002980034884;
  BAS[ATNO][ 12].a[  1] =       394.138628000000;     BAS[ATNO][ 12].d[  1] =         0.019887536639;
  BAS[ATNO][ 12].a[  2] =       125.466448500000;     BAS[ATNO][ 12].d[  2] =         0.075311758289;
  BAS[ATNO][ 12].a[  3] =        45.704992730000;     BAS[ATNO][ 12].d[  3] =         0.148427224490;
  BAS[ATNO][ 12].a[  4] =        17.270133230000;     BAS[ATNO][ 12].d[  4] =         0.100670621710;
  BAS[ATNO][ 12].a[  5] =         9.269948777000;     BAS[ATNO][ 12].d[  5] =        -1.442531732466;
  BAS[ATNO][ 12].a[  6] =         3.836461772000;     BAS[ATNO][ 12].d[  6] =         2.566667189940;
  BAS[ATNO][ 12].a[  7] =         1.646716331000;     BAS[ATNO][ 12].d[  7] =        -1.641849647559;
  BAS[ATNO][ 12].a[  8] =         0.614796864900;     BAS[ATNO][ 12].d[  8] =        -0.287897317309;
  BAS[ATNO][ 12].a[  9] =         0.183194674100;     BAS[ATNO][ 12].d[  9] =         0.034800651046;

  // Basis function  14 L = p
  InitBFNGauss(BAS[ATNO][ 13]);
  BAS[ATNO][ 13].l  = 1;
  BAS[ATNO][ 13].ng = 10;
  BAS[ATNO][ 13].a[  0] =      1668.573662000000;     BAS[ATNO][ 13].d[  0] =        -0.001948152643;
  BAS[ATNO][ 13].a[  1] =       394.138628000000;     BAS[ATNO][ 13].d[  1] =        -0.013001175683;
  BAS[ATNO][ 13].a[  2] =       125.466448500000;     BAS[ATNO][ 13].d[  2] =        -0.049233920636;
  BAS[ATNO][ 13].a[  3] =        45.704992730000;     BAS[ATNO][ 13].d[  3] =        -0.097032048604;
  BAS[ATNO][ 13].a[  4] =        17.270133230000;     BAS[ATNO][ 13].d[  4] =        -0.065811893285;
  BAS[ATNO][ 13].a[  5] =         9.269948777000;     BAS[ATNO][ 13].d[  5] =         1.085887592524;
  BAS[ATNO][ 13].a[  6] =         3.836461772000;     BAS[ATNO][ 13].d[  6] =        -2.518707810448;
  BAS[ATNO][ 13].a[  7] =         1.646716331000;     BAS[ATNO][ 13].d[  7] =         3.053535067822;
  BAS[ATNO][ 13].a[  8] =         0.614796864900;     BAS[ATNO][ 13].d[  8] =        -1.944113063009;
  BAS[ATNO][ 13].a[  9] =         0.183194674100;     BAS[ATNO][ 13].d[  9] =         0.066168463556;

  // Basis function  15 L = p
  InitBFNGauss(BAS[ATNO][ 14]);
  BAS[ATNO][ 14].l  = 1;
  BAS[ATNO][ 14].ng = 10;
  BAS[ATNO][ 14].a[  0] =      1668.573662000000;     BAS[ATNO][ 14].d[  0] =         0.000696152493;
  BAS[ATNO][ 14].a[  1] =       394.138628000000;     BAS[ATNO][ 14].d[  1] =         0.004645837633;
  BAS[ATNO][ 14].a[  2] =       125.466448500000;     BAS[ATNO][ 14].d[  2] =         0.017593239785;
  BAS[ATNO][ 14].a[  3] =        45.704992730000;     BAS[ATNO][ 14].d[  3] =         0.034673413693;
  BAS[ATNO][ 14].a[  4] =        17.270133230000;     BAS[ATNO][ 14].d[  4] =         0.023517209361;
  BAS[ATNO][ 14].a[  5] =         9.269948777000;     BAS[ATNO][ 14].d[  5] =        -0.410438340271;
  BAS[ATNO][ 14].a[  6] =         3.836461772000;     BAS[ATNO][ 14].d[  6] =         1.057383880979;
  BAS[ATNO][ 14].a[  7] =         1.646716331000;     BAS[ATNO][ 14].d[  7] =        -1.595670108560;
  BAS[ATNO][ 14].a[  8] =         0.614796864900;     BAS[ATNO][ 14].d[  8] =         1.782712721400;
  BAS[ATNO][ 14].a[  9] =         0.183194674100;     BAS[ATNO][ 14].d[  9] =        -1.510328680752;

  // Basis function  16 L = d
  InitBFNGauss(BAS[ATNO][ 15]);
  BAS[ATNO][ 15].l  = 2;
  BAS[ATNO][ 15].ng = 6;
  BAS[ATNO][ 15].a[  0] =       115.558686000000;     BAS[ATNO][ 15].d[  0] =         0.028730061027;
  BAS[ATNO][ 15].a[  1] =        33.477985860000;     BAS[ATNO][ 15].d[  1] =         0.169415980961;
  BAS[ATNO][ 15].a[  2] =        11.834450210000;     BAS[ATNO][ 15].d[  2] =         0.464392899952;
  BAS[ATNO][ 15].a[  3] =         4.340825489000;     BAS[ATNO][ 15].d[  3] =         0.631108417360;
  BAS[ATNO][ 15].a[  4] =         1.507927316000;     BAS[ATNO][ 15].d[  4] =        -0.246295318377;
  BAS[ATNO][ 15].a[  5] =         0.443000000000;     BAS[ATNO][ 15].d[  5] =         0.071741628279;

  // Basis function  17 L = d
  InitBFNGauss(BAS[ATNO][ 16]);
  BAS[ATNO][ 16].l  = 2;
  BAS[ATNO][ 16].ng = 6;
  BAS[ATNO][ 16].a[  0] =       115.558686000000;     BAS[ATNO][ 16].d[  0] =        -0.009092361445;
  BAS[ATNO][ 16].a[  1] =        33.477985860000;     BAS[ATNO][ 16].d[  1] =        -0.053616013278;
  BAS[ATNO][ 16].a[  2] =        11.834450210000;     BAS[ATNO][ 16].d[  2] =        -0.146968991643;
  BAS[ATNO][ 16].a[  3] =         4.340825489000;     BAS[ATNO][ 16].d[  3] =        -0.199730374273;
  BAS[ATNO][ 16].a[  4] =         1.507927316000;     BAS[ATNO][ 16].d[  4] =         1.198084419606;
  BAS[ATNO][ 16].a[  5] =         0.443000000000;     BAS[ATNO][ 16].d[  5] =        -0.168438531636;

  // Basis function  18 L = d
  InitBFNGauss(BAS[ATNO][ 17]);
  BAS[ATNO][ 17].l  = 2;
  BAS[ATNO][ 17].ng = 6;
  BAS[ATNO][ 17].a[  0] =       115.558686000000;     BAS[ATNO][ 17].d[  0] =         0.002933460620;
  BAS[ATNO][ 17].a[  1] =        33.477985860000;     BAS[ATNO][ 17].d[  1] =         0.017298087467;
  BAS[ATNO][ 17].a[  2] =        11.834450210000;     BAS[ATNO][ 17].d[  2] =         0.047416477222;
  BAS[ATNO][ 17].a[  3] =         4.340825489000;     BAS[ATNO][ 17].d[  3] =         0.064438835950;
  BAS[ATNO][ 17].a[  4] =         1.507927316000;     BAS[ATNO][ 17].d[  4] =        -0.577983314277;
  BAS[ATNO][ 17].a[  5] =         0.443000000000;     BAS[ATNO][ 17].d[  5] =         1.195723066798;

-------
TIMINGS
-------

Total SCF time: 0 days 0 hours 0 min 2 sec 

Total time                  ....       2.028 sec
Sum of individual times     ....       1.862 sec  ( 91.8%)

Fock matrix formation       ....       1.123 sec  ( 55.3%)
  XC integration            ....       0.031 sec  (  2.8% of F)
    Basis function eval.    ....       0.005 sec  ( 15.2% of XC)
    Density eval.           ....       0.002 sec  (  5.9% of XC)
    XC-Functional eval.     ....       0.003 sec  (  9.6% of XC)
    XC-Potential eval.      ....       0.002 sec  (  5.8% of XC)
Diagonalization             ....       0.002 sec  (  0.1%)
Density matrix formation    ....       0.001 sec  (  0.0%)
Population analysis         ....       0.001 sec  (  0.0%)
Initial guess               ....       0.071 sec  (  3.5%)
Orbital Transformation      ....       0.000 sec  (  0.0%)
Orbital Orthonormalization  ....       0.000 sec  (  0.0%)
DIIS solution               ....       0.000 sec  (  0.0%)
SOSCF solution              ....       0.001 sec  (  0.0%)
Grid generation             ....       0.664 sec  ( 32.8%)

-------------------------   --------------------
FINAL SINGLE POINT ENERGY     -1269.420695051376
-------------------------   --------------------


                            ***************************************
                            *     ORCA property calculations      *
                            ***************************************

                                    ---------------------
                                    Active property flags
                                    ---------------------
   (+) Dipole Moment


------------------------------------------------------------------------------
                       ORCA ELECTRIC PROPERTIES CALCULATION
------------------------------------------------------------------------------

Dipole Moment Calculation                       ... on
Quadrupole Moment Calculation                   ... off
Polarizability Calculation                      ... off
GBWName                                         ... Kr_zora-def2-svp_.gbw
Electron density file                           ... Kr_zora-def2-svp_.scfp
The origin for moment calculation is the CENTER OF MASS  = ( 0.000000,  0.000000  0.000000)

-------------
DIPOLE MOMENT
-------------
                                X             Y             Z
Electronic contribution:     -0.00000       0.00000      -0.00000
Nuclear contribution   :      0.00000       0.00000       0.00000
                        -----------------------------------------
Total Dipole Moment    :     -0.00000       0.00000      -0.00000
                        -----------------------------------------
Magnitude (a.u.)       :      0.00000
Magnitude (Debye)      :      0.00000



--------------------
Rotational spectrum 
--------------------
 
Rotational constants in cm-1:     0.000000     0.000000     0.000000 
Rotational constants in MHz :     0.000000     0.000000     0.000000 

 Dipole components along the rotational axes: 
x,y,z [a.u.] :    -0.000000     0.000000    -0.000000 
x,y,z [Debye]:    -0.000000     0.000000    -0.000000 

 

Timings for individual modules:

Sum of individual times         ...        2.754 sec (=   0.046 min)
GTO integral calculation        ...        0.497 sec (=   0.008 min)  18.0 %
SCF iterations                  ...        2.257 sec (=   0.038 min)  82.0 %
                             ****ORCA TERMINATED NORMALLY****
TOTAL RUN TIME: 0 days 0 hours 0 minutes 3 seconds 68 msec
