
                                 *****************
                                 * O   R   C   A *
                                 *****************

           --- An Ab Initio, DFT and Semiempirical electronic structure package ---

                  #######################################################
                  #                        -***-                        #
                  #          Department of theory and spectroscopy      #
                  #               Directorship: Frank Neese             #
                  #        Max Planck Institute fuer Kohlenforschung    #
                  #                Kaiser Wilhelm Platz 1               #
                  #                 D-45470 Muelheim/Ruhr               #
                  #                      Germany                        #
                  #                                                     #
                  #                  All rights reserved                #
                  #                        -***-                        #
                  #######################################################


                         Program Version 4.2.1 -  RELEASE  -


 With contributions from (in alphabetic order):
   Daniel Aravena         : Magnetic Suceptibility
   Michael Atanasov       : Ab Initio Ligand Field Theory (pilot matlab implementation)
   Alexander A. Auer      : GIAO ZORA, VPT2
   Ute Becker             : Parallelization
   Giovanni Bistoni       : ED, misc. LED, open-shell LED, HFLD
   Martin Brehm           : Molecular dynamics
   Dmytro Bykov           : SCF Hessian
   Vijay G. Chilkuri      : MRCI spin determinant printing, contributions to CSF-ICE
   Dipayan Datta          : RHF DLPNO-CCSD density
   Achintya Kumar Dutta   : EOM-CC, STEOM-CC
   Dmitry Ganyushin       : Spin-Orbit,Spin-Spin,Magnetic field MRCI
   Miquel Garcia          : C-PCM Hessian, Gaussian charge scheme
   Yang Guo               : DLPNO-NEVPT2, CIM, IAO-localization
   Andreas Hansen         : Spin unrestricted coupled pair/coupled cluster methods
   Benjamin Helmich-Paris : CASSCF linear response (MC-RPA)
   Lee Huntington         : MR-EOM, pCC
   Robert Izsak           : Overlap fitted RIJCOSX, COSX-SCS-MP3, EOM
   Christian Kollmar      : KDIIS, OOCD, Brueckner-CCSD(T), CCSD density
   Simone Kossmann        : Meta GGA functionals, TD-DFT gradient, OOMP2, MP2 Hessian
   Martin Krupicka        : AUTO-CI
   Lucas Lang             : DCDCAS
   Dagmar Lenk            : GEPOL surface, SMD
   Dimitrios Liakos       : Extrapolation schemes; Compound Job, initial MDCI parallelization
   Dimitrios Manganas     : Further ROCIS development; embedding schemes
   Dimitrios Pantazis     : SARC Basis sets
   Taras Petrenko         : DFT Hessian,TD-DFT gradient, ASA, ECA, R-Raman, ABS, FL, XAS/XES, NRVS
   Peter Pinski           : DLPNO-MP2, DLPNO-MP2 Gradient
   Christoph Reimann      : Effective Core Potentials
   Marius Retegan         : Local ZFS, SOC
   Christoph Riplinger    : Optimizer, TS searches, QM/MM, DLPNO-CCSD(T), (RO)-DLPNO pert. Triples
   Tobias Risthaus        : Range-separated hybrids, TD-DFT gradient, RPA, STAB
   Michael Roemelt        : Original ROCIS implementation
   Masaaki Saitow         : Open-shell DLPNO-CCSD energy and density
   Barbara Sandhoefer     : DKH picture change effects
   Avijit Sen             : IP-ROCIS
   Kantharuban Sivalingam : CASSCF convergence, NEVPT2, FIC-MRCI
   Bernardo de Souza      : ESD, SOC TD-DFT
   Georgi Stoychev        : AutoAux, RI-MP2 NMR
   Willem Van den Heuvel  : Paramagnetic NMR
   Boris Wezisla          : Elementary symmetry handling
   Frank Wennmohs         : Technical directorship


 We gratefully acknowledge several colleagues who have allowed us to
 interface, adapt or use parts of their codes:
   Stefan Grimme, W. Hujo, H. Kruse,             : VdW corrections, initial TS optimization,
                  C. Bannwarth                     DFT functionals, gCP, sTDA/sTD-DF
   Ed Valeev, F. Pavosevic, A. Kumar             : LibInt (2-el integral package), F12 methods
   Garnet Chan, S. Sharma, J. Yang, R. Olivares  : DMRG
   Ulf Ekstrom                                   : XCFun DFT Library
   Mihaly Kallay                                 : mrcc  (arbitrary order and MRCC methods)
   Andreas Klamt, Michael Diedenhofen            : otool_cosmo (COSMO solvation model)
   Jiri Pittner, Ondrej Demel                    : Mk-CCSD
   Frank Weinhold                                : gennbo (NPA and NBO analysis)
   Christopher J. Cramer and Donald G. Truhlar   : smd solvation model
   Lars Goerigk                                  : TD-DFT with DH, B97 family of functionals
   V. Asgeirsson, H. Jonsson                     : NEB implementation
   FAccTs GmbH                                   : IRC, NEB, NEB-TS, Multilevel, MM, QM/MM, CI optimization
   S Lehtola, MJT Oliveira, MAL Marques          : LibXC Library


 Your calculation uses the libint2 library for the computation of 2-el integrals
 For citations please refer to: http://libint.valeyev.net

 Your ORCA version has been built with support for libXC version: 4.2.3
 For citations please refer to: https://tddft.org/programs/libxc/

 This ORCA versions uses:
   CBLAS   interface :  Fast vector & matrix operations
   LAPACKE interface :  Fast linear algebra routines
   SCALAPACK package :  Parallel linear algebra routines


----- Orbital basis set information -----
Your calculation utilizes the basis: ZORA-def2-QZVPP 
   Exponents from def2-QZVPP [F. Weigend and R. Ahlrichs, Phys. Chem. Chem. Phys. 7, 3297 (2005)],
   recontracted for ZORA by D. A. Pantazis.

================================================================================
                                        WARNINGS
                       Please study these warnings very carefully!
================================================================================


INFO   : the flag for use of LIBINT has been found!

================================================================================
                                       INPUT FILE
================================================================================
NAME = Kr_zora-def2-qzvpp_.inp
|  1> ! LDA zora-def2-qzvpp nori grid5 finalgrid6 verytightscf
|  2> %Pal NProcs 18 End
|  3> 
|  4> *xyz 34 1
|  5> Kr 0.0 0.0 0.0
|  6> **                         ****END OF INPUT****
================================================================================

                       ****************************
                       * Single Point Calculation *
                       ****************************

---------------------------------
CARTESIAN COORDINATES (ANGSTROEM)
---------------------------------
  Kr     0.000000    0.000000    0.000000

----------------------------
CARTESIAN COORDINATES (A.U.)
----------------------------
  NO LB      ZA    FRAG     MASS         X           Y           Z
   0 Kr   36.0000    0    83.800    0.000000    0.000000    0.000000

--------------------------------
INTERNAL COORDINATES (ANGSTROEM)
--------------------------------
 Kr     0   0   0     0.000000000000     0.00000000     0.00000000

---------------------------
INTERNAL COORDINATES (A.U.)
---------------------------
 Kr     0   0   0     0.000000000000     0.00000000     0.00000000

---------------------
BASIS SET INFORMATION
---------------------
There are 1 groups of distinct atoms

 Group   1 Type Kr  : 24s20p10d4f1g contracted to 14s11p4d4f1g pattern {111111111111111/101111111111/7111/1111/1}

Atom   0Kr   basis set group =>   1


           ************************************************************
           *        Program running with 18 parallel MPI-processes    *
           *              working on a common directory               *
           ************************************************************
------------------------------------------------------------------------------
                           ORCA GTO INTEGRAL CALCULATION
------------------------------------------------------------------------------

                         BASIS SET STATISTICS AND STARTUP INFO

 # of primitive gaussian shells          ...   59
 # of primitive gaussian functions       ...  171
 # of contracted shells                  ...   34
 # of contracted basis functions         ...  104
 Highest angular momentum                ...    4
 Maximum contraction depth               ...   11
 Integral package used                   ... LIBINT
 Integral threshhold            Thresh   ...  1.000e-12
 Primitive cut-off              TCut     ...  1.000e-14


------------------------------ INTEGRAL EVALUATION ----------------------------


 * One electron integrals 
 Pre-screening matrix                    ... done
 Shell pair data                         ... done (   0.000 sec)



           ************************************************************
           *        Program running with 18 parallel MPI-processes    *
           *              working on a common directory               *
           ************************************************************
-------------------------------------------------------------------------------
                                 ORCA SCF
-------------------------------------------------------------------------------

------------
SCF SETTINGS
------------
Hamiltonian:
 Density Functional     Method          .... DFT(GTOs)
 Exchange Functional    Exchange        .... Slater
   X-Alpha parameter    XAlpha          ....  0.666667
 Correlation Functional Correlation     .... VWN-5
 Gradients option       PostSCFGGA      .... off
   Density functional embedding theory  .... OFF


General Settings:
 Integral files         IntName         .... Kr_zora-def2-qzvpp_
 Hartree-Fock type      HFTyp           .... RHF
 Total Charge           Charge          ....   34
 Multiplicity           Mult            ....    1
 Number of Electrons    NEL             ....    2
 Basis Dimension        Dim             ....  104
 Nuclear Repulsion      ENuc            ....      0.0000000000 Eh

Convergence Acceleration:
 DIIS                   CNVDIIS         .... on
   Start iteration      DIISMaxIt       ....    12
   Startup error        DIISStart       ....  0.200000
   # of expansion vecs  DIISMaxEq       ....     5
   Bias factor          DIISBfac        ....   1.050
   Max. coefficient     DIISMaxC        ....  10.000
 Newton-Raphson         CNVNR           .... off
 SOSCF                  CNVSOSCF        .... on
   Start iteration      SOSCFMaxIt      ....   150
   Startup grad/error   SOSCFStart      ....  0.003300
 Level Shifting         CNVShift        .... on
   Level shift para.    LevelShift      ....    0.2500
   Turn off err/grad.   ShiftErr        ....    0.0010
 Zerner damping         CNVZerner       .... off
 Static damping         CNVDamp         .... on
   Fraction old density DampFac         ....    0.7000
   Max. Damping (<1)    DampMax         ....    0.9800
   Min. Damping (>=0)   DampMin         ....    0.0000
   Turn off err/grad.   DampErr         ....    0.1000
 Fernandez-Rico         CNVRico         .... off

SCF Procedure:
 Maximum # iterations   MaxIter         ....   125
 SCF integral mode      SCFMode         .... Direct
   Integral package                     .... LIBINT
 Reset frequency        DirectResetFreq ....    20
 Integral Threshold     Thresh          ....  1.000e-12 Eh
 Primitive CutOff       TCut            ....  1.000e-14 Eh

Convergence Tolerance:
 Convergence Check Mode ConvCheckMode   .... Total+1el-Energy
 Convergence forced     ConvForced      .... 0
 Energy Change          TolE            ....  1.000e-09 Eh
 1-El. energy change                    ....  1.000e-06 Eh
 Orbital Gradient       TolG            ....  2.000e-06
 Orbital Rotation angle TolX            ....  2.000e-06
 DIIS Error             TolErr          ....  1.000e-08


Diagonalization of the overlap matrix:
Smallest eigenvalue                        ... 2.527e-04
Time for diagonalization                   ...    0.002 sec
Threshold for overlap eigenvalues          ... 1.000e-08
Number of eigenvalues below threshold      ... 0
Time for construction of square roots      ...    0.002 sec
Total time needed                          ...    0.004 sec

-------------------
DFT GRID GENERATION
-------------------

General Integration Accuracy     IntAcc      ...  5.010
Radial Grid Type                 RadialGrid  ... Gauss-Chebyshev
Angular Grid (max. acc.)         AngularGrid ... Lebedev-434
Angular grid pruning method      GridPruning ... 3 (G Style)
Weight generation scheme         WeightScheme... Becke
Basis function cutoff            BFCut       ...    1.0000e-12
Integration weight cutoff        WCut        ...    1.0000e-14
Grids for H and He will be reduced by one unit

# of grid points (after initial pruning)     ...  16106 (   0.0 sec)
# of grid points (after weights+screening)   ...  16106 (   0.0 sec)
Grid point division into batches done        ...    0.2 sec
Reduced shell lists constructed in    0.2 sec

Total number of grid points                  ...    16106
Total number of batches                      ...      252
Average number of points per batch           ...       63
Average number of grid points per atom       ...    16106
Average number of shells per batch           ...     1.47 ( 4.31%)
Average number of basis functions per batch  ...     3.33 ( 3.21%)
Average number of large shells per batch     ...     0.93 (63.64%)
Average number of large basis fcns per batch ...     2.80 (84.00%)
Maximum spatial batch extension              ...  17.34, 17.34, 17.34 au
Average spatial batch extension              ...   0.86,  0.87,  0.87 au

Time for grid setup =    0.244 sec

------------------------------
INITIAL GUESS: MODEL POTENTIAL
------------------------------
Loading Hartree-Fock densities                     ... done
Calculating cut-offs                               ... done
Setting up the integral package                    ... done
Initializing the effective Hamiltonian             ... done
Starting the Coulomb interaction                   ... done (   0.0 sec)
Reading the grid                                   ... done
Mapping shells                                     ... done
Starting the XC term evaluation                    ... done (   0.0 sec)
  promolecular density results
     # of electrons  =     35.999999729
     EX              =    -88.624060943
     EC              =     -3.283969203
     EX+EC           =    -91.908030146
Transforming the Hamiltonian                       ... done (   0.0 sec)
Diagonalizing the Hamiltonian                      ... done (   0.0 sec)
Back transforming the eigenvectors                 ... done (   0.0 sec)
Now organizing SCF variables                       ... done
                      ------------------
                      INITIAL GUESS DONE (   0.3 sec)
                      ------------------
--------------
SCF ITERATIONS
--------------
ITER       Energy         Delta-E        Max-DP      RMS-DP      [F,P]     Damp
               ***  Starting incremental Fock matrix formation  ***
  0  -1270.4471494659   0.000000000000 0.00245597  0.00004183  6.9962965 0.7000
  1  -1270.4640793244  -0.016929858414 0.00171653  0.00002919  4.8665228 0.7000
  2  -1270.4758612490  -0.011781924632 0.00119931  0.00002036  3.3844864 0.7000
  3  -1270.4840752459  -0.008213996879 0.00083795  0.00001420  2.3537979 0.7000
  4  -1270.4898089159  -0.005733670023 0.00058549  0.00000990  1.6369938 0.7000
                      *** Initiating the SOSCF procedure ***
                      *** Re-Reading the Fockian *** 
                      *** Removing any level shift *** 
ITER      Energy       Delta-E        Grad      Rot      Max-DP    RMS-DP
  5  -1270.49381468  -0.0040057685  0.002590  0.002590  0.001364  0.000023
               *** Restarting incremental Fock matrix formation ***
  6  -1270.50313686  -0.0093221797  0.006009  0.000009  0.000025  0.000000
  7  -1270.50313711  -0.0000002478  0.000084  0.000000  0.000000  0.000000
                 **** Energy Check signals convergence ****
              ***Rediagonalizing the Fockian in SOSCF/NRSCF***

               *****************************************************
               *                     SUCCESS                       *
               *           SCF CONVERGED AFTER   8 CYCLES          *
               *****************************************************

Setting up the final grid:

General Integration Accuracy     IntAcc      ...  5.340
Radial Grid Type                 RadialGrid  ... Gauss-Chebyshev
Angular Grid (max. acc.)         AngularGrid ... Lebedev-590
Angular grid pruning method      GridPruning ... 3 (G Style)
Weight generation scheme         WeightScheme... Becke
Basis function cutoff            BFCut       ...    1.0000e-12
Integration weight cutoff        WCut        ...    1.0000e-14
Grids for H and He will be reduced by one unit

# of grid points (after initial pruning)     ...  24180 (   0.0 sec)
# of grid points (after weights+screening)   ...  24180 (   0.0 sec)
Grid point division into batches done        ...    0.4 sec
Reduced shell lists constructed in    0.4 sec

Total number of grid points                  ...    24180
Total number of batches                      ...      378
Average number of points per batch           ...       63
Average number of grid points per atom       ...    24180
Average number of shells per batch           ...     0.27 ( 0.80%)
Average number of basis functions per batch  ...     0.55 ( 0.52%)
Average number of large shells per batch     ...     0.14 (50.00%)
Average number of large basis fcns per batch ...     0.41 (75.00%)
Maximum spatial batch extension              ...  17.58, 17.58, 17.58 au
Average spatial batch extension              ...   0.77,  0.77,  0.77 au

Final grid set up in    0.5 sec
Final integration                            ... done (   0.0 sec)
Change in XC energy                          ...    -0.000063954
Integrated number of electrons               ...     1.999999920
Previous integrated no of electrons          ...     1.999997843

----------------
TOTAL SCF ENERGY
----------------

Total Energy       :        -1270.50320107 Eh          -34572.14972 eV

Components:
Nuclear Repulsion  :            0.00000000 Eh               0.00000 eV
Electronic Energy  :        -1270.50320107 Eh          -34572.14972 eV
One Electron Energy:        -1295.62440365 Eh          -35255.73239 eV
Two Electron Energy:           25.12120258 Eh             683.58268 eV

Virial components:
Potential Energy   :        -2540.16898578 Eh          -69121.51217 eV
Kinetic Energy     :         1269.66578472 Eh           34549.36246 eV
Virial Ratio       :            2.00065956


DFT components:
N(Alpha)           :        0.999999960233 electrons
N(Beta)            :        0.999999960233 electrons
N(Total)           :        1.999999920467 electrons
E(X)               :      -19.078670685318 Eh       
E(C)               :       -0.277957675205 Eh       
E(XC)              :      -19.356628360523 Eh       
DFET-embed. en.    :        0.000000000000 Eh       

---------------
SCF CONVERGENCE
---------------

  Last Energy change         ...   -5.2069e-11  Tolerance :   1.0000e-09
  Last MAX-Density change    ...    2.8170e-11  Tolerance :   1.0000e-08
  Last RMS-Density change    ...    4.9682e-13  Tolerance :   1.0000e-09
  Last Orbital Gradient      ...    3.7817e-09  Tolerance :   2.0000e-06
  Last Orbital Rotation      ...    1.7201e-12  Tolerance :   2.0000e-06

================================================================================
                                        WARNING
Number of found core electrons (2) does not match given number of chemical core electrons (18)
================================================================================
             **** THE GBW FILE WAS UPDATED (Kr_zora-def2-qzvpp_.gbw) ****
             **** DENSITY FILE WAS UPDATED (Kr_zora-def2-qzvpp_.scfp) ****
             **** ENERGY FILE WAS UPDATED (Kr_zora-def2-qzvpp_.en.tmp) ****
             **** THE GBW FILE WAS UPDATED (Kr_zora-def2-qzvpp_.gbw) ****
             **** DENSITY FILE WAS UPDATED (Kr_zora-def2-qzvpp_.scfp) ****
----------------
ORBITAL ENERGIES
----------------

  NO   OCC          E(Eh)            E(eV) 
   0   2.0000    -616.202258    -16767.7159 
   1   0.0000    -148.981638     -4053.9965 
   2   0.0000    -147.222916     -4006.1392 
   3   0.0000    -147.222916     -4006.1392 
   4   0.0000    -147.222916     -4006.1392 
   5   0.0000     -65.451390     -1781.0229 
   6   0.0000     -64.852756     -1764.7332 
   7   0.0000     -64.852756     -1764.7332 
   8   0.0000     -64.852756     -1764.7332 
   9   0.0000     -59.450622     -1617.7337 
  10   0.0000     -59.450622     -1617.7337 
  11   0.0000     -59.450622     -1617.7337 
  12   0.0000     -59.450622     -1617.7337 
  13   0.0000     -59.450622     -1617.7337 
  14   0.0000     -36.619056      -996.4552 
  15   0.0000     -36.363757      -989.5081 
  16   0.0000     -36.363757      -989.5081 
  17   0.0000     -36.363757      -989.5081 
  18   0.0000     -35.799960      -974.1664 
  19   0.0000     -35.799960      -974.1664 
  20   0.0000     -35.799960      -974.1664 
  21   0.0000     -35.799960      -974.1664 
  22   0.0000     -35.799960      -974.1664 
  23   0.0000     -35.799960      -974.1664 
  24   0.0000     -35.799960      -974.1664 
  25   0.0000     -28.950166      -787.7741 
  26   0.0000     -28.950166      -787.7741 
  27   0.0000     -28.950166      -787.7741 
  28   0.0000     -28.950166      -787.7741 
  29   0.0000     -28.950166      -787.7741 
  30   0.0000     -23.230473      -632.1333 
  31   0.0000     -23.230473      -632.1333 
  32   0.0000     -23.230473      -632.1333 
  33   0.0000     -23.196284      -631.2030 
  34   0.0000     -20.752999      -564.7178 
  35   0.0000     -20.752999      -564.7178 
  36   0.0000     -20.752999      -564.7178 
  37   0.0000     -20.752999      -564.7178 
  38   0.0000     -20.752999      -564.7178 
  39   0.0000     -20.752999      -564.7178 
  40   0.0000     -20.752999      -564.7178 
  41   0.0000     -17.077318      -464.6975 
  42   0.0000     -17.077318      -464.6975 
  43   0.0000     -17.077318      -464.6975 
  44   0.0000     -17.077318      -464.6975 
  45   0.0000     -17.077318      -464.6975 
  46   0.0000     -16.015692      -435.8091 
  47   0.0000     -16.015692      -435.8091 
  48   0.0000     -16.015692      -435.8091 
  49   0.0000     -15.648670      -425.8220 
  50   0.0000     -14.891944      -405.2304 
  51   0.0000     -14.891944      -405.2304 
  52   0.0000     -14.891944      -405.2304 
  53   0.0000     -14.891944      -405.2304 
  54   0.0000     -14.891944      -405.2304 
  55   0.0000     -14.891944      -405.2304 
  56   0.0000     -14.891944      -405.2304 
  57   0.0000     -14.891944      -405.2304 
  58   0.0000     -14.891944      -405.2304 
  59   0.0000     -14.522485      -395.1769 
  60   0.0000     -14.522485      -395.1769 
  61   0.0000     -14.522485      -395.1769 
  62   0.0000     -14.522485      -395.1769 
  63   0.0000     -14.522485      -395.1769 
  64   0.0000     -14.522485      -395.1769 
  65   0.0000     -14.522485      -395.1769 
  66   0.0000     -11.326286      -308.2039 
  67   0.0000     -11.299298      -307.4695 
  68   0.0000     -11.299298      -307.4695 
  69   0.0000     -11.299298      -307.4695 
  70   0.0000     -11.211675      -305.0852 
  71   0.0000     -11.211675      -305.0852 
  72   0.0000     -11.211675      -305.0852 
  73   0.0000     -11.211675      -305.0852 
  74   0.0000     -11.211675      -305.0852 
  75   0.0000     -11.211675      -305.0852 
  76   0.0000     -11.211675      -305.0852 
  77   0.0000     -10.794430      -293.7314 
  78   0.0000     -10.794430      -293.7314 
  79   0.0000     -10.794430      -293.7314 
  80   0.0000     -10.794430      -293.7314 
  81   0.0000     -10.794430      -293.7314 
  82   0.0000      -8.610522      -234.3042 
  83   0.0000      -8.010359      -217.9730 
  84   0.0000      -8.010359      -217.9730 
  85   0.0000      -8.010359      -217.9730 
  86   0.0000      -6.545317      -178.1071 
  87   0.0000      -6.545317      -178.1071 
  88   0.0000      -6.545317      -178.1071 
  89   0.0000      35.653693       970.1863 
  90   0.0000      89.099389      2424.5176 
  91   0.0000      89.099389      2424.5176 
  92   0.0000      89.099389      2424.5176 
  93   0.0000     221.931142      6039.0534 
  94   0.0000     460.525849     12531.5454 
  95   0.0000     460.525849     12531.5454 
  96   0.0000     460.525849     12531.5454 
  97   0.0000     757.882396     20623.0284 
  98   0.0000     923.643318     25133.6125 
  99   0.0000     923.643318     25133.6125 
 100   0.0000     923.643318     25133.6125 
 101   0.0000    2272.459393     61836.7638 
 102   0.0000    7368.262553    200500.6173 
 103   0.0000   38661.925784   1052044.4855 

                    ********************************
                    * MULLIKEN POPULATION ANALYSIS *
                    ********************************

-----------------------
MULLIKEN ATOMIC CHARGES
-----------------------
   0 Kr:   34.000000
Sum of atomic charges:   34.0000000

--------------------------------
MULLIKEN REDUCED ORBITAL CHARGES
--------------------------------
  0 Krs       :     2.000000  s :     2.000000
      pz      :     0.000000  p :     0.000000
      px      :     0.000000
      py      :     0.000000
      dz2     :     0.000000  d :     0.000000
      dxz     :     0.000000
      dyz     :     0.000000
      dx2y2   :     0.000000
      dxy     :     0.000000
      f0      :     0.000000  f :     0.000000
      f+1     :     0.000000
      f-1     :     0.000000
      f+2     :     0.000000
      f-2     :     0.000000
      f+3     :     0.000000
      f-3     :     0.000000
      g0      :     0.000000  g :     0.000000
      g+1     :     0.000000
      g-1     :     0.000000
      g+2     :     0.000000
      g-2     :     0.000000
      g+3     :     0.000000
      g-3     :     0.000000
      g+4     :     0.000000
      g-4     :     0.000000


                     *******************************
                     * LOEWDIN POPULATION ANALYSIS *
                     *******************************

----------------------
LOEWDIN ATOMIC CHARGES
----------------------
   0 Kr:   34.000000

-------------------------------
LOEWDIN REDUCED ORBITAL CHARGES
-------------------------------
  0 Krs       :     2.000000  s :     2.000000
      pz      :     0.000000  p :     0.000000
      px      :     0.000000
      py      :     0.000000
      dz2     :     0.000000  d :     0.000000
      dxz     :     0.000000
      dyz     :     0.000000
      dx2y2   :     0.000000
      dxy     :     0.000000
      f0      :     0.000000  f :     0.000000
      f+1     :     0.000000
      f-1     :     0.000000
      f+2     :     0.000000
      f-2     :     0.000000
      f+3     :     0.000000
      f-3     :     0.000000
      g0      :     0.000000  g :     0.000000
      g+1     :     0.000000
      g-1     :     0.000000
      g+2     :     0.000000
      g-2     :     0.000000
      g+3     :     0.000000
      g-3     :     0.000000
      g+4     :     0.000000
      g-4     :     0.000000


                      *****************************
                      * MAYER POPULATION ANALYSIS *
                      *****************************

  NA   - Mulliken gross atomic population
  ZA   - Total nuclear charge
  QA   - Mulliken gross atomic charge
  VA   - Mayer's total valence
  BVA  - Mayer's bonded valence
  FA   - Mayer's free valence

  ATOM       NA         ZA         QA         VA         BVA        FA
  0 Kr     2.0000    36.0000    34.0000    -0.0000     0.0000    -0.0000

  Mayer bond orders larger than 0.100000


--------------------------
ATOM BASIS FOR ELEMENT Kr
--------------------------
 NewGTO Kr
 S 24
    1   11713823.007999999449         0.000033038857
    2    1755253.397899999982         0.000118269618
    3     399717.419240000017         0.000385147268
    4     113285.792600000001         0.001200718416
    5      36977.205292999999         0.003592441108
    6      13355.036580000000         0.010239464745
    7       5210.901298800000         0.027216886122
    8       2162.113702000000         0.065729579771
    9        943.292910230000         0.132464083190
   10        429.207243310000         0.231727873279
   11        202.407208400000         0.232501498185
   12       3260.498552100000         0.019834888448
   13       1011.106971600000         0.058974821702
   14        392.443592730000         0.108280576088
   15        173.217021320000         0.093217992174
   16         96.619988467000         0.150072130244
   17         38.158284867000         0.012947399753
   18         18.959517570000        -0.002538022314
   19          9.250599619900         0.000824773450
   20          4.348651762100        -0.000292186996
   21          2.038032420900         0.000102919132
   22          0.691101525400        -0.000039240040
   23          0.335060651400         0.000021731362
   24          0.140744411200        -0.000005330131
 S 24
    1   11713823.007999999449        -0.000011532070
    2    1755253.397899999982        -0.000041281497
    3     399717.419240000017        -0.000134433982
    4     113285.792600000001        -0.000419105552
    5      36977.205292999999        -0.001253925978
    6      13355.036580000000        -0.003574040730
    7       5210.901298800000        -0.009499935980
    8       2162.113702000000        -0.022942624554
    9        943.292910230000        -0.046236013345
   10        429.207243310000        -0.080883608472
   11        202.407208400000        -0.081153638888
   12       3260.498552100000        -0.008109060269
   13       1011.106971600000        -0.032707532755
   14        392.443592730000        -0.094361305701
   15        173.217021320000        -0.166335568695
   16         96.619988467000        -0.037064292491
   17         38.158284867000         0.574979005333
   18         18.959517570000         0.530102627233
   19          9.250599619900         0.061691284876
   20          4.348651762100        -0.002134217838
   21          2.038032420900         0.000455296255
   22          0.691101525400        -0.000120870462
   23          0.335060651400         0.000060374963
   24          0.140744411200        -0.000013968846
 S 24
    1   11713823.007999999449        -0.000006223846
    2    1755253.397899999982        -0.000022279582
    3     399717.419240000017        -0.000072553883
    4     113285.792600000001        -0.000226190838
    5      36977.205292999999        -0.000676742567
    6      13355.036580000000        -0.001928906126
    7       5210.901298800000        -0.005127105730
    8       2162.113702000000        -0.012382111002
    9        943.292910230000        -0.024953529105
   10        429.207243310000        -0.043652800751
   11        202.407208400000        -0.043798535891
   12       3260.498552100000        -0.004471898694
   13       1011.106971600000        -0.019039360752
   14        392.443592730000        -0.057392735352
   15        173.217021320000        -0.114406160961
   16         96.619988467000        -0.014907038243
   17         38.158284867000         0.608200177650
   18         18.959517570000         0.832950254621
   19          9.250599619900        -1.025486086159
   20          4.348651762100        -0.695010630764
   21          2.038032420900         0.063935221532
   22          0.691101525400        -0.025775634728
   23          0.335060651400         0.014244642474
   24          0.140744411200        -0.003473076213
 S 24
    1   11713823.007999999449         0.000004043597
    2    1755253.397899999982         0.000014474916
    3     399717.419240000017         0.000047137842
    4     113285.792600000001         0.000146954891
    5      36977.205292999999         0.000439675768
    6      13355.036580000000         0.001253199256
    7       5210.901298800000         0.003331051211
    8       2162.113702000000         0.008044586560
    9        943.292910230000         0.016212164859
   10        429.207243310000         0.028360974489
   11        202.407208400000         0.028455657774
   12       3260.498552100000         0.002803043526
   13       1011.106971600000         0.013219207987
   14        392.443592730000         0.035471621006
   15        173.217021320000         0.093506016731
   16         96.619988467000        -0.017545805456
   17         38.158284867000        -0.431098649179
   18         18.959517570000        -1.016954440760
   19          9.250599619900         2.257238124443
   20          4.348651762100         0.157981536840
   21          2.038032420900        -1.718732138176
   22          0.691101525400         0.180876206061
   23          0.335060651400        -0.098800580828
   24          0.140744411200         0.023625211639
 S 24
    1   11713823.007999999449         0.000002951968
    2    1755253.397899999982         0.000010567198
    3     399717.419240000017         0.000034412282
    4     113285.792600000001         0.000107282237
    5      36977.205292999999         0.000320978768
    6      13355.036580000000         0.000914879514
    7       5210.901298800000         0.002431784490
    8       2162.113702000000         0.005872831004
    9        943.292910230000         0.011835450300
   10        429.207243310000         0.020704508432
   11        202.407208400000         0.020773630558
   12       3260.498552100000         0.001770939251
   13       1011.106971600000         0.010974829040
   14        392.443592730000         0.018731164557
   15        173.217021320000         0.100461521873
   16         96.619988467000        -0.074535983630
   17         38.158284867000        -0.185857142054
   18         18.959517570000        -1.345915978702
   19          9.250599619900         3.550096772431
   20          4.348651762100        -2.426709008953
   21          2.038032420900        -1.041040254955
   22          0.691101525400         2.468946261899
   23          0.335060651400        -0.878900644357
   24          0.140744411200         0.184532994020
 S 24
    1   11713823.007999999449         0.000002590204
    2    1755253.397899999982         0.000009272185
    3     399717.419240000017         0.000030195047
    4     113285.792600000001         0.000094134769
    5      36977.205292999999         0.000281642732
    6      13355.036580000000         0.000802760779
    7       5210.901298800000         0.002133768635
    8       2162.113702000000         0.005153113957
    9        943.292910230000         0.010385012626
   10        429.207243310000         0.018167165256
   11        202.407208400000         0.018227816447
   12       3260.498552100000         0.001278931547
   13       1011.106971600000         0.010882383128
   14        392.443592730000         0.009074753871
   15        173.217021320000         0.119187776251
   16         96.619988467000        -0.127475683503
   17         38.158284867000        -0.006766294853
   18         18.959517570000        -1.767364198047
   19          9.250599619900         4.984363813311
   20          4.348651762100        -5.972150803127
   21          2.038032420900         3.021161243255
   22          0.691101525400         1.464994780892
   23          0.335060651400        -2.632878414834
   24          0.140744411200         0.483081210498
 S 24
    1   11713823.007999999449         0.000002766846
    2    1755253.397899999982         0.000009904512
    3     399717.419240000017         0.000032254233
    4     113285.792600000001         0.000100554398
    5      36977.205292999999         0.000300849682
    6      13355.036580000000         0.000857505975
    7       5210.901298800000         0.002279283445
    8       2162.113702000000         0.005504536497
    9        943.292910230000         0.011093230521
   10        429.207243310000         0.019406096011
   11        202.407208400000         0.019470883380
   12       3260.498552100000         0.001271899333
   13       1011.106971600000         0.012073135482
   14        392.443592730000         0.007179252354
   15        173.217021320000         0.138729710830
   16         96.619988467000        -0.159100197776
   17         38.158284867000         0.050259506160
   18         18.959517570000        -2.178051241398
   19          9.250599619900         6.502834028323
   20          4.348651762100        -9.484920507229
   21          2.038032420900         8.060245905545
   22          0.691101525400        -5.614172418341
   23          0.335060651400         2.605512262176
   24          0.140744411200         0.366270509847
 S 24
    1   11713823.007999999449         0.000001551589
    2    1755253.397899999982         0.000005554244
    3     399717.419240000017         0.000018087502
    4     113285.792600000001         0.000056388810
    5      36977.205292999999         0.000168710230
    6      13355.036580000000         0.000480871475
    7       5210.901298800000         0.001278174641
    8       2162.113702000000         0.003086829319
    9        943.292910230000         0.006220852425
   10        429.207243310000         0.010882534101
   11        202.407208400000         0.010918865507
   12       3260.498552100000         0.000750968574
   13       1011.106971600000         0.006623410582
   14        392.443592730000         0.005072371300
   15        173.217021320000         0.074304767593
   16         96.619988467000        -0.081938357662
   17         38.158284867000         0.005630318654
   18         18.959517570000        -1.217779234846
   19          9.250599619900         3.865401626994
   20          4.348651762100        -6.153168973604
   21          2.038032420900         6.156526700732
   22          0.691101525400        -7.202403588518
   23          0.335060651400         7.468114773330
   24          0.140744411200        -3.375206527971
 S 24
    1   11713823.007999999449         0.000008225370
    2    1755253.397899999982         0.000029444463
    3     399717.419240000017         0.000095886455
    4     113285.792600000001         0.000298931453
    5      36977.205292999999         0.000894375921
    6      13355.036580000000         0.002549222224
    7       5210.901298800000         0.006775929474
    8       2162.113702000000         0.016364068794
    9        943.292910230000         0.032978323878
   10        429.207243310000         0.057691086312
   11        202.407208400000         0.057883688353
   12       3260.498552100000         0.015125089108
   13       1011.106971600000        -0.011617035689
   14        392.443592730000         0.339885585611
   15        173.217021320000        -0.815264081668
   16         96.619988467000         2.188665112208
   17         38.158284867000        -8.963793118783
   18         18.959517570000        16.327956543319
   19          9.250599619900       -16.264672979180
   20          4.348651762100        11.211102389672
   21          2.038032420900        -5.631834400567
   22          0.691101525400         2.709290427306
   23          0.335060651400        -1.614581534811
   24          0.140744411200         0.415908631727
 S 24
    1   11713823.007999999449        -0.000020153700
    2    1755253.397899999982        -0.000072144457
    3     399717.419240000017        -0.000234939802
    4     113285.792600000001        -0.000732438136
    5      36977.205292999999        -0.002191388782
    6      13355.036580000000        -0.006246072658
    7       5210.901298800000        -0.016602298310
    8       2162.113702000000        -0.040095038290
    9        943.292910230000        -0.080803079922
   10        429.207243310000        -0.141353983765
   11        202.407208400000        -0.141825894894
   12       3260.498552100000         0.021085864250
   13       1011.106971600000        -0.237743096950
   14        392.443592730000         0.823583980311
   15        173.217021320000        -5.500326358130
   16         96.619988467000        11.070436195095
   17         38.158284867000       -13.837106179872
   18         18.959517570000        14.100383837292
   19          9.250599619900        -9.728760764414
   20          4.348651762100         5.459595187217
   21          2.038032420900        -2.490763104686
   22          0.691101525400         1.128592816249
   23          0.335060651400        -0.657425565495
   24          0.140744411200         0.166133111878
 S 24
    1   11713823.007999999449        -0.000017020685
    2    1755253.397899999982        -0.000060929165
    3     399717.419240000017        -0.000198416989
    4     113285.792600000001        -0.000618576197
    5      36977.205292999999        -0.001850724141
    6      13355.036580000000        -0.005275082883
    7       5210.901298800000        -0.014021370616
    8       2162.113702000000        -0.033862022064
    9        943.292910230000        -0.068241752394
   10        429.207243310000        -0.119379651980
   11        202.407208400000        -0.119778201670
   12       3260.498552100000        -0.128870179660
   13       1011.106971600000         0.410524382395
   14        392.443592730000        -4.418611175986
   15        173.217021320000        13.565093677159
   16         96.619988467000       -14.303604023343
   17         38.158284867000         9.953010575195
   18         18.959517570000        -8.256592148527
   19          9.250599619900         5.222627174459
   20          4.348651762100        -2.851070838403
   21          2.038032420900         1.293293396801
   22          0.691101525400        -0.584845380095
   23          0.335060651400         0.340144763588
   24          0.140744411200        -0.085786301084
 S 24
    1   11713823.007999999449        -0.000085226929
    2    1755253.397899999982        -0.000305087927
    3     399717.419240000017        -0.000993524659
    4     113285.792600000001        -0.003097369385
    5      36977.205292999999        -0.009267049590
    6      13355.036580000000        -0.026413690498
    7       5210.901298800000        -0.070208592367
    8       2162.113702000000        -0.169555813696
    9        943.292910230000        -0.341703925218
   10        429.207243310000        -0.597764480566
   11        202.407208400000        -0.599760120900
   12       3260.498552100000         0.296199937603
   13       1011.106971600000        -2.960949256049
   14        392.443592730000         8.969630780367
   15        173.217021320000       -11.556400106845
   16         96.619988467000         9.702936534577
   17         38.158284867000        -5.624549720378
   18         18.959517570000         4.503263909335
   19          9.250599619900        -2.837371599449
   20          4.348651762100         1.556015876065
   21          2.038032420900        -0.708837855829
   22          0.691101525400         0.321401454827
   23          0.335060651400        -0.186991344589
   24          0.140744411200         0.047153479615
 S 24
    1   11713823.007999999449        -0.000046349563
    2    1755253.397899999982        -0.000165918121
    3     399717.419240000017        -0.000540315530
    4     113285.792600000001        -0.001684464259
    5      36977.205292999999        -0.005039765001
    6      13355.036580000000        -0.014364743776
    7       5210.901298800000        -0.038182034437
    8       2162.113702000000        -0.092210735172
    9        943.292910230000        -0.185831257972
   10        429.207243310000        -0.325086477493
   11        202.407208400000        -0.326171780664
   12       3260.498552100000         2.356773301426
   13       1011.106971600000        -4.258794832910
   14        392.443592730000         6.120860041404
   15        173.217021320000        -6.358594256341
   16         96.619988467000         5.028723235686
   17         38.158284867000        -2.874625676169
   18         18.959517570000         2.321244062360
   19          9.250599619900        -1.475968070575
   20          4.348651762100         0.814747926870
   21          2.038032420900        -0.372517492892
   22          0.691101525400         0.169264755561
   23          0.335060651400        -0.098519244171
   24          0.140744411200         0.024846147536
 S 24
    1   11713823.007999999449        -0.002822122621
    2    1755253.397899999982        -0.010102388391
    3     399717.419240000017        -0.032898620641
    4     113285.792600000001        -0.102563312751
    5      36977.205292999999        -0.306860173035
    6      13355.036580000000        -0.874637559512
    7       5210.901298800000        -2.324819846302
    8       2162.113702000000        -5.614508245290
    9        943.292910230000       -11.314855349188
   10        429.207243310000       -19.793798465044
   11        202.407208400000       -19.859880180941
   12       3260.498552100000         7.673036050280
   13       1011.106971600000        11.547186012800
   14        392.443592730000        25.976541106901
   15        173.217021320000        15.067471110128
   16         96.619988467000        -0.487684176053
   17         38.158284867000        -0.458243841683
   18         18.959517570000         0.475710574868
   19          9.250599619900        -0.331103775701
   20          4.348651762100         0.190126671349
   21          2.038032420900        -0.088440084735
   22          0.691101525400         0.040566332112
   23          0.335060651400        -0.023666163057
   24          0.140744411200         0.005975559062
 P 20
    1      28609.335767000000         0.000169880115
    2       6773.123636400000         0.000805119039
    3       2199.801107900000         0.003723303621
    4        841.502015900000         0.014569282215
    5        356.921102880000         0.048075979621
    6        162.711743510000         0.127666380892
    7         78.004264994000         0.255097950377
    8         38.682579997000         0.344418984244
    9         19.589158685000         0.254658999096
   10          9.799086341700         0.070826196152
   11        261.377868690000         0.018861645447
   12        100.099321460000         0.070339360286
   13         44.012139363000         0.047570861274
   14         10.854010739000        -0.117944679769
   15          5.435193018200         0.043958887484
   16          2.706280554200        -0.032091224917
   17          1.319563340800         0.017603125622
   18          0.580044559700        -0.007865550842
   19          0.243299762600         0.003196144477
   20          0.096823725100        -0.000897722762
 P 20
    1      28609.335767000000         0.000090535134
    2       6773.123636400000         0.000429076472
    3       2199.801107900000         0.001984280464
    4        841.502015900000         0.007764486868
    5        356.921102880000         0.025621393486
    6        162.711743510000         0.068037939230
    7         78.004264994000         0.135950739138
    8         38.682579997000         0.183553083872
    9         19.589158685000         0.135716806442
   10          9.799086341700         0.037745790207
   11        261.377868690000         0.018414098595
   12        100.099321460000         0.103233741306
   13         44.012139363000         0.048497285639
   14         10.854010739000        -0.974289031209
   15          5.435193018200        -0.196248539851
   16          2.706280554200        -0.121355806564
   17          1.319563340800         0.063334195438
   18          0.580044559700        -0.028599839992
   19          0.243299762600         0.011607499791
   20          0.096823725100        -0.003241473106
 P 20
    1      28609.335767000000         0.000059375687
    2       6773.123636400000         0.000281401364
    3       2199.801107900000         0.001301351311
    4        841.502015900000         0.005092185982
    5        356.921102880000         0.016803286936
    6        162.711743510000         0.044621344113
    7         78.004264994000         0.089160618064
    8         38.682579997000         0.120379679502
    9         19.589158685000         0.089007197907
   10          9.799086341700         0.024754834034
   11        261.377868690000         0.012357271352
   12        100.099321460000         0.084950062895
   13         44.012139363000         0.022718899720
   14         10.854010739000        -1.292425202517
   15          5.435193018200         0.417107019537
   16          2.706280554200         0.958189883854
   17          1.319563340800         0.059105360803
   18          0.580044559700        -0.010353501130
   19          0.243299762600         0.004108436951
   20          0.096823725100        -0.001145545028
 P 20
    1      28609.335767000000        -0.000045597862
    2       6773.123636400000        -0.000216103613
    3       2199.801107900000        -0.000999379379
    4        841.502015900000        -0.003910570209
    5        356.921102880000        -0.012904169943
    6        162.711743510000        -0.034267188898
    7         78.004264994000        -0.068471351595
    8         38.682579997000        -0.092446189126
    9         19.589158685000        -0.068353531803
   10          9.799086341700        -0.019010601111
   11        261.377868690000        -0.007217760184
   12        100.099321460000        -0.062618765554
   13         44.012139363000        -0.008109250534
   14         10.854010739000         1.349753991661
   15          5.435193018200        -1.194708989922
   16          2.706280554200        -1.120933187872
   17          1.319563340800         1.804656422672
   18          0.580044559700        -0.072954263442
   19          0.243299762600         0.036295626886
   20          0.096823725100        -0.009738896669
 P 20
    1      28609.335767000000        -0.000039612443
    2       6773.123636400000        -0.000187736697
    3       2199.801107900000        -0.000868195495
    4        841.502015900000        -0.003397247841
    5        356.921102880000        -0.011210299559
    6        162.711743510000        -0.029769094354
    7         78.004264994000        -0.059483435664
    8         38.682579997000        -0.080311207755
    9         19.589158685000        -0.059381081528
   10          9.799086341700        -0.016515167903
   11        261.377868690000        -0.002647611613
   12        100.099321460000        -0.041907367491
   13         44.012139363000         0.001124902938
   14         10.854010739000         1.349906264744
   15          5.435193018200        -1.962293111967
   16          2.706280554200         0.172162169168
   17          1.319563340800         2.273231049055
   18          0.580044559700        -2.311347534609
   19          0.243299762600         0.352846714921
   20          0.096823725100        -0.081163839059
 P 20
    1      28609.335767000000        -0.000039067853
    2       6773.123636400000        -0.000185155702
    3       2199.801107900000        -0.000856259586
    4        841.502015900000        -0.003350542645
    5        356.921102880000        -0.011056180910
    6        162.711743510000        -0.029359830303
    7         78.004264994000        -0.058665660304
    8         38.682579997000        -0.079207093205
    9         19.589158685000        -0.058564713327
   10          9.799086341700        -0.016288118183
   11        261.377868690000         0.000792221798
   12        100.099321460000        -0.027876315206
   13         44.012139363000         0.007057794078
   14         10.854010739000         1.434185981894
   15          5.435193018200        -2.808070759110
   16          2.706280554200         2.352923401244
   17          1.319563340800        -0.128603421371
   18          0.580044559700        -2.044458612029
   19          0.243299762600         2.210502448096
   20          0.096823725100        -0.354786312391
 P 20
    1      28609.335767000000        -0.000059789103
    2       6773.123636400000        -0.000283360680
    3       2199.801107900000        -0.001310412245
    4        841.502015900000        -0.005127641405
    5        356.921102880000        -0.016920283376
    6        162.711743510000        -0.044932029662
    7         78.004264994000        -0.089781417731
    8         38.682579997000        -0.121217848490
    9         19.589158685000        -0.089626929354
   10          9.799086341700        -0.024927194803
   11        261.377868690000         0.002909289498
   12        100.099321460000        -0.035959452052
   13         44.012139363000         0.013278060684
   14         10.854010739000         2.348573025032
   15          5.435193018200        -5.327599265870
   16          2.706280554200         6.501733883236
   17          1.319563340800        -5.022745271489
   18          0.580044559700         2.458097950900
   19          0.243299762600        -0.187919323005
   20          0.096823725100        -0.870899013173
 P 20
    1      28609.335767000000        -0.000047913179
    2       6773.123636400000        -0.000227076680
    3       2199.801107900000        -0.001050124743
    4        841.502015900000        -0.004109136749
    5        356.921102880000        -0.013559403388
    6        162.711743510000        -0.036007169719
    7         78.004264994000        -0.071948112964
    8         38.682579997000        -0.097140317860
    9         19.589158685000        -0.071824310650
   10          9.799086341700        -0.019975900057
   11        261.377868690000         0.002005088457
   12        100.099321460000        -0.030420345461
   13         44.012139363000         0.010043253586
   14         10.854010739000         1.963217524966
   15          5.435193018200        -4.655097140499
   16          2.706280554200         6.195582461637
   17          1.319563340800        -5.744376070780
   18          0.580044559700         4.543360116090
   19          0.243299762600        -3.480536005482
   20          0.096823725100         1.881990020957
 P 20
    1      28609.335767000000        -0.000127383025
    2       6773.123636400000        -0.000603711029
    3       2199.801107900000        -0.002791884617
    4        841.502015900000        -0.010924640868
    5        356.921102880000        -0.036049326520
    6        162.711743510000        -0.095729449233
    7         78.004264994000        -0.191282827314
    8         38.682579997000        -0.258259374446
    9         19.589158685000        -0.190953683775
   10          9.799086341700        -0.053108364955
   11        261.377868690000         0.173554642187
   12        100.099321460000         1.926702803755
   13         44.012139363000        -2.183639832803
   14         10.854010739000         3.348001985122
   15          5.435193018200        -4.055212628593
   16          2.706280554200         3.123586347165
   17          1.319563340800        -1.772129437701
   18          0.580044559700         0.809205123096
   19          0.243299762600        -0.334904584005
   20          0.096823725100         0.095617943554
 P 20
    1      28609.335767000000        -0.002249120255
    2       6773.123636400000        -0.010659337840
    3       2199.801107900000        -0.049294513306
    4        841.502015900000        -0.192889366306
    5        356.921102880000        -0.636499801902
    6        162.711743510000        -1.690233392827
    7         78.004264994000        -3.377358010427
    8         38.682579997000        -4.559919880417
    9         19.589158685000        -3.371546534388
   10          9.799086341700        -0.937700285587
   11        261.377868690000         0.128086290704
   12        100.099321460000         4.687535798585
   13         44.012139363000         5.774674515991
   14         10.854010739000         6.176779773744
   15          5.435193018200        -4.289883279465
   16          2.706280554200         2.932194195684
   17          1.319563340800        -1.579559161761
   18          0.580044559700         0.702468104246
   19          0.243299762600        -0.286404568577
   20          0.096823725100         0.080945550292
 P 20
    1      28609.335767000000        -0.006175455143
    2       6773.123636400000        -0.029267560293
    3       2199.801107900000        -0.135348945864
    4        841.502015900000        -0.529620248726
    5        356.921102880000        -1.747650427042
    6        162.711743510000        -4.640908138462
    7         78.004264994000        -9.273280449673
    8         38.682579997000       -12.520264582138
    9         19.589158685000        -9.257323761941
   10          9.799086341700        -2.574662709474
   11        261.377868690000         5.918592534801
   12        100.099321460000         4.440675903315
   13         44.012139363000        21.359680358589
   14         10.854010739000        13.272290613949
   15          5.435193018200        -7.535456356270
   16          2.706280554200         4.902972510007
   17          1.319563340800        -2.580711736617
   18          0.580044559700         1.134604553065
   19          0.243299762600        -0.460172220296
   20          0.096823725100         0.129721642415
 D 10
    1        665.350573860000         0.000887375859
    2        200.179953660000         0.007595089034
    3         77.545085570000         0.037908800510
    4         33.677854345000         0.126216041269
    5         15.624928334000         0.291488147821
    6          7.442786742300         0.450963943512
    7          3.533607353500         0.470489881011
    8          1.636372514200        -0.438948461742
    9          0.678456847300         0.230199093395
   10          0.270000000000        -0.076129545211
 D 10
    1        665.350573860000         0.000315985181
    2        200.179953660000         0.002704531071
    3         77.545085570000         0.013498923896
    4         33.677854345000         0.044944200625
    5         15.624928334000         0.103795854027
    6          7.442786742300         0.160583502287
    7          3.533607353500         0.167536482618
    8          1.636372514200        -1.447509508466
    9          0.678456847300         0.474745042635
   10          0.270000000000        -0.145092719881
 D 10
    1        665.350573860000         0.000137222646
    2        200.179953660000         0.001174494665
    3         77.545085570000         0.005862167480
    4         33.677854345000         0.019517884044
    5         15.624928334000         0.045075347097
    6          7.442786742300         0.069736476197
    7          3.533607353500         0.072755941711
    8          1.636372514200        -1.075984662890
    9          0.678456847300         1.734052695435
   10          0.270000000000        -0.280604027429
 D 10
    1        665.350573860000         0.000058399164
    2        200.179953660000         0.000499841012
    3         77.545085570000         0.002494819101
    4         33.677854345000         0.008306413984
    5         15.624928334000         0.019183149803
    6          7.442786742300         0.029678424145
    7          3.533607353500         0.030963447179
    8          1.636372514200        -0.539576665272
    9          0.678456847300         1.357139118643
   10          0.270000000000        -1.544285156795
 F 4
    1         14.180116992000         0.488927325068
    2          4.539318368000         0.659562635611
    3          0.413000000000        -0.000841745472
    4          0.955700000000         0.008561535341
 F 4
    1         14.180116992000         0.571270217268
    2          4.539318368000        -0.304097680728
    3          0.413000000000         0.252567632839
    4          0.955700000000        -0.950020716564
 F 4
    1         14.180116992000         0.800916021673
    2          4.539318368000        -0.859534568896
    3          0.413000000000         0.320143038429
    4          0.955700000000         0.488039243464
 F 4
    1         14.180116992000         0.394710362628
    2          4.539318368000        -0.515158916103
    3          0.413000000000        -1.330448359095
    4          0.955700000000         0.995850897019
 G 1
    1          0.739500000000         1.000000000000
 end
  // -----------------------------------------------
  // The basis set
  // -----------------------------------------------
  BAS[ATNO] = new BFNGauss[NSH];
  // Basis function   1 L = s
  InitBFNGauss(BAS[ATNO][  0]);
  BAS[ATNO][  0].l  = 0;
  BAS[ATNO][  0].ng = 24;
  BAS[ATNO][  0].a[  0] =  11713823.007999999449;     BAS[ATNO][  0].d[  0] =         0.000033038857;
  BAS[ATNO][  0].a[  1] =   1755253.397899999982;     BAS[ATNO][  0].d[  1] =         0.000118269618;
  BAS[ATNO][  0].a[  2] =    399717.419240000017;     BAS[ATNO][  0].d[  2] =         0.000385147268;
  BAS[ATNO][  0].a[  3] =    113285.792600000001;     BAS[ATNO][  0].d[  3] =         0.001200718416;
  BAS[ATNO][  0].a[  4] =     36977.205292999999;     BAS[ATNO][  0].d[  4] =         0.003592441108;
  BAS[ATNO][  0].a[  5] =     13355.036580000000;     BAS[ATNO][  0].d[  5] =         0.010239464745;
  BAS[ATNO][  0].a[  6] =      5210.901298800000;     BAS[ATNO][  0].d[  6] =         0.027216886122;
  BAS[ATNO][  0].a[  7] =      2162.113702000000;     BAS[ATNO][  0].d[  7] =         0.065729579771;
  BAS[ATNO][  0].a[  8] =       943.292910230000;     BAS[ATNO][  0].d[  8] =         0.132464083190;
  BAS[ATNO][  0].a[  9] =       429.207243310000;     BAS[ATNO][  0].d[  9] =         0.231727873279;
  BAS[ATNO][  0].a[ 10] =       202.407208400000;     BAS[ATNO][  0].d[ 10] =         0.232501498185;
  BAS[ATNO][  0].a[ 11] =      3260.498552100000;     BAS[ATNO][  0].d[ 11] =         0.019834888448;
  BAS[ATNO][  0].a[ 12] =      1011.106971600000;     BAS[ATNO][  0].d[ 12] =         0.058974821702;
  BAS[ATNO][  0].a[ 13] =       392.443592730000;     BAS[ATNO][  0].d[ 13] =         0.108280576088;
  BAS[ATNO][  0].a[ 14] =       173.217021320000;     BAS[ATNO][  0].d[ 14] =         0.093217992174;
  BAS[ATNO][  0].a[ 15] =        96.619988467000;     BAS[ATNO][  0].d[ 15] =         0.150072130244;
  BAS[ATNO][  0].a[ 16] =        38.158284867000;     BAS[ATNO][  0].d[ 16] =         0.012947399753;
  BAS[ATNO][  0].a[ 17] =        18.959517570000;     BAS[ATNO][  0].d[ 17] =        -0.002538022314;
  BAS[ATNO][  0].a[ 18] =         9.250599619900;     BAS[ATNO][  0].d[ 18] =         0.000824773450;
  BAS[ATNO][  0].a[ 19] =         4.348651762100;     BAS[ATNO][  0].d[ 19] =        -0.000292186996;
  BAS[ATNO][  0].a[ 20] =         2.038032420900;     BAS[ATNO][  0].d[ 20] =         0.000102919132;
  BAS[ATNO][  0].a[ 21] =         0.691101525400;     BAS[ATNO][  0].d[ 21] =        -0.000039240040;
  BAS[ATNO][  0].a[ 22] =         0.335060651400;     BAS[ATNO][  0].d[ 22] =         0.000021731362;
  BAS[ATNO][  0].a[ 23] =         0.140744411200;     BAS[ATNO][  0].d[ 23] =        -0.000005330131;

  // Basis function   2 L = s
  InitBFNGauss(BAS[ATNO][  1]);
  BAS[ATNO][  1].l  = 0;
  BAS[ATNO][  1].ng = 24;
  BAS[ATNO][  1].a[  0] =  11713823.007999999449;     BAS[ATNO][  1].d[  0] =        -0.000011532070;
  BAS[ATNO][  1].a[  1] =   1755253.397899999982;     BAS[ATNO][  1].d[  1] =        -0.000041281497;
  BAS[ATNO][  1].a[  2] =    399717.419240000017;     BAS[ATNO][  1].d[  2] =        -0.000134433982;
  BAS[ATNO][  1].a[  3] =    113285.792600000001;     BAS[ATNO][  1].d[  3] =        -0.000419105552;
  BAS[ATNO][  1].a[  4] =     36977.205292999999;     BAS[ATNO][  1].d[  4] =        -0.001253925978;
  BAS[ATNO][  1].a[  5] =     13355.036580000000;     BAS[ATNO][  1].d[  5] =        -0.003574040730;
  BAS[ATNO][  1].a[  6] =      5210.901298800000;     BAS[ATNO][  1].d[  6] =        -0.009499935980;
  BAS[ATNO][  1].a[  7] =      2162.113702000000;     BAS[ATNO][  1].d[  7] =        -0.022942624554;
  BAS[ATNO][  1].a[  8] =       943.292910230000;     BAS[ATNO][  1].d[  8] =        -0.046236013345;
  BAS[ATNO][  1].a[  9] =       429.207243310000;     BAS[ATNO][  1].d[  9] =        -0.080883608472;
  BAS[ATNO][  1].a[ 10] =       202.407208400000;     BAS[ATNO][  1].d[ 10] =        -0.081153638888;
  BAS[ATNO][  1].a[ 11] =      3260.498552100000;     BAS[ATNO][  1].d[ 11] =        -0.008109060269;
  BAS[ATNO][  1].a[ 12] =      1011.106971600000;     BAS[ATNO][  1].d[ 12] =        -0.032707532755;
  BAS[ATNO][  1].a[ 13] =       392.443592730000;     BAS[ATNO][  1].d[ 13] =        -0.094361305701;
  BAS[ATNO][  1].a[ 14] =       173.217021320000;     BAS[ATNO][  1].d[ 14] =        -0.166335568695;
  BAS[ATNO][  1].a[ 15] =        96.619988467000;     BAS[ATNO][  1].d[ 15] =        -0.037064292491;
  BAS[ATNO][  1].a[ 16] =        38.158284867000;     BAS[ATNO][  1].d[ 16] =         0.574979005333;
  BAS[ATNO][  1].a[ 17] =        18.959517570000;     BAS[ATNO][  1].d[ 17] =         0.530102627233;
  BAS[ATNO][  1].a[ 18] =         9.250599619900;     BAS[ATNO][  1].d[ 18] =         0.061691284876;
  BAS[ATNO][  1].a[ 19] =         4.348651762100;     BAS[ATNO][  1].d[ 19] =        -0.002134217838;
  BAS[ATNO][  1].a[ 20] =         2.038032420900;     BAS[ATNO][  1].d[ 20] =         0.000455296255;
  BAS[ATNO][  1].a[ 21] =         0.691101525400;     BAS[ATNO][  1].d[ 21] =        -0.000120870462;
  BAS[ATNO][  1].a[ 22] =         0.335060651400;     BAS[ATNO][  1].d[ 22] =         0.000060374963;
  BAS[ATNO][  1].a[ 23] =         0.140744411200;     BAS[ATNO][  1].d[ 23] =        -0.000013968846;

  // Basis function   3 L = s
  InitBFNGauss(BAS[ATNO][  2]);
  BAS[ATNO][  2].l  = 0;
  BAS[ATNO][  2].ng = 24;
  BAS[ATNO][  2].a[  0] =  11713823.007999999449;     BAS[ATNO][  2].d[  0] =         0.000006223846;
  BAS[ATNO][  2].a[  1] =   1755253.397899999982;     BAS[ATNO][  2].d[  1] =         0.000022279582;
  BAS[ATNO][  2].a[  2] =    399717.419240000017;     BAS[ATNO][  2].d[  2] =         0.000072553883;
  BAS[ATNO][  2].a[  3] =    113285.792600000001;     BAS[ATNO][  2].d[  3] =         0.000226190838;
  BAS[ATNO][  2].a[  4] =     36977.205292999999;     BAS[ATNO][  2].d[  4] =         0.000676742567;
  BAS[ATNO][  2].a[  5] =     13355.036580000000;     BAS[ATNO][  2].d[  5] =         0.001928906126;
  BAS[ATNO][  2].a[  6] =      5210.901298800000;     BAS[ATNO][  2].d[  6] =         0.005127105730;
  BAS[ATNO][  2].a[  7] =      2162.113702000000;     BAS[ATNO][  2].d[  7] =         0.012382111002;
  BAS[ATNO][  2].a[  8] =       943.292910230000;     BAS[ATNO][  2].d[  8] =         0.024953529105;
  BAS[ATNO][  2].a[  9] =       429.207243310000;     BAS[ATNO][  2].d[  9] =         0.043652800751;
  BAS[ATNO][  2].a[ 10] =       202.407208400000;     BAS[ATNO][  2].d[ 10] =         0.043798535891;
  BAS[ATNO][  2].a[ 11] =      3260.498552100000;     BAS[ATNO][  2].d[ 11] =         0.004471898694;
  BAS[ATNO][  2].a[ 12] =      1011.106971600000;     BAS[ATNO][  2].d[ 12] =         0.019039360752;
  BAS[ATNO][  2].a[ 13] =       392.443592730000;     BAS[ATNO][  2].d[ 13] =         0.057392735352;
  BAS[ATNO][  2].a[ 14] =       173.217021320000;     BAS[ATNO][  2].d[ 14] =         0.114406160961;
  BAS[ATNO][  2].a[ 15] =        96.619988467000;     BAS[ATNO][  2].d[ 15] =         0.014907038243;
  BAS[ATNO][  2].a[ 16] =        38.158284867000;     BAS[ATNO][  2].d[ 16] =        -0.608200177650;
  BAS[ATNO][  2].a[ 17] =        18.959517570000;     BAS[ATNO][  2].d[ 17] =        -0.832950254621;
  BAS[ATNO][  2].a[ 18] =         9.250599619900;     BAS[ATNO][  2].d[ 18] =         1.025486086159;
  BAS[ATNO][  2].a[ 19] =         4.348651762100;     BAS[ATNO][  2].d[ 19] =         0.695010630764;
  BAS[ATNO][  2].a[ 20] =         2.038032420900;     BAS[ATNO][  2].d[ 20] =        -0.063935221532;
  BAS[ATNO][  2].a[ 21] =         0.691101525400;     BAS[ATNO][  2].d[ 21] =         0.025775634728;
  BAS[ATNO][  2].a[ 22] =         0.335060651400;     BAS[ATNO][  2].d[ 22] =        -0.014244642474;
  BAS[ATNO][  2].a[ 23] =         0.140744411200;     BAS[ATNO][  2].d[ 23] =         0.003473076213;

  // Basis function   4 L = s
  InitBFNGauss(BAS[ATNO][  3]);
  BAS[ATNO][  3].l  = 0;
  BAS[ATNO][  3].ng = 24;
  BAS[ATNO][  3].a[  0] =  11713823.007999999449;     BAS[ATNO][  3].d[  0] =         0.000004043597;
  BAS[ATNO][  3].a[  1] =   1755253.397899999982;     BAS[ATNO][  3].d[  1] =         0.000014474916;
  BAS[ATNO][  3].a[  2] =    399717.419240000017;     BAS[ATNO][  3].d[  2] =         0.000047137842;
  BAS[ATNO][  3].a[  3] =    113285.792600000001;     BAS[ATNO][  3].d[  3] =         0.000146954891;
  BAS[ATNO][  3].a[  4] =     36977.205292999999;     BAS[ATNO][  3].d[  4] =         0.000439675768;
  BAS[ATNO][  3].a[  5] =     13355.036580000000;     BAS[ATNO][  3].d[  5] =         0.001253199256;
  BAS[ATNO][  3].a[  6] =      5210.901298800000;     BAS[ATNO][  3].d[  6] =         0.003331051211;
  BAS[ATNO][  3].a[  7] =      2162.113702000000;     BAS[ATNO][  3].d[  7] =         0.008044586560;
  BAS[ATNO][  3].a[  8] =       943.292910230000;     BAS[ATNO][  3].d[  8] =         0.016212164859;
  BAS[ATNO][  3].a[  9] =       429.207243310000;     BAS[ATNO][  3].d[  9] =         0.028360974489;
  BAS[ATNO][  3].a[ 10] =       202.407208400000;     BAS[ATNO][  3].d[ 10] =         0.028455657774;
  BAS[ATNO][  3].a[ 11] =      3260.498552100000;     BAS[ATNO][  3].d[ 11] =         0.002803043526;
  BAS[ATNO][  3].a[ 12] =      1011.106971600000;     BAS[ATNO][  3].d[ 12] =         0.013219207987;
  BAS[ATNO][  3].a[ 13] =       392.443592730000;     BAS[ATNO][  3].d[ 13] =         0.035471621006;
  BAS[ATNO][  3].a[ 14] =       173.217021320000;     BAS[ATNO][  3].d[ 14] =         0.093506016731;
  BAS[ATNO][  3].a[ 15] =        96.619988467000;     BAS[ATNO][  3].d[ 15] =        -0.017545805456;
  BAS[ATNO][  3].a[ 16] =        38.158284867000;     BAS[ATNO][  3].d[ 16] =        -0.431098649179;
  BAS[ATNO][  3].a[ 17] =        18.959517570000;     BAS[ATNO][  3].d[ 17] =        -1.016954440760;
  BAS[ATNO][  3].a[ 18] =         9.250599619900;     BAS[ATNO][  3].d[ 18] =         2.257238124443;
  BAS[ATNO][  3].a[ 19] =         4.348651762100;     BAS[ATNO][  3].d[ 19] =         0.157981536840;
  BAS[ATNO][  3].a[ 20] =         2.038032420900;     BAS[ATNO][  3].d[ 20] =        -1.718732138176;
  BAS[ATNO][  3].a[ 21] =         0.691101525400;     BAS[ATNO][  3].d[ 21] =         0.180876206061;
  BAS[ATNO][  3].a[ 22] =         0.335060651400;     BAS[ATNO][  3].d[ 22] =        -0.098800580828;
  BAS[ATNO][  3].a[ 23] =         0.140744411200;     BAS[ATNO][  3].d[ 23] =         0.023625211639;

  // Basis function   5 L = s
  InitBFNGauss(BAS[ATNO][  4]);
  BAS[ATNO][  4].l  = 0;
  BAS[ATNO][  4].ng = 24;
  BAS[ATNO][  4].a[  0] =  11713823.007999999449;     BAS[ATNO][  4].d[  0] =         0.000002951968;
  BAS[ATNO][  4].a[  1] =   1755253.397899999982;     BAS[ATNO][  4].d[  1] =         0.000010567198;
  BAS[ATNO][  4].a[  2] =    399717.419240000017;     BAS[ATNO][  4].d[  2] =         0.000034412282;
  BAS[ATNO][  4].a[  3] =    113285.792600000001;     BAS[ATNO][  4].d[  3] =         0.000107282237;
  BAS[ATNO][  4].a[  4] =     36977.205292999999;     BAS[ATNO][  4].d[  4] =         0.000320978768;
  BAS[ATNO][  4].a[  5] =     13355.036580000000;     BAS[ATNO][  4].d[  5] =         0.000914879514;
  BAS[ATNO][  4].a[  6] =      5210.901298800000;     BAS[ATNO][  4].d[  6] =         0.002431784490;
  BAS[ATNO][  4].a[  7] =      2162.113702000000;     BAS[ATNO][  4].d[  7] =         0.005872831004;
  BAS[ATNO][  4].a[  8] =       943.292910230000;     BAS[ATNO][  4].d[  8] =         0.011835450300;
  BAS[ATNO][  4].a[  9] =       429.207243310000;     BAS[ATNO][  4].d[  9] =         0.020704508432;
  BAS[ATNO][  4].a[ 10] =       202.407208400000;     BAS[ATNO][  4].d[ 10] =         0.020773630558;
  BAS[ATNO][  4].a[ 11] =      3260.498552100000;     BAS[ATNO][  4].d[ 11] =         0.001770939251;
  BAS[ATNO][  4].a[ 12] =      1011.106971600000;     BAS[ATNO][  4].d[ 12] =         0.010974829040;
  BAS[ATNO][  4].a[ 13] =       392.443592730000;     BAS[ATNO][  4].d[ 13] =         0.018731164557;
  BAS[ATNO][  4].a[ 14] =       173.217021320000;     BAS[ATNO][  4].d[ 14] =         0.100461521873;
  BAS[ATNO][  4].a[ 15] =        96.619988467000;     BAS[ATNO][  4].d[ 15] =        -0.074535983630;
  BAS[ATNO][  4].a[ 16] =        38.158284867000;     BAS[ATNO][  4].d[ 16] =        -0.185857142054;
  BAS[ATNO][  4].a[ 17] =        18.959517570000;     BAS[ATNO][  4].d[ 17] =        -1.345915978702;
  BAS[ATNO][  4].a[ 18] =         9.250599619900;     BAS[ATNO][  4].d[ 18] =         3.550096772431;
  BAS[ATNO][  4].a[ 19] =         4.348651762100;     BAS[ATNO][  4].d[ 19] =        -2.426709008953;
  BAS[ATNO][  4].a[ 20] =         2.038032420900;     BAS[ATNO][  4].d[ 20] =        -1.041040254955;
  BAS[ATNO][  4].a[ 21] =         0.691101525400;     BAS[ATNO][  4].d[ 21] =         2.468946261899;
  BAS[ATNO][  4].a[ 22] =         0.335060651400;     BAS[ATNO][  4].d[ 22] =        -0.878900644357;
  BAS[ATNO][  4].a[ 23] =         0.140744411200;     BAS[ATNO][  4].d[ 23] =         0.184532994020;

  // Basis function   6 L = s
  InitBFNGauss(BAS[ATNO][  5]);
  BAS[ATNO][  5].l  = 0;
  BAS[ATNO][  5].ng = 24;
  BAS[ATNO][  5].a[  0] =  11713823.007999999449;     BAS[ATNO][  5].d[  0] =        -0.000002590204;
  BAS[ATNO][  5].a[  1] =   1755253.397899999982;     BAS[ATNO][  5].d[  1] =        -0.000009272185;
  BAS[ATNO][  5].a[  2] =    399717.419240000017;     BAS[ATNO][  5].d[  2] =        -0.000030195047;
  BAS[ATNO][  5].a[  3] =    113285.792600000001;     BAS[ATNO][  5].d[  3] =        -0.000094134769;
  BAS[ATNO][  5].a[  4] =     36977.205292999999;     BAS[ATNO][  5].d[  4] =        -0.000281642732;
  BAS[ATNO][  5].a[  5] =     13355.036580000000;     BAS[ATNO][  5].d[  5] =        -0.000802760779;
  BAS[ATNO][  5].a[  6] =      5210.901298800000;     BAS[ATNO][  5].d[  6] =        -0.002133768635;
  BAS[ATNO][  5].a[  7] =      2162.113702000000;     BAS[ATNO][  5].d[  7] =        -0.005153113957;
  BAS[ATNO][  5].a[  8] =       943.292910230000;     BAS[ATNO][  5].d[  8] =        -0.010385012626;
  BAS[ATNO][  5].a[  9] =       429.207243310000;     BAS[ATNO][  5].d[  9] =        -0.018167165256;
  BAS[ATNO][  5].a[ 10] =       202.407208400000;     BAS[ATNO][  5].d[ 10] =        -0.018227816447;
  BAS[ATNO][  5].a[ 11] =      3260.498552100000;     BAS[ATNO][  5].d[ 11] =        -0.001278931547;
  BAS[ATNO][  5].a[ 12] =      1011.106971600000;     BAS[ATNO][  5].d[ 12] =        -0.010882383128;
  BAS[ATNO][  5].a[ 13] =       392.443592730000;     BAS[ATNO][  5].d[ 13] =        -0.009074753871;
  BAS[ATNO][  5].a[ 14] =       173.217021320000;     BAS[ATNO][  5].d[ 14] =        -0.119187776251;
  BAS[ATNO][  5].a[ 15] =        96.619988467000;     BAS[ATNO][  5].d[ 15] =         0.127475683503;
  BAS[ATNO][  5].a[ 16] =        38.158284867000;     BAS[ATNO][  5].d[ 16] =         0.006766294853;
  BAS[ATNO][  5].a[ 17] =        18.959517570000;     BAS[ATNO][  5].d[ 17] =         1.767364198047;
  BAS[ATNO][  5].a[ 18] =         9.250599619900;     BAS[ATNO][  5].d[ 18] =        -4.984363813311;
  BAS[ATNO][  5].a[ 19] =         4.348651762100;     BAS[ATNO][  5].d[ 19] =         5.972150803127;
  BAS[ATNO][  5].a[ 20] =         2.038032420900;     BAS[ATNO][  5].d[ 20] =        -3.021161243255;
  BAS[ATNO][  5].a[ 21] =         0.691101525400;     BAS[ATNO][  5].d[ 21] =        -1.464994780892;
  BAS[ATNO][  5].a[ 22] =         0.335060651400;     BAS[ATNO][  5].d[ 22] =         2.632878414834;
  BAS[ATNO][  5].a[ 23] =         0.140744411200;     BAS[ATNO][  5].d[ 23] =        -0.483081210498;

  // Basis function   7 L = s
  InitBFNGauss(BAS[ATNO][  6]);
  BAS[ATNO][  6].l  = 0;
  BAS[ATNO][  6].ng = 24;
  BAS[ATNO][  6].a[  0] =  11713823.007999999449;     BAS[ATNO][  6].d[  0] =        -0.000002766846;
  BAS[ATNO][  6].a[  1] =   1755253.397899999982;     BAS[ATNO][  6].d[  1] =        -0.000009904512;
  BAS[ATNO][  6].a[  2] =    399717.419240000017;     BAS[ATNO][  6].d[  2] =        -0.000032254233;
  BAS[ATNO][  6].a[  3] =    113285.792600000001;     BAS[ATNO][  6].d[  3] =        -0.000100554398;
  BAS[ATNO][  6].a[  4] =     36977.205292999999;     BAS[ATNO][  6].d[  4] =        -0.000300849682;
  BAS[ATNO][  6].a[  5] =     13355.036580000000;     BAS[ATNO][  6].d[  5] =        -0.000857505975;
  BAS[ATNO][  6].a[  6] =      5210.901298800000;     BAS[ATNO][  6].d[  6] =        -0.002279283445;
  BAS[ATNO][  6].a[  7] =      2162.113702000000;     BAS[ATNO][  6].d[  7] =        -0.005504536497;
  BAS[ATNO][  6].a[  8] =       943.292910230000;     BAS[ATNO][  6].d[  8] =        -0.011093230521;
  BAS[ATNO][  6].a[  9] =       429.207243310000;     BAS[ATNO][  6].d[  9] =        -0.019406096011;
  BAS[ATNO][  6].a[ 10] =       202.407208400000;     BAS[ATNO][  6].d[ 10] =        -0.019470883380;
  BAS[ATNO][  6].a[ 11] =      3260.498552100000;     BAS[ATNO][  6].d[ 11] =        -0.001271899333;
  BAS[ATNO][  6].a[ 12] =      1011.106971600000;     BAS[ATNO][  6].d[ 12] =        -0.012073135482;
  BAS[ATNO][  6].a[ 13] =       392.443592730000;     BAS[ATNO][  6].d[ 13] =        -0.007179252354;
  BAS[ATNO][  6].a[ 14] =       173.217021320000;     BAS[ATNO][  6].d[ 14] =        -0.138729710830;
  BAS[ATNO][  6].a[ 15] =        96.619988467000;     BAS[ATNO][  6].d[ 15] =         0.159100197776;
  BAS[ATNO][  6].a[ 16] =        38.158284867000;     BAS[ATNO][  6].d[ 16] =        -0.050259506160;
  BAS[ATNO][  6].a[ 17] =        18.959517570000;     BAS[ATNO][  6].d[ 17] =         2.178051241398;
  BAS[ATNO][  6].a[ 18] =         9.250599619900;     BAS[ATNO][  6].d[ 18] =        -6.502834028323;
  BAS[ATNO][  6].a[ 19] =         4.348651762100;     BAS[ATNO][  6].d[ 19] =         9.484920507229;
  BAS[ATNO][  6].a[ 20] =         2.038032420900;     BAS[ATNO][  6].d[ 20] =        -8.060245905545;
  BAS[ATNO][  6].a[ 21] =         0.691101525400;     BAS[ATNO][  6].d[ 21] =         5.614172418341;
  BAS[ATNO][  6].a[ 22] =         0.335060651400;     BAS[ATNO][  6].d[ 22] =        -2.605512262176;
  BAS[ATNO][  6].a[ 23] =         0.140744411200;     BAS[ATNO][  6].d[ 23] =        -0.366270509847;

  // Basis function   8 L = s
  InitBFNGauss(BAS[ATNO][  7]);
  BAS[ATNO][  7].l  = 0;
  BAS[ATNO][  7].ng = 24;
  BAS[ATNO][  7].a[  0] =  11713823.007999999449;     BAS[ATNO][  7].d[  0] =         0.000001551589;
  BAS[ATNO][  7].a[  1] =   1755253.397899999982;     BAS[ATNO][  7].d[  1] =         0.000005554244;
  BAS[ATNO][  7].a[  2] =    399717.419240000017;     BAS[ATNO][  7].d[  2] =         0.000018087502;
  BAS[ATNO][  7].a[  3] =    113285.792600000001;     BAS[ATNO][  7].d[  3] =         0.000056388810;
  BAS[ATNO][  7].a[  4] =     36977.205292999999;     BAS[ATNO][  7].d[  4] =         0.000168710230;
  BAS[ATNO][  7].a[  5] =     13355.036580000000;     BAS[ATNO][  7].d[  5] =         0.000480871475;
  BAS[ATNO][  7].a[  6] =      5210.901298800000;     BAS[ATNO][  7].d[  6] =         0.001278174641;
  BAS[ATNO][  7].a[  7] =      2162.113702000000;     BAS[ATNO][  7].d[  7] =         0.003086829319;
  BAS[ATNO][  7].a[  8] =       943.292910230000;     BAS[ATNO][  7].d[  8] =         0.006220852425;
[...]
  BAS[ATNO][ 20].a[ 11] =       100.099321460000;     BAS[ATNO][ 20].d[ 11] =        -0.035959452052;
  BAS[ATNO][ 20].a[ 12] =        44.012139363000;     BAS[ATNO][ 20].d[ 12] =         0.013278060684;
  BAS[ATNO][ 20].a[ 13] =        10.854010739000;     BAS[ATNO][ 20].d[ 13] =         2.348573025032;
  BAS[ATNO][ 20].a[ 14] =         5.435193018200;     BAS[ATNO][ 20].d[ 14] =        -5.327599265870;
  BAS[ATNO][ 20].a[ 15] =         2.706280554200;     BAS[ATNO][ 20].d[ 15] =         6.501733883236;
  BAS[ATNO][ 20].a[ 16] =         1.319563340800;     BAS[ATNO][ 20].d[ 16] =        -5.022745271489;
  BAS[ATNO][ 20].a[ 17] =         0.580044559700;     BAS[ATNO][ 20].d[ 17] =         2.458097950900;
  BAS[ATNO][ 20].a[ 18] =         0.243299762600;     BAS[ATNO][ 20].d[ 18] =        -0.187919323005;
  BAS[ATNO][ 20].a[ 19] =         0.096823725100;     BAS[ATNO][ 20].d[ 19] =        -0.870899013173;

  // Basis function  22 L = p
  InitBFNGauss(BAS[ATNO][ 21]);
  BAS[ATNO][ 21].l  = 1;
  BAS[ATNO][ 21].ng = 20;
  BAS[ATNO][ 21].a[  0] =     28609.335767000000;     BAS[ATNO][ 21].d[  0] =        -0.000047913179;
  BAS[ATNO][ 21].a[  1] =      6773.123636400000;     BAS[ATNO][ 21].d[  1] =        -0.000227076680;
  BAS[ATNO][ 21].a[  2] =      2199.801107900000;     BAS[ATNO][ 21].d[  2] =        -0.001050124743;
  BAS[ATNO][ 21].a[  3] =       841.502015900000;     BAS[ATNO][ 21].d[  3] =        -0.004109136749;
  BAS[ATNO][ 21].a[  4] =       356.921102880000;     BAS[ATNO][ 21].d[  4] =        -0.013559403388;
  BAS[ATNO][ 21].a[  5] =       162.711743510000;     BAS[ATNO][ 21].d[  5] =        -0.036007169719;
  BAS[ATNO][ 21].a[  6] =        78.004264994000;     BAS[ATNO][ 21].d[  6] =        -0.071948112964;
  BAS[ATNO][ 21].a[  7] =        38.682579997000;     BAS[ATNO][ 21].d[  7] =        -0.097140317860;
  BAS[ATNO][ 21].a[  8] =        19.589158685000;     BAS[ATNO][ 21].d[  8] =        -0.071824310650;
  BAS[ATNO][ 21].a[  9] =         9.799086341700;     BAS[ATNO][ 21].d[  9] =        -0.019975900057;
  BAS[ATNO][ 21].a[ 10] =       261.377868690000;     BAS[ATNO][ 21].d[ 10] =         0.002005088457;
  BAS[ATNO][ 21].a[ 11] =       100.099321460000;     BAS[ATNO][ 21].d[ 11] =        -0.030420345461;
  BAS[ATNO][ 21].a[ 12] =        44.012139363000;     BAS[ATNO][ 21].d[ 12] =         0.010043253586;
  BAS[ATNO][ 21].a[ 13] =        10.854010739000;     BAS[ATNO][ 21].d[ 13] =         1.963217524966;
  BAS[ATNO][ 21].a[ 14] =         5.435193018200;     BAS[ATNO][ 21].d[ 14] =        -4.655097140499;
  BAS[ATNO][ 21].a[ 15] =         2.706280554200;     BAS[ATNO][ 21].d[ 15] =         6.195582461637;
  BAS[ATNO][ 21].a[ 16] =         1.319563340800;     BAS[ATNO][ 21].d[ 16] =        -5.744376070780;
  BAS[ATNO][ 21].a[ 17] =         0.580044559700;     BAS[ATNO][ 21].d[ 17] =         4.543360116090;
  BAS[ATNO][ 21].a[ 18] =         0.243299762600;     BAS[ATNO][ 21].d[ 18] =        -3.480536005482;
  BAS[ATNO][ 21].a[ 19] =         0.096823725100;     BAS[ATNO][ 21].d[ 19] =         1.881990020957;

  // Basis function  23 L = p
  InitBFNGauss(BAS[ATNO][ 22]);
  BAS[ATNO][ 22].l  = 1;
  BAS[ATNO][ 22].ng = 20;
  BAS[ATNO][ 22].a[  0] =     28609.335767000000;     BAS[ATNO][ 22].d[  0] =         0.000127383025;
  BAS[ATNO][ 22].a[  1] =      6773.123636400000;     BAS[ATNO][ 22].d[  1] =         0.000603711029;
  BAS[ATNO][ 22].a[  2] =      2199.801107900000;     BAS[ATNO][ 22].d[  2] =         0.002791884617;
  BAS[ATNO][ 22].a[  3] =       841.502015900000;     BAS[ATNO][ 22].d[  3] =         0.010924640868;
  BAS[ATNO][ 22].a[  4] =       356.921102880000;     BAS[ATNO][ 22].d[  4] =         0.036049326520;
  BAS[ATNO][ 22].a[  5] =       162.711743510000;     BAS[ATNO][ 22].d[  5] =         0.095729449233;
  BAS[ATNO][ 22].a[  6] =        78.004264994000;     BAS[ATNO][ 22].d[  6] =         0.191282827314;
  BAS[ATNO][ 22].a[  7] =        38.682579997000;     BAS[ATNO][ 22].d[  7] =         0.258259374446;
  BAS[ATNO][ 22].a[  8] =        19.589158685000;     BAS[ATNO][ 22].d[  8] =         0.190953683775;
  BAS[ATNO][ 22].a[  9] =         9.799086341700;     BAS[ATNO][ 22].d[  9] =         0.053108364955;
  BAS[ATNO][ 22].a[ 10] =       261.377868690000;     BAS[ATNO][ 22].d[ 10] =        -0.173554642187;
  BAS[ATNO][ 22].a[ 11] =       100.099321460000;     BAS[ATNO][ 22].d[ 11] =        -1.926702803755;
  BAS[ATNO][ 22].a[ 12] =        44.012139363000;     BAS[ATNO][ 22].d[ 12] =         2.183639832803;
  BAS[ATNO][ 22].a[ 13] =        10.854010739000;     BAS[ATNO][ 22].d[ 13] =        -3.348001985122;
  BAS[ATNO][ 22].a[ 14] =         5.435193018200;     BAS[ATNO][ 22].d[ 14] =         4.055212628593;
  BAS[ATNO][ 22].a[ 15] =         2.706280554200;     BAS[ATNO][ 22].d[ 15] =        -3.123586347165;
  BAS[ATNO][ 22].a[ 16] =         1.319563340800;     BAS[ATNO][ 22].d[ 16] =         1.772129437701;
  BAS[ATNO][ 22].a[ 17] =         0.580044559700;     BAS[ATNO][ 22].d[ 17] =        -0.809205123096;
  BAS[ATNO][ 22].a[ 18] =         0.243299762600;     BAS[ATNO][ 22].d[ 18] =         0.334904584005;
  BAS[ATNO][ 22].a[ 19] =         0.096823725100;     BAS[ATNO][ 22].d[ 19] =        -0.095617943554;

  // Basis function  24 L = p
  InitBFNGauss(BAS[ATNO][ 23]);
  BAS[ATNO][ 23].l  = 1;
  BAS[ATNO][ 23].ng = 20;
  BAS[ATNO][ 23].a[  0] =     28609.335767000000;     BAS[ATNO][ 23].d[  0] =        -0.002249120255;
  BAS[ATNO][ 23].a[  1] =      6773.123636400000;     BAS[ATNO][ 23].d[  1] =        -0.010659337840;
  BAS[ATNO][ 23].a[  2] =      2199.801107900000;     BAS[ATNO][ 23].d[  2] =        -0.049294513306;
  BAS[ATNO][ 23].a[  3] =       841.502015900000;     BAS[ATNO][ 23].d[  3] =        -0.192889366306;
  BAS[ATNO][ 23].a[  4] =       356.921102880000;     BAS[ATNO][ 23].d[  4] =        -0.636499801902;
  BAS[ATNO][ 23].a[  5] =       162.711743510000;     BAS[ATNO][ 23].d[  5] =        -1.690233392827;
  BAS[ATNO][ 23].a[  6] =        78.004264994000;     BAS[ATNO][ 23].d[  6] =        -3.377358010427;
  BAS[ATNO][ 23].a[  7] =        38.682579997000;     BAS[ATNO][ 23].d[  7] =        -4.559919880417;
  BAS[ATNO][ 23].a[  8] =        19.589158685000;     BAS[ATNO][ 23].d[  8] =        -3.371546534388;
  BAS[ATNO][ 23].a[  9] =         9.799086341700;     BAS[ATNO][ 23].d[  9] =        -0.937700285587;
  BAS[ATNO][ 23].a[ 10] =       261.377868690000;     BAS[ATNO][ 23].d[ 10] =         0.128086290704;
  BAS[ATNO][ 23].a[ 11] =       100.099321460000;     BAS[ATNO][ 23].d[ 11] =         4.687535798585;
  BAS[ATNO][ 23].a[ 12] =        44.012139363000;     BAS[ATNO][ 23].d[ 12] =         5.774674515991;
  BAS[ATNO][ 23].a[ 13] =        10.854010739000;     BAS[ATNO][ 23].d[ 13] =         6.176779773744;
  BAS[ATNO][ 23].a[ 14] =         5.435193018200;     BAS[ATNO][ 23].d[ 14] =        -4.289883279465;
  BAS[ATNO][ 23].a[ 15] =         2.706280554200;     BAS[ATNO][ 23].d[ 15] =         2.932194195684;
  BAS[ATNO][ 23].a[ 16] =         1.319563340800;     BAS[ATNO][ 23].d[ 16] =        -1.579559161761;
  BAS[ATNO][ 23].a[ 17] =         0.580044559700;     BAS[ATNO][ 23].d[ 17] =         0.702468104246;
  BAS[ATNO][ 23].a[ 18] =         0.243299762600;     BAS[ATNO][ 23].d[ 18] =        -0.286404568577;
  BAS[ATNO][ 23].a[ 19] =         0.096823725100;     BAS[ATNO][ 23].d[ 19] =         0.080945550292;

  // Basis function  25 L = p
  InitBFNGauss(BAS[ATNO][ 24]);
  BAS[ATNO][ 24].l  = 1;
  BAS[ATNO][ 24].ng = 20;
  BAS[ATNO][ 24].a[  0] =     28609.335767000000;     BAS[ATNO][ 24].d[  0] =        -0.006175455143;
  BAS[ATNO][ 24].a[  1] =      6773.123636400000;     BAS[ATNO][ 24].d[  1] =        -0.029267560293;
  BAS[ATNO][ 24].a[  2] =      2199.801107900000;     BAS[ATNO][ 24].d[  2] =        -0.135348945864;
  BAS[ATNO][ 24].a[  3] =       841.502015900000;     BAS[ATNO][ 24].d[  3] =        -0.529620248726;
  BAS[ATNO][ 24].a[  4] =       356.921102880000;     BAS[ATNO][ 24].d[  4] =        -1.747650427042;
  BAS[ATNO][ 24].a[  5] =       162.711743510000;     BAS[ATNO][ 24].d[  5] =        -4.640908138462;
  BAS[ATNO][ 24].a[  6] =        78.004264994000;     BAS[ATNO][ 24].d[  6] =        -9.273280449673;
  BAS[ATNO][ 24].a[  7] =        38.682579997000;     BAS[ATNO][ 24].d[  7] =       -12.520264582138;
  BAS[ATNO][ 24].a[  8] =        19.589158685000;     BAS[ATNO][ 24].d[  8] =        -9.257323761941;
  BAS[ATNO][ 24].a[  9] =         9.799086341700;     BAS[ATNO][ 24].d[  9] =        -2.574662709474;
  BAS[ATNO][ 24].a[ 10] =       261.377868690000;     BAS[ATNO][ 24].d[ 10] =         5.918592534801;
  BAS[ATNO][ 24].a[ 11] =       100.099321460000;     BAS[ATNO][ 24].d[ 11] =         4.440675903315;
  BAS[ATNO][ 24].a[ 12] =        44.012139363000;     BAS[ATNO][ 24].d[ 12] =        21.359680358589;
  BAS[ATNO][ 24].a[ 13] =        10.854010739000;     BAS[ATNO][ 24].d[ 13] =        13.272290613949;
  BAS[ATNO][ 24].a[ 14] =         5.435193018200;     BAS[ATNO][ 24].d[ 14] =        -7.535456356270;
  BAS[ATNO][ 24].a[ 15] =         2.706280554200;     BAS[ATNO][ 24].d[ 15] =         4.902972510007;
  BAS[ATNO][ 24].a[ 16] =         1.319563340800;     BAS[ATNO][ 24].d[ 16] =        -2.580711736617;
  BAS[ATNO][ 24].a[ 17] =         0.580044559700;     BAS[ATNO][ 24].d[ 17] =         1.134604553065;
  BAS[ATNO][ 24].a[ 18] =         0.243299762600;     BAS[ATNO][ 24].d[ 18] =        -0.460172220296;
  BAS[ATNO][ 24].a[ 19] =         0.096823725100;     BAS[ATNO][ 24].d[ 19] =         0.129721642415;

  // Basis function  26 L = d
  InitBFNGauss(BAS[ATNO][ 25]);
  BAS[ATNO][ 25].l  = 2;
  BAS[ATNO][ 25].ng = 10;
  BAS[ATNO][ 25].a[  0] =       665.350573860000;     BAS[ATNO][ 25].d[  0] =         0.000887375859;
  BAS[ATNO][ 25].a[  1] =       200.179953660000;     BAS[ATNO][ 25].d[  1] =         0.007595089034;
  BAS[ATNO][ 25].a[  2] =        77.545085570000;     BAS[ATNO][ 25].d[  2] =         0.037908800510;
  BAS[ATNO][ 25].a[  3] =        33.677854345000;     BAS[ATNO][ 25].d[  3] =         0.126216041269;
  BAS[ATNO][ 25].a[  4] =        15.624928334000;     BAS[ATNO][ 25].d[  4] =         0.291488147821;
  BAS[ATNO][ 25].a[  5] =         7.442786742300;     BAS[ATNO][ 25].d[  5] =         0.450963943512;
  BAS[ATNO][ 25].a[  6] =         3.533607353500;     BAS[ATNO][ 25].d[  6] =         0.470489881011;
  BAS[ATNO][ 25].a[  7] =         1.636372514200;     BAS[ATNO][ 25].d[  7] =        -0.438948461742;
  BAS[ATNO][ 25].a[  8] =         0.678456847300;     BAS[ATNO][ 25].d[  8] =         0.230199093395;
  BAS[ATNO][ 25].a[  9] =         0.270000000000;     BAS[ATNO][ 25].d[  9] =        -0.076129545211;

  // Basis function  27 L = d
  InitBFNGauss(BAS[ATNO][ 26]);
  BAS[ATNO][ 26].l  = 2;
  BAS[ATNO][ 26].ng = 10;
  BAS[ATNO][ 26].a[  0] =       665.350573860000;     BAS[ATNO][ 26].d[  0] =        -0.000315985181;
  BAS[ATNO][ 26].a[  1] =       200.179953660000;     BAS[ATNO][ 26].d[  1] =        -0.002704531071;
  BAS[ATNO][ 26].a[  2] =        77.545085570000;     BAS[ATNO][ 26].d[  2] =        -0.013498923896;
  BAS[ATNO][ 26].a[  3] =        33.677854345000;     BAS[ATNO][ 26].d[  3] =        -0.044944200625;
  BAS[ATNO][ 26].a[  4] =        15.624928334000;     BAS[ATNO][ 26].d[  4] =        -0.103795854027;
  BAS[ATNO][ 26].a[  5] =         7.442786742300;     BAS[ATNO][ 26].d[  5] =        -0.160583502287;
  BAS[ATNO][ 26].a[  6] =         3.533607353500;     BAS[ATNO][ 26].d[  6] =        -0.167536482618;
  BAS[ATNO][ 26].a[  7] =         1.636372514200;     BAS[ATNO][ 26].d[  7] =         1.447509508466;
  BAS[ATNO][ 26].a[  8] =         0.678456847300;     BAS[ATNO][ 26].d[  8] =        -0.474745042635;
  BAS[ATNO][ 26].a[  9] =         0.270000000000;     BAS[ATNO][ 26].d[  9] =         0.145092719881;

  // Basis function  28 L = d
  InitBFNGauss(BAS[ATNO][ 27]);
  BAS[ATNO][ 27].l  = 2;
  BAS[ATNO][ 27].ng = 10;
  BAS[ATNO][ 27].a[  0] =       665.350573860000;     BAS[ATNO][ 27].d[  0] =         0.000137222646;
  BAS[ATNO][ 27].a[  1] =       200.179953660000;     BAS[ATNO][ 27].d[  1] =         0.001174494665;
  BAS[ATNO][ 27].a[  2] =        77.545085570000;     BAS[ATNO][ 27].d[  2] =         0.005862167480;
  BAS[ATNO][ 27].a[  3] =        33.677854345000;     BAS[ATNO][ 27].d[  3] =         0.019517884044;
  BAS[ATNO][ 27].a[  4] =        15.624928334000;     BAS[ATNO][ 27].d[  4] =         0.045075347097;
  BAS[ATNO][ 27].a[  5] =         7.442786742300;     BAS[ATNO][ 27].d[  5] =         0.069736476197;
  BAS[ATNO][ 27].a[  6] =         3.533607353500;     BAS[ATNO][ 27].d[  6] =         0.072755941711;
  BAS[ATNO][ 27].a[  7] =         1.636372514200;     BAS[ATNO][ 27].d[  7] =        -1.075984662890;
  BAS[ATNO][ 27].a[  8] =         0.678456847300;     BAS[ATNO][ 27].d[  8] =         1.734052695435;
  BAS[ATNO][ 27].a[  9] =         0.270000000000;     BAS[ATNO][ 27].d[  9] =        -0.280604027429;

  // Basis function  29 L = d
  InitBFNGauss(BAS[ATNO][ 28]);
  BAS[ATNO][ 28].l  = 2;
  BAS[ATNO][ 28].ng = 10;
  BAS[ATNO][ 28].a[  0] =       665.350573860000;     BAS[ATNO][ 28].d[  0] =        -0.000058399164;
  BAS[ATNO][ 28].a[  1] =       200.179953660000;     BAS[ATNO][ 28].d[  1] =        -0.000499841012;
  BAS[ATNO][ 28].a[  2] =        77.545085570000;     BAS[ATNO][ 28].d[  2] =        -0.002494819101;
  BAS[ATNO][ 28].a[  3] =        33.677854345000;     BAS[ATNO][ 28].d[  3] =        -0.008306413984;
  BAS[ATNO][ 28].a[  4] =        15.624928334000;     BAS[ATNO][ 28].d[  4] =        -0.019183149803;
  BAS[ATNO][ 28].a[  5] =         7.442786742300;     BAS[ATNO][ 28].d[  5] =        -0.029678424145;
  BAS[ATNO][ 28].a[  6] =         3.533607353500;     BAS[ATNO][ 28].d[  6] =        -0.030963447179;
  BAS[ATNO][ 28].a[  7] =         1.636372514200;     BAS[ATNO][ 28].d[  7] =         0.539576665272;
  BAS[ATNO][ 28].a[  8] =         0.678456847300;     BAS[ATNO][ 28].d[  8] =        -1.357139118643;
  BAS[ATNO][ 28].a[  9] =         0.270000000000;     BAS[ATNO][ 28].d[  9] =         1.544285156795;

  // Basis function  30 L = f
  InitBFNGauss(BAS[ATNO][ 29]);
  BAS[ATNO][ 29].l  = 3;
  BAS[ATNO][ 29].ng = 4;
  BAS[ATNO][ 29].a[  0] =        14.180116992000;     BAS[ATNO][ 29].d[  0] =         0.488927325068;
  BAS[ATNO][ 29].a[  1] =         4.539318368000;     BAS[ATNO][ 29].d[  1] =         0.659562635611;
  BAS[ATNO][ 29].a[  2] =         0.413000000000;     BAS[ATNO][ 29].d[  2] =        -0.000841745472;
  BAS[ATNO][ 29].a[  3] =         0.955700000000;     BAS[ATNO][ 29].d[  3] =         0.008561535341;

  // Basis function  31 L = f
  InitBFNGauss(BAS[ATNO][ 30]);
  BAS[ATNO][ 30].l  = 3;
  BAS[ATNO][ 30].ng = 4;
  BAS[ATNO][ 30].a[  0] =        14.180116992000;     BAS[ATNO][ 30].d[  0] =        -0.571270217268;
  BAS[ATNO][ 30].a[  1] =         4.539318368000;     BAS[ATNO][ 30].d[  1] =         0.304097680728;
  BAS[ATNO][ 30].a[  2] =         0.413000000000;     BAS[ATNO][ 30].d[  2] =        -0.252567632839;
  BAS[ATNO][ 30].a[  3] =         0.955700000000;     BAS[ATNO][ 30].d[  3] =         0.950020716564;

  // Basis function  32 L = f
  InitBFNGauss(BAS[ATNO][ 31]);
  BAS[ATNO][ 31].l  = 3;
  BAS[ATNO][ 31].ng = 4;
  BAS[ATNO][ 31].a[  0] =        14.180116992000;     BAS[ATNO][ 31].d[  0] =        -0.800916021673;
  BAS[ATNO][ 31].a[  1] =         4.539318368000;     BAS[ATNO][ 31].d[  1] =         0.859534568896;
  BAS[ATNO][ 31].a[  2] =         0.413000000000;     BAS[ATNO][ 31].d[  2] =        -0.320143038429;
  BAS[ATNO][ 31].a[  3] =         0.955700000000;     BAS[ATNO][ 31].d[  3] =        -0.488039243464;

  // Basis function  33 L = f
  InitBFNGauss(BAS[ATNO][ 32]);
  BAS[ATNO][ 32].l  = 3;
  BAS[ATNO][ 32].ng = 4;
  BAS[ATNO][ 32].a[  0] =        14.180116992000;     BAS[ATNO][ 32].d[  0] =        -0.394710362628;
  BAS[ATNO][ 32].a[  1] =         4.539318368000;     BAS[ATNO][ 32].d[  1] =         0.515158916103;
  BAS[ATNO][ 32].a[  2] =         0.413000000000;     BAS[ATNO][ 32].d[  2] =         1.330448359095;
  BAS[ATNO][ 32].a[  3] =         0.955700000000;     BAS[ATNO][ 32].d[  3] =        -0.995850897019;

  // Basis function  34 L = g
  InitBFNGauss(BAS[ATNO][ 33]);
  BAS[ATNO][ 33].l  = 4;
  BAS[ATNO][ 33].ng = 1;
  BAS[ATNO][ 33].a[  0] =         0.739500000000;     BAS[ATNO][ 33].d[  0] =         1.000000000000;

-------
TIMINGS
-------

Total SCF time: 0 days 0 hours 0 min 2 sec 

Total time                  ....       2.328 sec
Sum of individual times     ....       2.128 sec  ( 91.4%)

Fock matrix formation       ....       1.341 sec  ( 57.6%)
  XC integration            ....       0.058 sec  (  4.3% of F)
    Basis function eval.    ....       0.008 sec  ( 14.3% of XC)
    Density eval.           ....       0.005 sec  (  7.9% of XC)
    XC-Functional eval.     ....       0.002 sec  (  4.0% of XC)
    XC-Potential eval.      ....       0.009 sec  ( 15.4% of XC)
Diagonalization             ....       0.006 sec  (  0.3%)
Density matrix formation    ....       0.002 sec  (  0.1%)
Population analysis         ....       0.001 sec  (  0.1%)
Initial guess               ....       0.073 sec  (  3.1%)
Orbital Transformation      ....       0.000 sec  (  0.0%)
Orbital Orthonormalization  ....       0.000 sec  (  0.0%)
DIIS solution               ....       0.001 sec  (  0.0%)
SOSCF solution              ....       0.002 sec  (  0.1%)
Grid generation             ....       0.701 sec  ( 30.1%)

-------------------------   --------------------
FINAL SINGLE POINT ENERGY     -1270.503201065852
-------------------------   --------------------


                            ***************************************
                            *     ORCA property calculations      *
                            ***************************************

                                    ---------------------
                                    Active property flags
                                    ---------------------
   (+) Dipole Moment


------------------------------------------------------------------------------
                       ORCA ELECTRIC PROPERTIES CALCULATION
------------------------------------------------------------------------------

Dipole Moment Calculation                       ... on
Quadrupole Moment Calculation                   ... off
Polarizability Calculation                      ... off
GBWName                                         ... Kr_zora-def2-qzvpp_.gbw
Electron density file                           ... Kr_zora-def2-qzvpp_.scfp
The origin for moment calculation is the CENTER OF MASS  = ( 0.000000,  0.000000  0.000000)

-------------
DIPOLE MOMENT
-------------
                                X             Y             Z
Electronic contribution:     -0.00000      -0.00000      -0.00000
Nuclear contribution   :      0.00000       0.00000       0.00000
                        -----------------------------------------
Total Dipole Moment    :     -0.00000      -0.00000      -0.00000
                        -----------------------------------------
Magnitude (a.u.)       :      0.00000
Magnitude (Debye)      :      0.00000



--------------------
Rotational spectrum 
--------------------
 
Rotational constants in cm-1:     0.000000     0.000000     0.000000 
Rotational constants in MHz :     0.000000     0.000000     0.000000 

 Dipole components along the rotational axes: 
x,y,z [a.u.] :    -0.000000    -0.000000    -0.000000 
x,y,z [Debye]:    -0.000000    -0.000000    -0.000000 

 

Timings for individual modules:

Sum of individual times         ...        3.139 sec (=   0.052 min)
GTO integral calculation        ...        0.565 sec (=   0.009 min)  18.0 %
SCF iterations                  ...        2.573 sec (=   0.043 min)  82.0 %
                             ****ORCA TERMINATED NORMALLY****
TOTAL RUN TIME: 0 days 0 hours 0 minutes 3 seconds 462 msec
