
                                 *****************
                                 * O   R   C   A *
                                 *****************

           --- An Ab Initio, DFT and Semiempirical electronic structure package ---

                  #######################################################
                  #                        -***-                        #
                  #          Department of theory and spectroscopy      #
                  #               Directorship: Frank Neese             #
                  #        Max Planck Institute fuer Kohlenforschung    #
                  #                Kaiser Wilhelm Platz 1               #
                  #                 D-45470 Muelheim/Ruhr               #
                  #                      Germany                        #
                  #                                                     #
                  #                  All rights reserved                #
                  #                        -***-                        #
                  #######################################################


                         Program Version 4.2.1 -  RELEASE  -


 With contributions from (in alphabetic order):
   Daniel Aravena         : Magnetic Suceptibility
   Michael Atanasov       : Ab Initio Ligand Field Theory (pilot matlab implementation)
   Alexander A. Auer      : GIAO ZORA, VPT2
   Ute Becker             : Parallelization
   Giovanni Bistoni       : ED, misc. LED, open-shell LED, HFLD
   Martin Brehm           : Molecular dynamics
   Dmytro Bykov           : SCF Hessian
   Vijay G. Chilkuri      : MRCI spin determinant printing, contributions to CSF-ICE
   Dipayan Datta          : RHF DLPNO-CCSD density
   Achintya Kumar Dutta   : EOM-CC, STEOM-CC
   Dmitry Ganyushin       : Spin-Orbit,Spin-Spin,Magnetic field MRCI
   Miquel Garcia          : C-PCM Hessian, Gaussian charge scheme
   Yang Guo               : DLPNO-NEVPT2, CIM, IAO-localization
   Andreas Hansen         : Spin unrestricted coupled pair/coupled cluster methods
   Benjamin Helmich-Paris : CASSCF linear response (MC-RPA)
   Lee Huntington         : MR-EOM, pCC
   Robert Izsak           : Overlap fitted RIJCOSX, COSX-SCS-MP3, EOM
   Christian Kollmar      : KDIIS, OOCD, Brueckner-CCSD(T), CCSD density
   Simone Kossmann        : Meta GGA functionals, TD-DFT gradient, OOMP2, MP2 Hessian
   Martin Krupicka        : AUTO-CI
   Lucas Lang             : DCDCAS
   Dagmar Lenk            : GEPOL surface, SMD
   Dimitrios Liakos       : Extrapolation schemes; Compound Job, initial MDCI parallelization
   Dimitrios Manganas     : Further ROCIS development; embedding schemes
   Dimitrios Pantazis     : SARC Basis sets
   Taras Petrenko         : DFT Hessian,TD-DFT gradient, ASA, ECA, R-Raman, ABS, FL, XAS/XES, NRVS
   Peter Pinski           : DLPNO-MP2, DLPNO-MP2 Gradient
   Christoph Reimann      : Effective Core Potentials
   Marius Retegan         : Local ZFS, SOC
   Christoph Riplinger    : Optimizer, TS searches, QM/MM, DLPNO-CCSD(T), (RO)-DLPNO pert. Triples
   Tobias Risthaus        : Range-separated hybrids, TD-DFT gradient, RPA, STAB
   Michael Roemelt        : Original ROCIS implementation
   Masaaki Saitow         : Open-shell DLPNO-CCSD energy and density
   Barbara Sandhoefer     : DKH picture change effects
   Avijit Sen             : IP-ROCIS
   Kantharuban Sivalingam : CASSCF convergence, NEVPT2, FIC-MRCI
   Bernardo de Souza      : ESD, SOC TD-DFT
   Georgi Stoychev        : AutoAux, RI-MP2 NMR
   Willem Van den Heuvel  : Paramagnetic NMR
   Boris Wezisla          : Elementary symmetry handling
   Frank Wennmohs         : Technical directorship


 We gratefully acknowledge several colleagues who have allowed us to
 interface, adapt or use parts of their codes:
   Stefan Grimme, W. Hujo, H. Kruse,             : VdW corrections, initial TS optimization,
                  C. Bannwarth                     DFT functionals, gCP, sTDA/sTD-DF
   Ed Valeev, F. Pavosevic, A. Kumar             : LibInt (2-el integral package), F12 methods
   Garnet Chan, S. Sharma, J. Yang, R. Olivares  : DMRG
   Ulf Ekstrom                                   : XCFun DFT Library
   Mihaly Kallay                                 : mrcc  (arbitrary order and MRCC methods)
   Andreas Klamt, Michael Diedenhofen            : otool_cosmo (COSMO solvation model)
   Jiri Pittner, Ondrej Demel                    : Mk-CCSD
   Frank Weinhold                                : gennbo (NPA and NBO analysis)
   Christopher J. Cramer and Donald G. Truhlar   : smd solvation model
   Lars Goerigk                                  : TD-DFT with DH, B97 family of functionals
   V. Asgeirsson, H. Jonsson                     : NEB implementation
   FAccTs GmbH                                   : IRC, NEB, NEB-TS, Multilevel, MM, QM/MM, CI optimization
   S Lehtola, MJT Oliveira, MAL Marques          : LibXC Library


 Your calculation uses the libint2 library for the computation of 2-el integrals
 For citations please refer to: http://libint.valeyev.net

 Your ORCA version has been built with support for libXC version: 4.2.3
 For citations please refer to: https://tddft.org/programs/libxc/

 This ORCA versions uses:
   CBLAS   interface :  Fast vector & matrix operations
   LAPACKE interface :  Fast linear algebra routines
   SCALAPACK package :  Parallel linear algebra routines


----- Orbital basis set information -----
Your calculation utilizes the basis: ANO-RCC-QZP
   H, He:       P.-O. Widmark, P.-A. Malmqvist, and B. O. Roos, Theor. Chim. Acta 77, 291 (1990).
   s block:     B. O. Roos, V. Veryazov and P.-O. Widmark, Theor. Chem. Acc. 111, 345 (2004).
   p block:     B. O. Roos, R. Lindh, P.-A. Malmqvist, V. Veryazov, and P.-O. Widmark, J. Phys. Chem. A 108, 2851 (2004).
   d block:     B. O. Roos, R. Lindh, P.-A. Malmqvist, V. Veryazov, and P.-O. Widmark, J. Phys. Chem. A 109, 6575 (2005).
   actinides:   B. O. Roos, R. Lindh, P.-A. Malmqvist, V. Veryazov, and P.-O. Widmark, Chem. Phys. Letters 409, 295 (2005).
   lanthanides: B. O. Roos, R. Lindh, P.-A. Malmqvist, V. Veryazov, P.-O. Widmark and A. C. Borin, J. Phys. Chem. A 112, 11431 (2008).

================================================================================
                                        WARNINGS
                       Please study these warnings very carefully!
================================================================================


INFO   : the flag for use of LIBINT has been found!

================================================================================
                                       INPUT FILE
================================================================================
NAME = Ne_ano-rcc-qzp_.inp
|  1> ! LDA ano-rcc-qzp nori grid5 finalgrid6 verytightscf
|  2> %Pal NProcs 18 End
|  3> 
|  4> *xyz 8 1
|  5> Ne 0.0 0.0 0.0
|  6> **                         ****END OF INPUT****
================================================================================

                       ****************************
                       * Single Point Calculation *
                       ****************************

---------------------------------
CARTESIAN COORDINATES (ANGSTROEM)
---------------------------------
  Ne     0.000000    0.000000    0.000000

----------------------------
CARTESIAN COORDINATES (A.U.)
----------------------------
  NO LB      ZA    FRAG     MASS         X           Y           Z
   0 Ne   10.0000    0    20.179    0.000000    0.000000    0.000000

--------------------------------
INTERNAL COORDINATES (ANGSTROEM)
--------------------------------
 Ne     0   0   0     0.000000000000     0.00000000     0.00000000

---------------------------
INTERNAL COORDINATES (A.U.)
---------------------------
 Ne     0   0   0     0.000000000000     0.00000000     0.00000000

---------------------
BASIS SET INFORMATION
---------------------
There are 1 groups of distinct atoms

 Group   1 Type Ne  : 70s36p12d6f contracted to 5s4p3d2f pattern {1414141414/9999/444/33}

Atom   0Ne   basis set group =>   1


           ************************************************************
           *        Program running with 18 parallel MPI-processes    *
           *              working on a common directory               *
           ************************************************************


------------------------------------------------------------------------------
                       ORCA GTO INTEGRAL CALCULATION
                     -- ANO INTEGRAL GENERATION BRANCH --
------------------------------------------------------------------------------


Gathering ANO information                         ... done
Calculation Information:
Number of atoms                                   ... 1
Number of basis functions                         ... 46
Highest angular momentum                          ... 3
Number of primitive shells                        ... 30
Total number of shells                            ... 14
Maximum number of shells                          ... 14

Getting memory                                    ... done
Making prescreening integrals                     ... done
Gathering atom contracted prescreening            ... done
Making one-electron integrals                     ... done

Timings:

Total time                                        ...    0.1 sec
Prescreening matrix                               ...    0.0 sec
One-electron matrix                               ...    0.0 sec
Two-index integrals + Cholesky                    ...    0.0 sec


           ************************************************************
           *        Program running with 18 parallel MPI-processes    *
           *              working on a common directory               *
           ************************************************************
-------------------------------------------------------------------------------
                                 ORCA SCF
-------------------------------------------------------------------------------

------------
SCF SETTINGS
------------
Hamiltonian:
 Density Functional     Method          .... DFT(GTOs)
 Exchange Functional    Exchange        .... Slater
   X-Alpha parameter    XAlpha          ....  0.666667
 Correlation Functional Correlation     .... VWN-5
 Gradients option       PostSCFGGA      .... off
   Density functional embedding theory  .... OFF


General Settings:
 Integral files         IntName         .... Ne_ano-rcc-qzp_
 Hartree-Fock type      HFTyp           .... RHF
 Total Charge           Charge          ....    8
 Multiplicity           Mult            ....    1
 Number of Electrons    NEL             ....    2
 Basis Dimension        Dim             ....   46
 Nuclear Repulsion      ENuc            ....      0.0000000000 Eh

Convergence Acceleration:
 DIIS                   CNVDIIS         .... on
   Start iteration      DIISMaxIt       ....    12
   Startup error        DIISStart       ....  0.200000
   # of expansion vecs  DIISMaxEq       ....     5
   Bias factor          DIISBfac        ....   1.050
   Max. coefficient     DIISMaxC        ....  10.000
 Newton-Raphson         CNVNR           .... off
 SOSCF                  CNVSOSCF        .... on
   Start iteration      SOSCFMaxIt      ....   150
   Startup grad/error   SOSCFStart      ....  0.003300
 Level Shifting         CNVShift        .... on
   Level shift para.    LevelShift      ....    0.2500
   Turn off err/grad.   ShiftErr        ....    0.0010
 Zerner damping         CNVZerner       .... off
 Static damping         CNVDamp         .... on
   Fraction old density DampFac         ....    0.7000
   Max. Damping (<1)    DampMax         ....    0.9800
   Min. Damping (>=0)   DampMin         ....    0.0000
   Turn off err/grad.   DampErr         ....    0.1000
 Fernandez-Rico         CNVRico         .... off

SCF Procedure:
 Maximum # iterations   MaxIter         ....   125
 SCF integral mode      SCFMode         .... Direct
   Integral package                     .... LIBINT
 Reset frequency        DirectResetFreq ....    20
 Integral Threshold     Thresh          ....  1.000e-12 Eh
 Primitive CutOff       TCut            ....  1.000e-14 Eh

Convergence Tolerance:
 Convergence Check Mode ConvCheckMode   .... Total+1el-Energy
 Convergence forced     ConvForced      .... 0
 Energy Change          TolE            ....  1.000e-09 Eh
 1-El. energy change                    ....  1.000e-06 Eh
 Orbital Gradient       TolG            ....  2.000e-06
 Orbital Rotation angle TolX            ....  2.000e-06
 DIIS Error             TolErr          ....  1.000e-08


Diagonalization of the overlap matrix:
Smallest eigenvalue                        ... 1.000e+00
Time for diagonalization                   ...    0.001 sec
Threshold for overlap eigenvalues          ... 1.000e-08
Number of eigenvalues below threshold      ... 0
Time for construction of square roots      ...    0.001 sec
Total time needed                          ...    0.002 sec

-------------------
DFT GRID GENERATION
-------------------

General Integration Accuracy     IntAcc      ...  5.010
Radial Grid Type                 RadialGrid  ... Gauss-Chebyshev
Angular Grid (max. acc.)         AngularGrid ... Lebedev-434
Angular grid pruning method      GridPruning ... 3 (G Style)
Weight generation scheme         WeightScheme... Becke
Basis function cutoff            BFCut       ...    1.0000e-12
Integration weight cutoff        WCut        ...    1.0000e-14
Grids for H and He will be reduced by one unit

# of grid points (after initial pruning)     ...  10818 (   0.0 sec)
# of grid points (after weights+screening)   ...  10818 (   0.0 sec)
Grid point division into batches done        ...    0.1 sec
Reduced shell lists constructed in    0.1 sec

Total number of grid points                  ...    10818
Total number of batches                      ...      170
Average number of points per batch           ...       63
Average number of grid points per atom       ...    10818
Average number of shells per batch           ...     5.82 (41.56%)
Average number of basis functions per batch  ...    13.09 (28.46%)
Average number of large shells per batch     ...     3.45 (59.38%)
Average number of large basis fcns per batch ...     8.91 (68.06%)
Maximum spatial batch extension              ...  16.29, 16.29, 16.29 au
Average spatial batch extension              ...   0.85,  0.86,  0.85 au

Time for grid setup =    0.127 sec

------------------------------
INITIAL GUESS: MODEL POTENTIAL
------------------------------
Loading Hartree-Fock densities                     ... done
Calculating cut-offs                               ... done
Setting up the integral package                    ... done
Initializing the effective Hamiltonian             ... done
Starting the Coulomb interaction                   ... done (   0.0 sec)
Reading the grid                                   ... done
Mapping shells                                     ... done
Starting the XC term evaluation                    ... done (   0.0 sec)
  promolecular density results
     # of electrons  =     10.000000232
     EX              =    -11.033501327
     EC              =     -0.746381123
     EX+EC           =    -11.779882450
Transforming the Hamiltonian                       ... done (   0.0 sec)
Diagonalizing the Hamiltonian                      ... done (   0.0 sec)
Back transforming the eigenvectors                 ... done (   0.0 sec)
Now organizing SCF variables                       ... done
                      ------------------
                      INITIAL GUESS DONE (   0.2 sec)
                      ------------------
--------------
SCF ITERATIONS
--------------
ITER       Energy         Delta-E        Max-DP      RMS-DP      [F,P]     Damp
               ***  Starting incremental Fock matrix formation  ***
  0    -93.1798783022   0.000000000000 0.00523789  0.00016822  0.5515131 0.7000
                      *** Initiating the SOSCF procedure ***
                      *** Re-Reading the Fockian *** 
                      *** Removing any level shift *** 
ITER      Energy       Delta-E        Grad      Rot      Max-DP    RMS-DP
  1    -93.18356780  -0.0036894978  0.003107  0.003107  0.012213  0.000391
               *** Restarting incremental Fock matrix formation ***
  2    -93.19186248  -0.0082946828  0.010239  0.000220  0.000345  0.000014
  3    -93.19187081  -0.0000083271  0.000393  0.000008  0.000013  0.000001
                  ***Gradient check signals convergence***
              ***Rediagonalizing the Fockian in SOSCF/NRSCF***

               *****************************************************
               *                     SUCCESS                       *
               *           SCF CONVERGED AFTER   4 CYCLES          *
               *****************************************************

Setting up the final grid:

General Integration Accuracy     IntAcc      ...  5.340
Radial Grid Type                 RadialGrid  ... Gauss-Chebyshev
Angular Grid (max. acc.)         AngularGrid ... Lebedev-590
Angular grid pruning method      GridPruning ... 3 (G Style)
Weight generation scheme         WeightScheme... Becke
Basis function cutoff            BFCut       ...    1.0000e-12
Integration weight cutoff        WCut        ...    1.0000e-14
Grids for H and He will be reduced by one unit

# of grid points (after initial pruning)     ...  16840 (   0.0 sec)
# of grid points (after weights+screening)   ...  16840 (   0.0 sec)
Grid point division into batches done        ...    0.2 sec
Reduced shell lists constructed in    0.2 sec

Total number of grid points                  ...    16840
Total number of batches                      ...      264
Average number of points per batch           ...       63
Average number of grid points per atom       ...    16840
Average number of shells per batch           ...     1.69 (12.05%)
Average number of basis functions per batch  ...     5.06 (11.01%)
Average number of large shells per batch     ...     1.69 (100.00%)
Average number of large basis fcns per batch ...     5.06 (100.00%)
Maximum spatial batch extension              ...  16.63, 16.63, 16.63 au
Average spatial batch extension              ...   0.74,  0.74,  0.69 au

Final grid set up in    0.2 sec
Final integration                            ... done (   0.0 sec)
Change in XC energy                          ...    -0.000000700
Integrated number of electrons               ...     2.000000061
Previous integrated no of electrons          ...     1.999999970

----------------
TOTAL SCF ENERGY
----------------

Total Energy       :          -93.19187152 Eh           -2535.87975 eV

Components:
Nuclear Repulsion  :            0.00000000 Eh               0.00000 eV
Electronic Energy  :          -93.19187152 Eh           -2535.87975 eV
One Electron Energy:          -99.83902066 Eh           -2716.75787 eV
Two Electron Energy:            6.64714914 Eh             180.87812 eV

Virial components:
Potential Energy   :         -186.94079709 Eh           -5086.91770 eV
Kinetic Energy     :           93.74892557 Eh            2551.03796 eV
Virial Ratio       :            1.99405802


DFT components:
N(Alpha)           :        1.000000030733 electrons
N(Beta)            :        1.000000030733 electrons
N(Total)           :        2.000000061466 electrons
E(X)               :       -5.153692962596 Eh       
E(C)               :       -0.202720611841 Eh       
E(XC)              :       -5.356413574437 Eh       
DFET-embed. en.    :        0.000000000000 Eh       

---------------
SCF CONVERGENCE
---------------

  Last Energy change         ...   -1.2541e-08  Tolerance :   1.0000e-09
  Last MAX-Density change    ...    5.8754e-10  Tolerance :   1.0000e-08
  Last RMS-Density change    ...    1.7097e-11  Tolerance :   1.0000e-09
  Last Orbital Gradient      ...    1.8124e-08  Tolerance :   2.0000e-06
  Last Orbital Rotation      ...    3.6047e-10  Tolerance :   2.0000e-06

             **** THE GBW FILE WAS UPDATED (Ne_ano-rcc-qzp_.gbw) ****
             **** DENSITY FILE WAS UPDATED (Ne_ano-rcc-qzp_.scfp) ****
             **** ENERGY FILE WAS UPDATED (Ne_ano-rcc-qzp_.en.tmp) ****
             **** THE GBW FILE WAS UPDATED (Ne_ano-rcc-qzp_.gbw) ****
             **** DENSITY FILE WAS UPDATED (Ne_ano-rcc-qzp_.scfp) ****
----------------
ORBITAL ENERGIES
----------------

  NO   OCC          E(Eh)            E(eV) 
   0   2.0000     -41.462309     -1128.2468 
   1   0.0000      -9.047690      -246.2001 
   2   0.0000      -8.613746      -234.3919 
   3   0.0000      -8.613746      -234.3919 
   4   0.0000      -8.613746      -234.3919 
   5   0.0000      -3.830148      -104.2236 
   6   0.0000      -3.693352      -100.5012 
   7   0.0000      -3.693352      -100.5012 
   8   0.0000      -3.693352      -100.5012 
   9   0.0000      -3.598948       -97.9324 
  10   0.0000      -3.598948       -97.9324 
  11   0.0000      -3.598948       -97.9324 
  12   0.0000      -3.598948       -97.9324 
  13   0.0000      -3.598948       -97.9324 
  14   0.0000      -1.954553       -53.1861 
  15   0.0000      -1.954553       -53.1861 
  16   0.0000      -1.954552       -53.1861 
  17   0.0000      -1.611973       -43.8640 
  18   0.0000      -1.073403       -29.2088 
  19   0.0000      -1.073403       -29.2088 
  20   0.0000      -1.073403       -29.2088 
  21   0.0000      -1.073403       -29.2088 
  22   0.0000      -1.073403       -29.2088 
  23   0.0000      -1.073403       -29.2088 
  24   0.0000      -1.073403       -29.2088 
  25   0.0000      -0.962445       -26.1895 
  26   0.0000      -0.962445       -26.1895 
  27   0.0000      -0.962445       -26.1895 
  28   0.0000      -0.962445       -26.1895 
  29   0.0000      -0.962445       -26.1895 
  30   0.0000       4.047880       110.1484 
  31   0.0000       4.047880       110.1484 
  32   0.0000       4.047880       110.1484 
  33   0.0000       7.253100       197.3669 
  34   0.0000       7.253100       197.3669 
  35   0.0000       7.253100       197.3669 
  36   0.0000       7.253100       197.3669 
  37   0.0000       7.253100       197.3669 
  38   0.0000       7.253100       197.3669 
  39   0.0000       7.253100       197.3669 
  40   0.0000       7.512028       204.4127 
  41   0.0000       8.440785       229.6854 
  42   0.0000       8.440785       229.6854 
  43   0.0000       8.440785       229.6854 
  44   0.0000       8.440785       229.6854 
  45   0.0000       8.440785       229.6854 

                    ********************************
                    * MULLIKEN POPULATION ANALYSIS *
                    ********************************

-----------------------
MULLIKEN ATOMIC CHARGES
-----------------------
   0 Ne:    8.000000
Sum of atomic charges:    8.0000000

--------------------------------
MULLIKEN REDUCED ORBITAL CHARGES
--------------------------------
  0 Nes       :     2.000000  s :     2.000000
      pz      :     0.000000  p :     0.000000
      px      :     0.000000
      py      :     0.000000
      dz2     :     0.000000  d :     0.000000
      dxz     :     0.000000
      dyz     :     0.000000
      dx2y2   :     0.000000
      dxy     :     0.000000
      f0      :     0.000000  f :     0.000000
      f+1     :     0.000000
      f-1     :     0.000000
      f+2     :     0.000000
      f-2     :     0.000000
      f+3     :     0.000000
      f-3     :     0.000000


                     *******************************
                     * LOEWDIN POPULATION ANALYSIS *
                     *******************************

----------------------
LOEWDIN ATOMIC CHARGES
----------------------
   0 Ne:    8.000000

-------------------------------
LOEWDIN REDUCED ORBITAL CHARGES
-------------------------------
  0 Nes       :     2.000000  s :     2.000000
      pz      :     0.000000  p :     0.000000
      px      :     0.000000
      py      :     0.000000
      dz2     :     0.000000  d :     0.000000
      dxz     :     0.000000
      dyz     :     0.000000
      dx2y2   :     0.000000
      dxy     :     0.000000
      f0      :     0.000000  f :     0.000000
      f+1     :     0.000000
      f-1     :     0.000000
      f+2     :     0.000000
      f-2     :     0.000000
      f+3     :     0.000000
      f-3     :     0.000000


                      *****************************
                      * MAYER POPULATION ANALYSIS *
                      *****************************

  NA   - Mulliken gross atomic population
  ZA   - Total nuclear charge
  QA   - Mulliken gross atomic charge
  VA   - Mayer's total valence
  BVA  - Mayer's bonded valence
  FA   - Mayer's free valence

  ATOM       NA         ZA         QA         VA         BVA        FA
  0 Ne     2.0000    10.0000     8.0000     0.0000     0.0000     0.0000

  Mayer bond orders larger than 0.100000


--------------------------
ATOM BASIS FOR ELEMENT Ne
--------------------------
 NewGTO Ne
 S 69
    1     166165.079999999987         0.000153217868
    2      23107.524000000001         0.000635241161
    3       5060.153900000000         0.002574944169
    4       1384.612300000000         0.010128709058
    5        436.512580000000         0.035833711370
    6        153.471480000000         0.105524801610
    7         59.389087000000         0.238259454591
    8         24.861967000000         0.369251471821
    9         11.015704000000         0.305195353170
   10          4.965175000000         0.083723964971
   11          1.936503000000         0.003641489328
   12          0.765728000000         0.000957466677
   13          0.295538000000         0.000034219524
   14          0.103438000000         0.000025849640
   15     166165.079999999987         0.000000174712
   16      23107.524000000001         0.000000724278
   17       5060.153900000000         0.000002947305
   18       1384.612300000000         0.000011616614
   19        436.512580000000         0.000041890806
   20        153.471480000000         0.000127427390
   21         59.389087000000         0.000317246018
   22         24.861967000000         0.000592780876
   23         11.015704000000         0.000761467129
   24          4.965175000000         0.000035844760
   25          1.936503000000        -0.001878151943
   26          0.765728000000        -0.002661675198
   27          0.295538000000        -0.000888277616
   28          0.103438000000         0.000000906845
   29     166165.079999999987         0.000000083930
   30      23107.524000000001         0.000000345200
   31       5060.153900000000         0.000001429829
   32       1384.612300000000         0.000005493719
   33        436.512580000000         0.000020626000
   34        153.471480000000         0.000060487243
   35         59.389087000000         0.000165045748
   36         24.861967000000         0.000290999202
   37         11.015704000000         0.000534026208
   38          4.965175000000        -0.000452556008
   39          1.936503000000        -0.002326175621
   40          0.765728000000         0.000849906545
   41          0.295538000000         0.001494250122
   42          0.103438000000         0.000018892541
   43     166165.079999999987        -0.000000000159
   44      23107.524000000001        -0.000000000622
   45       5060.153900000000        -0.000000002879
   46       1384.612300000000        -0.000000009255
   47        436.512580000000        -0.000000044282
   48        153.471480000000        -0.000000096271
   49         59.389087000000        -0.000000410440
   50         24.861967000000        -0.000000371397
   51         11.015704000000        -0.000002053500
   52          4.965175000000         0.000005033588
   53          1.936503000000         0.000000246499
   54          0.765728000000        -0.000006400481
   55          0.295538000000         0.000004496274
   56     166165.079999999987        -0.000000084431
   57      23107.524000000001        -0.000000366573
   58       5060.153900000000        -0.000001364612
   59       1384.612300000000        -0.000006185972
   60        436.512580000000        -0.000019244060
   61        153.471480000000        -0.000077662410
   62         59.389087000000        -0.000159318389
   63         24.861967000000        -0.000544374447
   64         11.015704000000        -0.000546619324
   65          4.965175000000         0.004293711445
   66          1.936503000000        -0.006167041538
   67          0.765728000000         0.004544274003
   68          0.295538000000        -0.001195013355
   69          0.103438000000        -0.000543653114
 S 68
    1     166165.079999999987        -0.000000785413
    2      23107.524000000001        -0.000003256320
    3       5060.153900000000        -0.000013199464
    4       1384.612300000000        -0.000051920945
    5        436.512580000000        -0.000183687789
    6        153.471480000000        -0.000540932455
    7         59.389087000000        -0.001221345784
    8         24.861967000000        -0.001892826160
    9         11.015704000000        -0.001564467016
   10          4.965175000000        -0.000429178820
   11          1.936503000000        -0.000018666699
   12          0.765728000000        -0.000004908086
   13     166165.079999999987         0.000034608013
   14      23107.524000000001         0.000143469565
   15       5060.153900000000         0.000583820474
   16       1384.612300000000         0.002301091306
   17        436.512580000000         0.008297992001
   18        153.471480000000         0.025241611970
   19         59.389087000000         0.062842069660
   20         24.861967000000         0.117421732476
   21         11.015704000000         0.150836157521
   22          4.965175000000         0.007100353647
   23          1.936503000000        -0.372036049158
   24          0.765728000000        -0.527241221601
   25          0.295538000000        -0.175955569433
   26          0.103438000000         0.000179633420
   27     166165.079999999987         0.000014361723
   28      23107.524000000001         0.000059068834
   29       5060.153900000000         0.000244664797
   30       1384.612300000000         0.000940056358
   31        436.512580000000         0.003529413145
   32        153.471480000000         0.010350260430
   33         59.389087000000         0.028241764633
   34         24.861967000000         0.049794260386
   35         11.015704000000         0.091379769625
   36          4.965175000000        -0.077439015506
   37          1.936503000000        -0.398042997289
   38          0.765728000000         0.145431559581
   39          0.295538000000         0.255688260113
   40          0.103438000000         0.003232792794
   41     166165.079999999987         0.000001930907
   42      23107.524000000001         0.000007538068
   43       5060.153900000000         0.000034889982
   44       1384.612300000000         0.000112150006
   45        436.512580000000         0.000536625904
   46        153.471480000000         0.001166652476
   47         59.389087000000         0.004973874460
   48         24.861967000000         0.004500739164
   49         11.015704000000         0.024885140808
   50          4.965175000000        -0.060999066180
   51          1.936503000000        -0.002987179175
   52          0.765728000000         0.077563624384
   53          0.295538000000        -0.054487668063
   54          0.103438000000        -0.003067603891
   55     166165.079999999987        -0.000000284573
   56      23107.524000000001        -0.000001235529
   57       5060.153900000000        -0.000004599409
   58       1384.612300000000        -0.000020849746
   59        436.512580000000        -0.000064861879
   60        153.471480000000        -0.000261760242
   61         59.389087000000        -0.000536980761
   62         24.861967000000        -0.001834807689
   63         11.015704000000        -0.001842374019
   64          4.965175000000         0.014471904063
   65          1.936503000000        -0.020785941167
   66          0.765728000000         0.015316422227
   67          0.295538000000        -0.004027778495
   68          0.103438000000        -0.001832376444
 S 68
    1     166165.079999999987         0.000000039772
    2      23107.524000000001         0.000000164895
    3       5060.153900000000         0.000000668401
    4       1384.612300000000         0.000002629198
    5        436.512580000000         0.000009301673
    6        153.471480000000         0.000027392004
    7         59.389087000000         0.000061847110
    8         24.861967000000         0.000095849864
    9         11.015704000000         0.000079222252
   10          4.965175000000         0.000021732969
   11          1.936503000000         0.000000945254
   12          0.765728000000         0.000000248538
   13     166165.079999999987         0.000011293517
   14      23107.524000000001         0.000046817944
   15       5060.153900000000         0.000190516187
   16       1384.612300000000         0.000750907445
   17        436.512580000000         0.002707856033
   18        153.471480000000         0.008237010984
   19         59.389087000000         0.020507042840
   20         24.861967000000         0.038317842033
   21         11.015704000000         0.049221859828
   22          4.965175000000         0.002317034706
   23          1.936503000000        -0.121405282153
   24          0.765728000000        -0.172052868038
   25          0.295538000000        -0.057418993675
   26          0.103438000000         0.000058619174
   27     166165.079999999987        -0.000043192465
   28      23107.524000000001        -0.000177647800
   29       5060.153900000000        -0.000735822253
   30       1384.612300000000        -0.002827192128
   31        436.512580000000        -0.010614607278
   32        153.471480000000        -0.031128106907
   33         59.389087000000        -0.084936284907
   34         24.861967000000        -0.149754788410
   35         11.015704000000        -0.274821996731
   36          4.965175000000         0.232895584587
   37          1.936503000000         1.197102725789
   38          0.765728000000        -0.437381181369
   39          0.295538000000        -0.768974998225
   40          0.103438000000        -0.009722530210
   41     166165.079999999987         0.000005826353
   42      23107.524000000001         0.000022745503
   43       5060.153900000000         0.000105277662
   44       1384.612300000000         0.000338403453
   45        436.512580000000         0.001619224699
   46        153.471480000000         0.003520278262
   47         59.389087000000         0.015008258670
   48         24.861967000000         0.013580611680
   49         11.015704000000         0.075088873533
   50          4.965175000000        -0.184059684506
   51          1.936503000000        -0.009013568420
   52          0.765728000000         0.234041881744
   53          0.295538000000        -0.164412074172
   54          0.103438000000        -0.009256243412
   55     166165.079999999987         0.000000297961
   56      23107.524000000001         0.000001293653
   57       5060.153900000000         0.000004815784
   58       1384.612300000000         0.000021830606
   59        436.512580000000         0.000067913254
   60        153.471480000000         0.000274074543
   61         59.389087000000         0.000562242591
   62         24.861967000000         0.001921124749
   63         11.015704000000         0.001929047032
   64          4.965175000000        -0.015152723219
   65          1.936503000000         0.021763799152
   66          0.765728000000        -0.016036971066
   67          0.295538000000         0.004217262114
   68          0.103438000000         0.001918579129
 S 68
    1     166165.079999999987         0.000000053883
    2      23107.524000000001         0.000000223400
    3       5060.153900000000         0.000000905550
    4       1384.612300000000         0.000003562039
    5        436.512580000000         0.000012601910
    6        153.471480000000         0.000037110699
    7         59.389087000000         0.000083790491
    8         24.861967000000         0.000129857436
    9         11.015704000000         0.000107330340
   10          4.965175000000         0.000029443835
   11          1.936503000000         0.000001280630
   12          0.765728000000         0.000000336719
   13     166165.079999999987         0.000002183104
   14      23107.524000000001         0.000009050186
   15       5060.153900000000         0.000036827907
   16       1384.612300000000         0.000145154854
   17        436.512580000000         0.000523444599
   18        153.471480000000         0.001592262978
   19         59.389087000000         0.003964132762
   20         24.861967000000         0.007407065668
   21         11.015704000000         0.009514876849
   22          4.965175000000         0.000447896523
   23          1.936503000000        -0.023468359638
   24          0.765728000000        -0.033258837772
   25          0.295538000000        -0.011099431340
   26          0.103438000000         0.000011331433
   27     166165.079999999987        -0.000003520867
   28      23107.524000000001        -0.000014481098
   29       5060.153900000000        -0.000059981119
   30       1384.612300000000        -0.000230460750
   31        436.512580000000        -0.000865257911
   32        153.471480000000        -0.002537431679
   33         59.389087000000        -0.006923646872
   34         24.861967000000        -0.012207377253
   35         11.015704000000        -0.022402327345
   36          4.965175000000         0.018984663474
   37          1.936503000000         0.097582753376
   38          0.765728000000        -0.035653464848
   39          0.295538000000        -0.062683590963
   40          0.103438000000        -0.000792539560
   41     166165.079999999987        -0.000051790633
   42      23107.524000000001        -0.000202185461
   43       5060.153900000000        -0.000935816331
   44       1384.612300000000        -0.003008078553
   45        436.512580000000        -0.014393337416
   46        153.471480000000        -0.031291860156
   47         59.389087000000        -0.133408866150
   48         24.861967000000        -0.120718468788
   49         11.015704000000        -0.667467272417
   50          4.965175000000         1.636112113548
   51          1.936503000000         0.080121882841
   52          0.765728000000        -2.080405379512
   53          0.295538000000         1.461463909857
   54          0.103438000000         0.082279028199
   55     166165.079999999987         0.000027495907
   56      23107.524000000001         0.000119378770
   57       5060.153900000000         0.000444402250
   58       1384.612300000000         0.002014535901
   59        436.512580000000         0.006267058826
   60        153.471480000000         0.025291694492
   61         59.389087000000         0.051883942582
   62         24.861967000000         0.177282062531
   63         11.015704000000         0.178013133507
   64          4.965175000000        -1.398298588401
   65          1.936503000000         2.008370983342
   66          0.765728000000        -1.479897288348
   67          0.295538000000         0.389170420078
   68          0.103438000000         0.177047151756
 S 68
    1     166165.079999999987        -0.000000179801
    2      23107.524000000001        -0.000000745453
    3       5060.153900000000        -0.000003021689
    4       1384.612300000000        -0.000011886008
    5        436.512580000000        -0.000042050747
    6        153.471480000000        -0.000123833021
    7         59.389087000000        -0.000279596717
    8         24.861967000000        -0.000433315436
    9         11.015704000000        -0.000358145783
   10          4.965175000000        -0.000098249808
   11          1.936503000000        -0.000004273276
   12          0.765728000000        -0.000001123584
   13     166165.079999999987         0.000000857833
   14      23107.524000000001         0.000003556196
   15       5060.153900000000         0.000014471222
   16       1384.612300000000         0.000057037402
   17        436.512580000000         0.000205683234
   18        153.471480000000         0.000625666593
   19         59.389087000000         0.001557673245
   20         24.861967000000         0.002910545308
   21         11.015704000000         0.003738792312
   22          4.965175000000         0.000175997241
   23          1.936503000000        -0.009221698187
   24          0.765728000000        -0.013068785749
   25          0.295538000000        -0.004361429919
   26          0.103438000000         0.000004452593
   27     166165.079999999987        -0.000001823307
   28      23107.524000000001        -0.000007499144
   29       5060.153900000000        -0.000031061669
   30       1384.612300000000        -0.000119345816
   31        436.512580000000        -0.000448080253
   32        153.471480000000        -0.001314027891
   33         59.389087000000        -0.003585462092
   34         24.861967000000        -0.006321681216
   35         11.015704000000        -0.011601212041
   36          4.965175000000         0.009831349355
   37          1.936503000000         0.050533955514
   38          0.765728000000        -0.018463412275
   39          0.295538000000        -0.032461164371
   40          0.103438000000        -0.000410422513
   41     166165.079999999987        -0.000022802236
   42      23107.524000000001        -0.000089017655
   43       5060.153900000000        -0.000412018625
   44       1384.612300000000        -0.001324388502
   45        436.512580000000        -0.006337058771
   46        153.471480000000        -0.013777093604
   47         59.389087000000        -0.058736886441
   48         24.861967000000        -0.053149593405
   49         11.015704000000        -0.293870643791
   50          4.965175000000         0.720342914166
   51          1.936503000000         0.035275840877
   52          0.765728000000        -0.915955123927
   53          0.295538000000         0.643449286303
   54          0.103438000000         0.036225582866
   55     166165.079999999987        -0.000062399313
   56      23107.524000000001        -0.000270918619
   57       5060.153900000000        -0.001008528098
   58       1384.612300000000        -0.004571795166
   59        436.512580000000        -0.014222486295
   60        153.471480000000        -0.057397064279
   61         59.389087000000        -0.117745609664
   62         24.861967000000        -0.402324563180
   63         11.015704000000        -0.403983658336
   64          4.965175000000         3.173303947077
   65          1.936503000000        -4.557804478599
   66          0.765728000000         3.358484336134
   67          0.295538000000        -0.883184779248
   68          0.103438000000        -0.401791455806
 P 36
    1        234.945000000000         0.001493199211
    2         55.077385000000         0.011514867607
    3         17.389549000000         0.051922926780
    4          6.389537000000         0.152432133790
    5          2.542082000000         0.280686898701
    6          1.033764000000         0.332881754098
    7          0.418788000000         0.237359986220
    8          0.164627000000         0.062485446639
    9          0.057619000000         0.000548513058
   10        234.945000000000         0.000946703235
   11         55.077385000000         0.007650453265
   12         17.389549000000         0.034333978194
   13          6.389537000000         0.119867646683
   14          2.542082000000         0.203439088433
   15          1.033764000000        -0.002746175217
   16          0.418788000000        -0.257215089009
   17          0.164627000000        -0.147001590396
   18          0.057619000000        -0.002873405200
   19        234.945000000000         0.000374974401
   20         55.077385000000         0.003599064505
   21         17.389549000000         0.014803476360
   22          6.389537000000         0.068932093873
   23          2.542082000000         0.024192562154
   24          1.033764000000        -0.138711519807
   25          0.418788000000         0.020256522811
   26          0.164627000000         0.083893106961
   27          0.057619000000         0.002666252032
   28        234.945000000000         0.000026208269
   29         55.077385000000         0.000195171443
   30         17.389549000000         0.001339812254
   31          6.389537000000         0.003797458195
   32          2.542082000000        -0.007048818389
   33          1.033764000000         0.002117164471
   34          0.418788000000         0.004068775188
   35          0.164627000000        -0.003982562900
   36          0.057619000000        -0.000036908461
 P 36
    1        234.945000000000        -0.000755292696
    2         55.077385000000        -0.005824470932
    3         17.389549000000        -0.026263747709
    4          6.389537000000        -0.077103494600
    5          2.542082000000        -0.141977549222
    6          1.033764000000        -0.168378844351
    7          0.418788000000        -0.120061852843
    8          0.164627000000        -0.031606500399
    9          0.057619000000        -0.000277449856
   10        234.945000000000         0.001870482138
   11         55.077385000000         0.015115651512
   12         17.389549000000         0.067836562283
   13          6.389537000000         0.236832709396
   14          2.542082000000         0.401951918167
   15          1.033764000000        -0.005425852056
   16          0.418788000000        -0.508201738442
   17          0.164627000000        -0.290443550886
   18          0.057619000000        -0.005677231160
   19        234.945000000000         0.000707342777
   20         55.077385000000         0.006789189533
   21         17.389549000000         0.027924925106
   22          6.389537000000         0.130031859543
   23          2.542082000000         0.045636272849
   24          1.033764000000        -0.261662106097
   25          0.418788000000         0.038211422009
   26          0.164627000000         0.158253958180
   27          0.057619000000         0.005029554308
   28        234.945000000000        -0.000364407237
   29         55.077385000000        -0.002713719294
   30         17.389549000000        -0.018629130938
   31          6.389537000000        -0.052800939634
   32          2.542082000000         0.098008777218
   33          1.033764000000        -0.029437657426
   34          0.418788000000        -0.056573408320
   35          0.164627000000         0.055374688138
   36          0.057619000000         0.000513185748
 P 35
    1        234.945000000000         0.000004598428
    2         55.077385000000         0.000035460970
    3         17.389549000000         0.000159900869
    4          6.389537000000         0.000469427134
    5          2.542082000000         0.000864398096
    6          1.033764000000         0.001025136392
    7          0.418788000000         0.000730969351
    8          0.164627000000         0.000192429007
    9        234.945000000000        -0.000575674103
   10         55.077385000000        -0.004652110245
   11         17.389549000000        -0.020877906992
   12          6.389537000000        -0.072889473066
   13          2.542082000000        -0.123707842502
   14          1.033764000000         0.001669902347
   15          0.418788000000         0.156408111957
   16          0.164627000000         0.089389161799
   17          0.057619000000         0.001747268731
   18        234.945000000000         0.002868656501
   19         55.077385000000         0.027533825648
   20         17.389549000000         0.113250634021
   21          6.389537000000         0.527349329679
   22          2.542082000000         0.185079702625
   23          1.033764000000        -1.061180980860
   24          0.418788000000         0.154967927503
   25          0.164627000000         0.641805162663
   26          0.057619000000         0.020397555664
   27        234.945000000000        -0.001507260253
   28         55.077385000000        -0.011224478595
   29         17.389549000000        -0.077053762323
   30          6.389537000000        -0.218395107453
   31          2.542082000000         0.405383646204
   32          1.033764000000        -0.121759961115
   33          0.418788000000        -0.233998782494
   34          0.164627000000         0.229040639237
   35          0.057619000000         0.002122637539
 P 36
    1        234.945000000000        -0.000051114441
    2         55.077385000000        -0.000394171128
    3         17.389549000000        -0.001777399388
    4          6.389537000000        -0.005217979767
    5          2.542082000000        -0.009608332061
    6          1.033764000000        -0.011395039973
    7          0.418788000000        -0.008125187090
    8          0.164627000000        -0.002138970230
    9          0.057619000000        -0.000018776422
   10        234.945000000000        -0.000035061669
   11         55.077385000000        -0.000283338698
   12         17.389549000000        -0.001271577558
   13          6.389537000000        -0.004439363496
   14          2.542082000000        -0.007534477300
   15          1.033764000000         0.000101706093
   16          0.418788000000         0.009526100733
   17          0.164627000000         0.005444283861
   18          0.057619000000         0.000106418125
   19        234.945000000000         0.000760097304
   20         55.077385000000         0.007295535960
   21         17.389549000000         0.030007601687
   22          6.389537000000         0.139729801707
   23          2.542082000000         0.049039884366
   24          1.033764000000        -0.281177200171
   25          0.418788000000         0.041061278667
   26          0.164627000000         0.170056740507
   27          0.057619000000         0.005404664893
   28        234.945000000000         0.006014684180
   29         55.077385000000         0.044790999898
   30         17.389549000000         0.307481103118
   31          6.389537000000         0.871500190661
   32          2.542082000000        -1.617673257786
   33          1.033764000000         0.485880066473
   34          0.418788000000         0.933766263979
   35          0.164627000000        -0.913980917851
   36          0.057619000000        -0.008470331783
 D 12
    1          6.420000000000        -0.145455247368
    2          2.247000000000        -0.525943843981
    3          0.786450000000        -0.421771460333
    4          0.275257500000        -0.043051723391
    5          6.420000000000         0.147412335238
    6          2.247000000000         0.153389149594
    7          0.786450000000        -0.244537530162
    8          0.275257500000        -0.051990306419
    9          6.420000000000        -0.061895216722
   10          2.247000000000         0.061865755696
   11          0.786450000000        -0.008080701844
   12          0.275257500000        -0.033727191203
 D 12
    1          6.420000000000        -0.044388870778
    2          2.247000000000        -0.160503342088
    3          0.786450000000        -0.128712845973
    4          0.275257500000        -0.013138181131
    5          6.420000000000        -0.425437186623
    6          2.247000000000        -0.442686483167
    7          0.786450000000         0.705743916802
    8          0.275257500000         0.150045853753
    9          6.420000000000         0.464602961493
   10          2.247000000000        -0.464381818719
   11          0.786450000000         0.060656028149
   12          0.275257500000         0.253165813869
 D 12
    1          6.420000000000         0.011987631522
    2          2.247000000000         0.043345435224
    3          0.786450000000         0.034760113123
    4          0.275257500000         0.003548089228
    5          6.420000000000         0.213321666162
    6          2.247000000000         0.221970765946
    7          0.786450000000        -0.353872376345
    8          0.275257500000        -0.075235622389
    9          6.420000000000         0.969350654031
   10          2.247000000000        -0.968889260303
   11          0.786450000000         0.126553133385
   12          0.275257500000         0.528206807944
 F 6
    1          4.190000000000        -0.331463452065
    2          1.676000000000        -0.536549384321
    3          0.670400000000        -0.177222023924
    4          4.190000000000         0.434711194555
    5          1.676000000000        -0.186610723774
    6          0.670400000000        -0.252093935546
 F 6
    1          4.190000000000         0.167284755684
    2          1.676000000000         0.270788625743
    3          0.670400000000         0.089441363111
    4          4.190000000000         0.861350873340
    5          1.676000000000        -0.369756546209
    6          0.670400000000        -0.499507107860
 end
  // -----------------------------------------------
  // The basis set
  // -----------------------------------------------
  BAS[ATNO] = new BFNGauss[NSH];
  // Basis function   1 L = s
  InitBFNGauss(BAS[ATNO][  0]);
  BAS[ATNO][  0].l  = 0;
  BAS[ATNO][  0].ng = 69;
  BAS[ATNO][  0].a[  0] =    166165.079999999987;     BAS[ATNO][  0].d[  0] =         0.000153217868;
  BAS[ATNO][  0].a[  1] =     23107.524000000001;     BAS[ATNO][  0].d[  1] =         0.000635241161;
  BAS[ATNO][  0].a[  2] =      5060.153900000000;     BAS[ATNO][  0].d[  2] =         0.002574944169;
  BAS[ATNO][  0].a[  3] =      1384.612300000000;     BAS[ATNO][  0].d[  3] =         0.010128709058;
  BAS[ATNO][  0].a[  4] =       436.512580000000;     BAS[ATNO][  0].d[  4] =         0.035833711370;
  BAS[ATNO][  0].a[  5] =       153.471480000000;     BAS[ATNO][  0].d[  5] =         0.105524801610;
  BAS[ATNO][  0].a[  6] =        59.389087000000;     BAS[ATNO][  0].d[  6] =         0.238259454591;
  BAS[ATNO][  0].a[  7] =        24.861967000000;     BAS[ATNO][  0].d[  7] =         0.369251471821;
  BAS[ATNO][  0].a[  8] =        11.015704000000;     BAS[ATNO][  0].d[  8] =         0.305195353170;
  BAS[ATNO][  0].a[  9] =         4.965175000000;     BAS[ATNO][  0].d[  9] =         0.083723964971;
  BAS[ATNO][  0].a[ 10] =         1.936503000000;     BAS[ATNO][  0].d[ 10] =         0.003641489328;
  BAS[ATNO][  0].a[ 11] =         0.765728000000;     BAS[ATNO][  0].d[ 11] =         0.000957466677;
  BAS[ATNO][  0].a[ 12] =         0.295538000000;     BAS[ATNO][  0].d[ 12] =         0.000034219524;
  BAS[ATNO][  0].a[ 13] =         0.103438000000;     BAS[ATNO][  0].d[ 13] =         0.000025849640;
  BAS[ATNO][  0].a[ 14] =    166165.079999999987;     BAS[ATNO][  0].d[ 14] =         0.000000174712;
  BAS[ATNO][  0].a[ 15] =     23107.524000000001;     BAS[ATNO][  0].d[ 15] =         0.000000724278;
  BAS[ATNO][  0].a[ 16] =      5060.153900000000;     BAS[ATNO][  0].d[ 16] =         0.000002947305;
  BAS[ATNO][  0].a[ 17] =      1384.612300000000;     BAS[ATNO][  0].d[ 17] =         0.000011616614;
  BAS[ATNO][  0].a[ 18] =       436.512580000000;     BAS[ATNO][  0].d[ 18] =         0.000041890806;
  BAS[ATNO][  0].a[ 19] =       153.471480000000;     BAS[ATNO][  0].d[ 19] =         0.000127427390;
  BAS[ATNO][  0].a[ 20] =        59.389087000000;     BAS[ATNO][  0].d[ 20] =         0.000317246018;
  BAS[ATNO][  0].a[ 21] =        24.861967000000;     BAS[ATNO][  0].d[ 21] =         0.000592780876;
  BAS[ATNO][  0].a[ 22] =        11.015704000000;     BAS[ATNO][  0].d[ 22] =         0.000761467129;
  BAS[ATNO][  0].a[ 23] =         4.965175000000;     BAS[ATNO][  0].d[ 23] =         0.000035844760;
  BAS[ATNO][  0].a[ 24] =         1.936503000000;     BAS[ATNO][  0].d[ 24] =        -0.001878151943;
  BAS[ATNO][  0].a[ 25] =         0.765728000000;     BAS[ATNO][  0].d[ 25] =        -0.002661675198;
  BAS[ATNO][  0].a[ 26] =         0.295538000000;     BAS[ATNO][  0].d[ 26] =        -0.000888277616;
  BAS[ATNO][  0].a[ 27] =         0.103438000000;     BAS[ATNO][  0].d[ 27] =         0.000000906845;
  BAS[ATNO][  0].a[ 28] =    166165.079999999987;     BAS[ATNO][  0].d[ 28] =         0.000000083930;
  BAS[ATNO][  0].a[ 29] =     23107.524000000001;     BAS[ATNO][  0].d[ 29] =         0.000000345200;
  BAS[ATNO][  0].a[ 30] =      5060.153900000000;     BAS[ATNO][  0].d[ 30] =         0.000001429829;
  BAS[ATNO][  0].a[ 31] =      1384.612300000000;     BAS[ATNO][  0].d[ 31] =         0.000005493719;
  BAS[ATNO][  0].a[ 32] =       436.512580000000;     BAS[ATNO][  0].d[ 32] =         0.000020626000;
  BAS[ATNO][  0].a[ 33] =       153.471480000000;     BAS[ATNO][  0].d[ 33] =         0.000060487243;
  BAS[ATNO][  0].a[ 34] =        59.389087000000;     BAS[ATNO][  0].d[ 34] =         0.000165045748;
  BAS[ATNO][  0].a[ 35] =        24.861967000000;     BAS[ATNO][  0].d[ 35] =         0.000290999202;
  BAS[ATNO][  0].a[ 36] =        11.015704000000;     BAS[ATNO][  0].d[ 36] =         0.000534026208;
  BAS[ATNO][  0].a[ 37] =         4.965175000000;     BAS[ATNO][  0].d[ 37] =        -0.000452556008;
  BAS[ATNO][  0].a[ 38] =         1.936503000000;     BAS[ATNO][  0].d[ 38] =        -0.002326175621;
  BAS[ATNO][  0].a[ 39] =         0.765728000000;     BAS[ATNO][  0].d[ 39] =         0.000849906545;
  BAS[ATNO][  0].a[ 40] =         0.295538000000;     BAS[ATNO][  0].d[ 40] =         0.001494250122;
  BAS[ATNO][  0].a[ 41] =         0.103438000000;     BAS[ATNO][  0].d[ 41] =         0.000018892541;
  BAS[ATNO][  0].a[ 42] =    166165.079999999987;     BAS[ATNO][  0].d[ 42] =        -0.000000000159;
  BAS[ATNO][  0].a[ 43] =     23107.524000000001;     BAS[ATNO][  0].d[ 43] =        -0.000000000622;
  BAS[ATNO][  0].a[ 44] =      5060.153900000000;     BAS[ATNO][  0].d[ 44] =        -0.000000002879;
  BAS[ATNO][  0].a[ 45] =      1384.612300000000;     BAS[ATNO][  0].d[ 45] =        -0.000000009255;
  BAS[ATNO][  0].a[ 46] =       436.512580000000;     BAS[ATNO][  0].d[ 46] =        -0.000000044282;
  BAS[ATNO][  0].a[ 47] =       153.471480000000;     BAS[ATNO][  0].d[ 47] =        -0.000000096271;
  BAS[ATNO][  0].a[ 48] =        59.389087000000;     BAS[ATNO][  0].d[ 48] =        -0.000000410440;
  BAS[ATNO][  0].a[ 49] =        24.861967000000;     BAS[ATNO][  0].d[ 49] =        -0.000000371397;
  BAS[ATNO][  0].a[ 50] =        11.015704000000;     BAS[ATNO][  0].d[ 50] =        -0.000002053500;
  BAS[ATNO][  0].a[ 51] =         4.965175000000;     BAS[ATNO][  0].d[ 51] =         0.000005033588;
  BAS[ATNO][  0].a[ 52] =         1.936503000000;     BAS[ATNO][  0].d[ 52] =         0.000000246499;
  BAS[ATNO][  0].a[ 53] =         0.765728000000;     BAS[ATNO][  0].d[ 53] =        -0.000006400481;
  BAS[ATNO][  0].a[ 54] =         0.295538000000;     BAS[ATNO][  0].d[ 54] =         0.000004496274;
  BAS[ATNO][  0].a[ 55] =    166165.079999999987;     BAS[ATNO][  0].d[ 55] =        -0.000000084431;
  BAS[ATNO][  0].a[ 56] =     23107.524000000001;     BAS[ATNO][  0].d[ 56] =        -0.000000366573;
  BAS[ATNO][  0].a[ 57] =      5060.153900000000;     BAS[ATNO][  0].d[ 57] =        -0.000001364612;
  BAS[ATNO][  0].a[ 58] =      1384.612300000000;     BAS[ATNO][  0].d[ 58] =        -0.000006185972;
  BAS[ATNO][  0].a[ 59] =       436.512580000000;     BAS[ATNO][  0].d[ 59] =        -0.000019244060;
  BAS[ATNO][  0].a[ 60] =       153.471480000000;     BAS[ATNO][  0].d[ 60] =        -0.000077662410;
  BAS[ATNO][  0].a[ 61] =        59.389087000000;     BAS[ATNO][  0].d[ 61] =        -0.000159318389;
  BAS[ATNO][  0].a[ 62] =        24.861967000000;     BAS[ATNO][  0].d[ 62] =        -0.000544374447;
  BAS[ATNO][  0].a[ 63] =        11.015704000000;     BAS[ATNO][  0].d[ 63] =        -0.000546619324;
  BAS[ATNO][  0].a[ 64] =         4.965175000000;     BAS[ATNO][  0].d[ 64] =         0.004293711445;
  BAS[ATNO][  0].a[ 65] =         1.936503000000;     BAS[ATNO][  0].d[ 65] =        -0.006167041538;
  BAS[ATNO][  0].a[ 66] =         0.765728000000;     BAS[ATNO][  0].d[ 66] =         0.004544274003;
  BAS[ATNO][  0].a[ 67] =         0.295538000000;     BAS[ATNO][  0].d[ 67] =        -0.001195013355;
  BAS[ATNO][  0].a[ 68] =         0.103438000000;     BAS[ATNO][  0].d[ 68] =        -0.000543653114;

  // Basis function   2 L = s
  InitBFNGauss(BAS[ATNO][  1]);
  BAS[ATNO][  1].l  = 0;
  BAS[ATNO][  1].ng = 68;
  BAS[ATNO][  1].a[  0] =    166165.079999999987;     BAS[ATNO][  1].d[  0] =         0.000000785413;
  BAS[ATNO][  1].a[  1] =     23107.524000000001;     BAS[ATNO][  1].d[  1] =         0.000003256320;
  BAS[ATNO][  1].a[  2] =      5060.153900000000;     BAS[ATNO][  1].d[  2] =         0.000013199464;
  BAS[ATNO][  1].a[  3] =      1384.612300000000;     BAS[ATNO][  1].d[  3] =         0.000051920945;
  BAS[ATNO][  1].a[  4] =       436.512580000000;     BAS[ATNO][  1].d[  4] =         0.000183687789;
  BAS[ATNO][  1].a[  5] =       153.471480000000;     BAS[ATNO][  1].d[  5] =         0.000540932455;
  BAS[ATNO][  1].a[  6] =        59.389087000000;     BAS[ATNO][  1].d[  6] =         0.001221345784;
  BAS[ATNO][  1].a[  7] =        24.861967000000;     BAS[ATNO][  1].d[  7] =         0.001892826160;
  BAS[ATNO][  1].a[  8] =        11.015704000000;     BAS[ATNO][  1].d[  8] =         0.001564467016;
  BAS[ATNO][  1].a[  9] =         4.965175000000;     BAS[ATNO][  1].d[  9] =         0.000429178820;
  BAS[ATNO][  1].a[ 10] =         1.936503000000;     BAS[ATNO][  1].d[ 10] =         0.000018666699;
  BAS[ATNO][  1].a[ 11] =         0.765728000000;     BAS[ATNO][  1].d[ 11] =         0.000004908086;
  BAS[ATNO][  1].a[ 12] =    166165.079999999987;     BAS[ATNO][  1].d[ 12] =        -0.000034608013;
  BAS[ATNO][  1].a[ 13] =     23107.524000000001;     BAS[ATNO][  1].d[ 13] =        -0.000143469565;
  BAS[ATNO][  1].a[ 14] =      5060.153900000000;     BAS[ATNO][  1].d[ 14] =        -0.000583820474;
  BAS[ATNO][  1].a[ 15] =      1384.612300000000;     BAS[ATNO][  1].d[ 15] =        -0.002301091306;
  BAS[ATNO][  1].a[ 16] =       436.512580000000;     BAS[ATNO][  1].d[ 16] =        -0.008297992001;
  BAS[ATNO][  1].a[ 17] =       153.471480000000;     BAS[ATNO][  1].d[ 17] =        -0.025241611970;
  BAS[ATNO][  1].a[ 18] =        59.389087000000;     BAS[ATNO][  1].d[ 18] =        -0.062842069660;
  BAS[ATNO][  1].a[ 19] =        24.861967000000;     BAS[ATNO][  1].d[ 19] =        -0.117421732476;
  BAS[ATNO][  1].a[ 20] =        11.015704000000;     BAS[ATNO][  1].d[ 20] =        -0.150836157521;
  BAS[ATNO][  1].a[ 21] =         4.965175000000;     BAS[ATNO][  1].d[ 21] =        -0.007100353647;
  BAS[ATNO][  1].a[ 22] =         1.936503000000;     BAS[ATNO][  1].d[ 22] =         0.372036049158;
  BAS[ATNO][  1].a[ 23] =         0.765728000000;     BAS[ATNO][  1].d[ 23] =         0.527241221601;
  BAS[ATNO][  1].a[ 24] =         0.295538000000;     BAS[ATNO][  1].d[ 24] =         0.175955569433;
  BAS[ATNO][  1].a[ 25] =         0.103438000000;     BAS[ATNO][  1].d[ 25] =        -0.000179633420;
  BAS[ATNO][  1].a[ 26] =    166165.079999999987;     BAS[ATNO][  1].d[ 26] =        -0.000014361723;
  BAS[ATNO][  1].a[ 27] =     23107.524000000001;     BAS[ATNO][  1].d[ 27] =        -0.000059068834;
  BAS[ATNO][  1].a[ 28] =      5060.153900000000;     BAS[ATNO][  1].d[ 28] =        -0.000244664797;
  BAS[ATNO][  1].a[ 29] =      1384.612300000000;     BAS[ATNO][  1].d[ 29] =        -0.000940056358;
  BAS[ATNO][  1].a[ 30] =       436.512580000000;     BAS[ATNO][  1].d[ 30] =        -0.003529413145;
  BAS[ATNO][  1].a[ 31] =       153.471480000000;     BAS[ATNO][  1].d[ 31] =        -0.010350260430;
  BAS[ATNO][  1].a[ 32] =        59.389087000000;     BAS[ATNO][  1].d[ 32] =        -0.028241764633;
  BAS[ATNO][  1].a[ 33] =        24.861967000000;     BAS[ATNO][  1].d[ 33] =        -0.049794260386;
  BAS[ATNO][  1].a[ 34] =        11.015704000000;     BAS[ATNO][  1].d[ 34] =        -0.091379769625;
  BAS[ATNO][  1].a[ 35] =         4.965175000000;     BAS[ATNO][  1].d[ 35] =         0.077439015506;
  BAS[ATNO][  1].a[ 36] =         1.936503000000;     BAS[ATNO][  1].d[ 36] =         0.398042997289;
  BAS[ATNO][  1].a[ 37] =         0.765728000000;     BAS[ATNO][  1].d[ 37] =        -0.145431559581;
  BAS[ATNO][  1].a[ 38] =         0.295538000000;     BAS[ATNO][  1].d[ 38] =        -0.255688260113;
  BAS[ATNO][  1].a[ 39] =         0.103438000000;     BAS[ATNO][  1].d[ 39] =        -0.003232792794;
  BAS[ATNO][  1].a[ 40] =    166165.079999999987;     BAS[ATNO][  1].d[ 40] =        -0.000001930907;
  BAS[ATNO][  1].a[ 41] =     23107.524000000001;     BAS[ATNO][  1].d[ 41] =        -0.000007538068;
  BAS[ATNO][  1].a[ 42] =      5060.153900000000;     BAS[ATNO][  1].d[ 42] =        -0.000034889982;
  BAS[ATNO][  1].a[ 43] =      1384.612300000000;     BAS[ATNO][  1].d[ 43] =        -0.000112150006;
  BAS[ATNO][  1].a[ 44] =       436.512580000000;     BAS[ATNO][  1].d[ 44] =        -0.000536625904;
  BAS[ATNO][  1].a[ 45] =       153.471480000000;     BAS[ATNO][  1].d[ 45] =        -0.001166652476;
  BAS[ATNO][  1].a[ 46] =        59.389087000000;     BAS[ATNO][  1].d[ 46] =        -0.004973874460;
  BAS[ATNO][  1].a[ 47] =        24.861967000000;     BAS[ATNO][  1].d[ 47] =        -0.004500739164;
  BAS[ATNO][  1].a[ 48] =        11.015704000000;     BAS[ATNO][  1].d[ 48] =        -0.024885140808;
  BAS[ATNO][  1].a[ 49] =         4.965175000000;     BAS[ATNO][  1].d[ 49] =         0.060999066180;
  BAS[ATNO][  1].a[ 50] =         1.936503000000;     BAS[ATNO][  1].d[ 50] =         0.002987179175;
  BAS[ATNO][  1].a[ 51] =         0.765728000000;     BAS[ATNO][  1].d[ 51] =        -0.077563624384;
  BAS[ATNO][  1].a[ 52] =         0.295538000000;     BAS[ATNO][  1].d[ 52] =         0.054487668063;
  BAS[ATNO][  1].a[ 53] =         0.103438000000;     BAS[ATNO][  1].d[ 53] =         0.003067603891;
  BAS[ATNO][  1].a[ 54] =    166165.079999999987;     BAS[ATNO][  1].d[ 54] =         0.000000284573;
  BAS[ATNO][  1].a[ 55] =     23107.524000000001;     BAS[ATNO][  1].d[ 55] =         0.000001235529;
  BAS[ATNO][  1].a[ 56] =      5060.153900000000;     BAS[ATNO][  1].d[ 56] =         0.000004599409;
  BAS[ATNO][  1].a[ 57] =      1384.612300000000;     BAS[ATNO][  1].d[ 57] =         0.000020849746;
  BAS[ATNO][  1].a[ 58] =       436.512580000000;     BAS[ATNO][  1].d[ 58] =         0.000064861879;
  BAS[ATNO][  1].a[ 59] =       153.471480000000;     BAS[ATNO][  1].d[ 59] =         0.000261760242;
  BAS[ATNO][  1].a[ 60] =        59.389087000000;     BAS[ATNO][  1].d[ 60] =         0.000536980761;
  BAS[ATNO][  1].a[ 61] =        24.861967000000;     BAS[ATNO][  1].d[ 61] =         0.001834807689;
  BAS[ATNO][  1].a[ 62] =        11.015704000000;     BAS[ATNO][  1].d[ 62] =         0.001842374019;
  BAS[ATNO][  1].a[ 63] =         4.965175000000;     BAS[ATNO][  1].d[ 63] =        -0.014471904063;
  BAS[ATNO][  1].a[ 64] =         1.936503000000;     BAS[ATNO][  1].d[ 64] =         0.020785941167;
  BAS[ATNO][  1].a[ 65] =         0.765728000000;     BAS[ATNO][  1].d[ 65] =        -0.015316422227;
  BAS[ATNO][  1].a[ 66] =         0.295538000000;     BAS[ATNO][  1].d[ 66] =         0.004027778495;
  BAS[ATNO][  1].a[ 67] =         0.103438000000;     BAS[ATNO][  1].d[ 67] =         0.001832376444;

  // Basis function   3 L = s
  InitBFNGauss(BAS[ATNO][  2]);
  BAS[ATNO][  2].l  = 0;
  BAS[ATNO][  2].ng = 68;
  BAS[ATNO][  2].a[  0] =    166165.079999999987;     BAS[ATNO][  2].d[  0] =         0.000000039772;
  BAS[ATNO][  2].a[  1] =     23107.524000000001;     BAS[ATNO][  2].d[  1] =         0.000000164895;
  BAS[ATNO][  2].a[  2] =      5060.153900000000;     BAS[ATNO][  2].d[  2] =         0.000000668401;
  BAS[ATNO][  2].a[  3] =      1384.612300000000;     BAS[ATNO][  2].d[  3] =         0.000002629198;
  BAS[ATNO][  2].a[  4] =       436.512580000000;     BAS[ATNO][  2].d[  4] =         0.000009301673;
  BAS[ATNO][  2].a[  5] =       153.471480000000;     BAS[ATNO][  2].d[  5] =         0.000027392004;
  BAS[ATNO][  2].a[  6] =        59.389087000000;     BAS[ATNO][  2].d[  6] =         0.000061847110;
  BAS[ATNO][  2].a[  7] =        24.861967000000;     BAS[ATNO][  2].d[  7] =         0.000095849864;
  BAS[ATNO][  2].a[  8] =        11.015704000000;     BAS[ATNO][  2].d[  8] =         0.000079222252;
  BAS[ATNO][  2].a[  9] =         4.965175000000;     BAS[ATNO][  2].d[  9] =         0.000021732969;
  BAS[ATNO][  2].a[ 10] =         1.936503000000;     BAS[ATNO][  2].d[ 10] =         0.000000945254;
  BAS[ATNO][  2].a[ 11] =         0.765728000000;     BAS[ATNO][  2].d[ 11] =         0.000000248538;
  BAS[ATNO][  2].a[ 12] =    166165.079999999987;     BAS[ATNO][  2].d[ 12] =         0.000011293517;
  BAS[ATNO][  2].a[ 13] =     23107.524000000001;     BAS[ATNO][  2].d[ 13] =         0.000046817944;
  BAS[ATNO][  2].a[ 14] =      5060.153900000000;     BAS[ATNO][  2].d[ 14] =         0.000190516187;
  BAS[ATNO][  2].a[ 15] =      1384.612300000000;     BAS[ATNO][  2].d[ 15] =         0.000750907445;
  BAS[ATNO][  2].a[ 16] =       436.512580000000;     BAS[ATNO][  2].d[ 16] =         0.002707856033;
  BAS[ATNO][  2].a[ 17] =       153.471480000000;     BAS[ATNO][  2].d[ 17] =         0.008237010984;
  BAS[ATNO][  2].a[ 18] =        59.389087000000;     BAS[ATNO][  2].d[ 18] =         0.020507042840;
  BAS[ATNO][  2].a[ 19] =        24.861967000000;     BAS[ATNO][  2].d[ 19] =         0.038317842033;
  BAS[ATNO][  2].a[ 20] =        11.015704000000;     BAS[ATNO][  2].d[ 20] =         0.049221859828;
  BAS[ATNO][  2].a[ 21] =         4.965175000000;     BAS[ATNO][  2].d[ 21] =         0.002317034706;
  BAS[ATNO][  2].a[ 22] =         1.936503000000;     BAS[ATNO][  2].d[ 22] =        -0.121405282153;
  BAS[ATNO][  2].a[ 23] =         0.765728000000;     BAS[ATNO][  2].d[ 23] =        -0.172052868038;
  BAS[ATNO][  2].a[ 24] =         0.295538000000;     BAS[ATNO][  2].d[ 24] =        -0.057418993675;
  BAS[ATNO][  2].a[ 25] =         0.103438000000;     BAS[ATNO][  2].d[ 25] =         0.000058619174;
  BAS[ATNO][  2].a[ 26] =    166165.079999999987;     BAS[ATNO][  2].d[ 26] =        -0.000043192465;
  BAS[ATNO][  2].a[ 27] =     23107.524000000001;     BAS[ATNO][  2].d[ 27] =        -0.000177647800;
  BAS[ATNO][  2].a[ 28] =      5060.153900000000;     BAS[ATNO][  2].d[ 28] =        -0.000735822253;
  BAS[ATNO][  2].a[ 29] =      1384.612300000000;     BAS[ATNO][  2].d[ 29] =        -0.002827192128;
  BAS[ATNO][  2].a[ 30] =       436.512580000000;     BAS[ATNO][  2].d[ 30] =        -0.010614607278;
  BAS[ATNO][  2].a[ 31] =       153.471480000000;     BAS[ATNO][  2].d[ 31] =        -0.031128106907;
  BAS[ATNO][  2].a[ 32] =        59.389087000000;     BAS[ATNO][  2].d[ 32] =        -0.084936284907;
  BAS[ATNO][  2].a[ 33] =        24.861967000000;     BAS[ATNO][  2].d[ 33] =        -0.149754788410;
  BAS[ATNO][  2].a[ 34] =        11.015704000000;     BAS[ATNO][  2].d[ 34] =        -0.274821996731;
  BAS[ATNO][  2].a[ 35] =         4.965175000000;     BAS[ATNO][  2].d[ 35] =         0.232895584587;
  BAS[ATNO][  2].a[ 36] =         1.936503000000;     BAS[ATNO][  2].d[ 36] =         1.197102725789;
  BAS[ATNO][  2].a[ 37] =         0.765728000000;     BAS[ATNO][  2].d[ 37] =        -0.437381181369;
  BAS[ATNO][  2].a[ 38] =         0.295538000000;     BAS[ATNO][  2].d[ 38] =        -0.768974998225;
  BAS[ATNO][  2].a[ 39] =         0.103438000000;     BAS[ATNO][  2].d[ 39] =        -0.009722530210;
  BAS[ATNO][  2].a[ 40] =    166165.079999999987;     BAS[ATNO][  2].d[ 40] =         0.000005826353;
  BAS[ATNO][  2].a[ 41] =     23107.524000000001;     BAS[ATNO][  2].d[ 41] =         0.000022745503;
  BAS[ATNO][  2].a[ 42] =      5060.153900000000;     BAS[ATNO][  2].d[ 42] =         0.000105277662;
  BAS[ATNO][  2].a[ 43] =      1384.612300000000;     BAS[ATNO][  2].d[ 43] =         0.000338403453;
  BAS[ATNO][  2].a[ 44] =       436.512580000000;     BAS[ATNO][  2].d[ 44] =         0.001619224699;
  BAS[ATNO][  2].a[ 45] =       153.471480000000;     BAS[ATNO][  2].d[ 45] =         0.003520278262;
  BAS[ATNO][  2].a[ 46] =        59.389087000000;     BAS[ATNO][  2].d[ 46] =         0.015008258670;
  BAS[ATNO][  2].a[ 47] =        24.861967000000;     BAS[ATNO][  2].d[ 47] =         0.013580611680;
  BAS[ATNO][  2].a[ 48] =        11.015704000000;     BAS[ATNO][  2].d[ 48] =         0.075088873533;
  BAS[ATNO][  2].a[ 49] =         4.965175000000;     BAS[ATNO][  2].d[ 49] =        -0.184059684506;
  BAS[ATNO][  2].a[ 50] =         1.936503000000;     BAS[ATNO][  2].d[ 50] =        -0.009013568420;
  BAS[ATNO][  2].a[ 51] =         0.765728000000;     BAS[ATNO][  2].d[ 51] =         0.234041881744;
  BAS[ATNO][  2].a[ 52] =         0.295538000000;     BAS[ATNO][  2].d[ 52] =        -0.164412074172;
  BAS[ATNO][  2].a[ 53] =         0.103438000000;     BAS[ATNO][  2].d[ 53] =        -0.009256243412;
  BAS[ATNO][  2].a[ 54] =    166165.079999999987;     BAS[ATNO][  2].d[ 54] =         0.000000297961;
  BAS[ATNO][  2].a[ 55] =     23107.524000000001;     BAS[ATNO][  2].d[ 55] =         0.000001293653;
  BAS[ATNO][  2].a[ 56] =      5060.153900000000;     BAS[ATNO][  2].d[ 56] =         0.000004815784;
  BAS[ATNO][  2].a[ 57] =      1384.612300000000;     BAS[ATNO][  2].d[ 57] =         0.000021830606;
  BAS[ATNO][  2].a[ 58] =       436.512580000000;     BAS[ATNO][  2].d[ 58] =         0.000067913254;
  BAS[ATNO][  2].a[ 59] =       153.471480000000;     BAS[ATNO][  2].d[ 59] =         0.000274074543;
  BAS[ATNO][  2].a[ 60] =        59.389087000000;     BAS[ATNO][  2].d[ 60] =         0.000562242591;
  BAS[ATNO][  2].a[ 61] =        24.861967000000;     BAS[ATNO][  2].d[ 61] =         0.001921124749;
  BAS[ATNO][  2].a[ 62] =        11.015704000000;     BAS[ATNO][  2].d[ 62] =         0.001929047032;
  BAS[ATNO][  2].a[ 63] =         4.965175000000;     BAS[ATNO][  2].d[ 63] =        -0.015152723219;
  BAS[ATNO][  2].a[ 64] =         1.936503000000;     BAS[ATNO][  2].d[ 64] =         0.021763799152;
  BAS[ATNO][  2].a[ 65] =         0.765728000000;     BAS[ATNO][  2].d[ 65] =        -0.016036971066;
  BAS[ATNO][  2].a[ 66] =         0.295538000000;     BAS[ATNO][  2].d[ 66] =         0.004217262114;
  BAS[ATNO][  2].a[ 67] =         0.103438000000;     BAS[ATNO][  2].d[ 67] =         0.001918579129;

  // Basis function   4 L = s
  InitBFNGauss(BAS[ATNO][  3]);
  BAS[ATNO][  3].l  = 0;
  BAS[ATNO][  3].ng = 68;
  BAS[ATNO][  3].a[  0] =    166165.079999999987;     BAS[ATNO][  3].d[  0] =        -0.000000053883;
  BAS[ATNO][  3].a[  1] =     23107.524000000001;     BAS[ATNO][  3].d[  1] =        -0.000000223400;
  BAS[ATNO][  3].a[  2] =      5060.153900000000;     BAS[ATNO][  3].d[  2] =        -0.000000905550;
  BAS[ATNO][  3].a[  3] =      1384.612300000000;     BAS[ATNO][  3].d[  3] =        -0.000003562039;
  BAS[ATNO][  3].a[  4] =       436.512580000000;     BAS[ATNO][  3].d[  4] =        -0.000012601910;
  BAS[ATNO][  3].a[  5] =       153.471480000000;     BAS[ATNO][  3].d[  5] =        -0.000037110699;
  BAS[ATNO][  3].a[  6] =        59.389087000000;     BAS[ATNO][  3].d[  6] =        -0.000083790491;
  BAS[ATNO][  3].a[  7] =        24.861967000000;     BAS[ATNO][  3].d[  7] =        -0.000129857436;
  BAS[ATNO][  3].a[  8] =        11.015704000000;     BAS[ATNO][  3].d[  8] =        -0.000107330340;
  BAS[ATNO][  3].a[  9] =         4.965175000000;     BAS[ATNO][  3].d[  9] =        -0.000029443835;
  BAS[ATNO][  3].a[ 10] =         1.936503000000;     BAS[ATNO][  3].d[ 10] =        -0.000001280630;
  BAS[ATNO][  3].a[ 11] =         0.765728000000;     BAS[ATNO][  3].d[ 11] =        -0.000000336719;
  BAS[ATNO][  3].a[ 12] =    166165.079999999987;     BAS[ATNO][  3].d[ 12] =        -0.000002183104;
  BAS[ATNO][  3].a[ 13] =     23107.524000000001;     BAS[ATNO][  3].d[ 13] =        -0.000009050186;
  BAS[ATNO][  3].a[ 14] =      5060.153900000000;     BAS[ATNO][  3].d[ 14] =        -0.000036827907;
  BAS[ATNO][  3].a[ 15] =      1384.612300000000;     BAS[ATNO][  3].d[ 15] =        -0.000145154854;
  BAS[ATNO][  3].a[ 16] =       436.512580000000;     BAS[ATNO][  3].d[ 16] =        -0.000523444599;
  BAS[ATNO][  3].a[ 17] =       153.471480000000;     BAS[ATNO][  3].d[ 17] =        -0.001592262978;
  BAS[ATNO][  3].a[ 18] =        59.389087000000;     BAS[ATNO][  3].d[ 18] =        -0.003964132762;
  BAS[ATNO][  3].a[ 19] =        24.861967000000;     BAS[ATNO][  3].d[ 19] =        -0.007407065668;
  BAS[ATNO][  3].a[ 20] =        11.015704000000;     BAS[ATNO][  3].d[ 20] =        -0.009514876849;
  BAS[ATNO][  3].a[ 21] =         4.965175000000;     BAS[ATNO][  3].d[ 21] =        -0.000447896523;
  BAS[ATNO][  3].a[ 22] =         1.936503000000;     BAS[ATNO][  3].d[ 22] =         0.023468359638;
  BAS[ATNO][  3].a[ 23] =         0.765728000000;     BAS[ATNO][  3].d[ 23] =         0.033258837772;
  BAS[ATNO][  3].a[ 24] =         0.295538000000;     BAS[ATNO][  3].d[ 24] =         0.011099431340;
  BAS[ATNO][  3].a[ 25] =         0.103438000000;     BAS[ATNO][  3].d[ 25] =        -0.000011331433;
  BAS[ATNO][  3].a[ 26] =    166165.079999999987;     BAS[ATNO][  3].d[ 26] =         0.000003520867;
  BAS[ATNO][  3].a[ 27] =     23107.524000000001;     BAS[ATNO][  3].d[ 27] =         0.000014481098;
  BAS[ATNO][  3].a[ 28] =      5060.153900000000;     BAS[ATNO][  3].d[ 28] =         0.000059981119;
  BAS[ATNO][  3].a[ 29] =      1384.612300000000;     BAS[ATNO][  3].d[ 29] =         0.000230460750;
  BAS[ATNO][  3].a[ 30] =       436.512580000000;     BAS[ATNO][  3].d[ 30] =         0.000865257911;
  BAS[ATNO][  3].a[ 31] =       153.471480000000;     BAS[ATNO][  3].d[ 31] =         0.002537431679;
  BAS[ATNO][  3].a[ 32] =        59.389087000000;     BAS[ATNO][  3].d[ 32] =         0.006923646872;
  BAS[ATNO][  3].a[ 33] =        24.861967000000;     BAS[ATNO][  3].d[ 33] =         0.012207377253;
  BAS[ATNO][  3].a[ 34] =        11.015704000000;     BAS[ATNO][  3].d[ 34] =         0.022402327345;
  BAS[ATNO][  3].a[ 35] =         4.965175000000;     BAS[ATNO][  3].d[ 35] =        -0.018984663474;
  BAS[ATNO][  3].a[ 36] =         1.936503000000;     BAS[ATNO][  3].d[ 36] =        -0.097582753376;
  BAS[ATNO][  3].a[ 37] =         0.765728000000;     BAS[ATNO][  3].d[ 37] =         0.035653464848;
  BAS[ATNO][  3].a[ 38] =         0.295538000000;     BAS[ATNO][  3].d[ 38] =         0.062683590963;
  BAS[ATNO][  3].a[ 39] =         0.103438000000;     BAS[ATNO][  3].d[ 39] =         0.000792539560;
  BAS[ATNO][  3].a[ 40] =    166165.079999999987;     BAS[ATNO][  3].d[ 40] =         0.000051790633;
  BAS[ATNO][  3].a[ 41] =     23107.524000000001;     BAS[ATNO][  3].d[ 41] =         0.000202185461;
  BAS[ATNO][  3].a[ 42] =      5060.153900000000;     BAS[ATNO][  3].d[ 42] =         0.000935816331;
  BAS[ATNO][  3].a[ 43] =      1384.612300000000;     BAS[ATNO][  3].d[ 43] =         0.003008078553;
  BAS[ATNO][  3].a[ 44] =       436.512580000000;     BAS[ATNO][  3].d[ 44] =         0.014393337416;
  BAS[ATNO][  3].a[ 45] =       153.471480000000;     BAS[ATNO][  3].d[ 45] =         0.031291860156;
  BAS[ATNO][  3].a[ 46] =        59.389087000000;     BAS[ATNO][  3].d[ 46] =         0.133408866150;
  BAS[ATNO][  3].a[ 47] =        24.861967000000;     BAS[ATNO][  3].d[ 47] =         0.120718468788;
  BAS[ATNO][  3].a[ 48] =        11.015704000000;     BAS[ATNO][  3].d[ 48] =         0.667467272417;
  BAS[ATNO][  3].a[ 49] =         4.965175000000;     BAS[ATNO][  3].d[ 49] =        -1.636112113548;
[...]
  BAS[ATNO][  6].a[  2] =        17.389549000000;     BAS[ATNO][  6].d[  2] =         0.026263747709;
  BAS[ATNO][  6].a[  3] =         6.389537000000;     BAS[ATNO][  6].d[  3] =         0.077103494600;
  BAS[ATNO][  6].a[  4] =         2.542082000000;     BAS[ATNO][  6].d[  4] =         0.141977549222;
  BAS[ATNO][  6].a[  5] =         1.033764000000;     BAS[ATNO][  6].d[  5] =         0.168378844351;
  BAS[ATNO][  6].a[  6] =         0.418788000000;     BAS[ATNO][  6].d[  6] =         0.120061852843;
  BAS[ATNO][  6].a[  7] =         0.164627000000;     BAS[ATNO][  6].d[  7] =         0.031606500399;
  BAS[ATNO][  6].a[  8] =         0.057619000000;     BAS[ATNO][  6].d[  8] =         0.000277449856;
  BAS[ATNO][  6].a[  9] =       234.945000000000;     BAS[ATNO][  6].d[  9] =        -0.001870482138;
  BAS[ATNO][  6].a[ 10] =        55.077385000000;     BAS[ATNO][  6].d[ 10] =        -0.015115651512;
  BAS[ATNO][  6].a[ 11] =        17.389549000000;     BAS[ATNO][  6].d[ 11] =        -0.067836562283;
  BAS[ATNO][  6].a[ 12] =         6.389537000000;     BAS[ATNO][  6].d[ 12] =        -0.236832709396;
  BAS[ATNO][  6].a[ 13] =         2.542082000000;     BAS[ATNO][  6].d[ 13] =        -0.401951918167;
  BAS[ATNO][  6].a[ 14] =         1.033764000000;     BAS[ATNO][  6].d[ 14] =         0.005425852056;
  BAS[ATNO][  6].a[ 15] =         0.418788000000;     BAS[ATNO][  6].d[ 15] =         0.508201738442;
  BAS[ATNO][  6].a[ 16] =         0.164627000000;     BAS[ATNO][  6].d[ 16] =         0.290443550886;
  BAS[ATNO][  6].a[ 17] =         0.057619000000;     BAS[ATNO][  6].d[ 17] =         0.005677231160;
  BAS[ATNO][  6].a[ 18] =       234.945000000000;     BAS[ATNO][  6].d[ 18] =        -0.000707342777;
  BAS[ATNO][  6].a[ 19] =        55.077385000000;     BAS[ATNO][  6].d[ 19] =        -0.006789189533;
  BAS[ATNO][  6].a[ 20] =        17.389549000000;     BAS[ATNO][  6].d[ 20] =        -0.027924925106;
  BAS[ATNO][  6].a[ 21] =         6.389537000000;     BAS[ATNO][  6].d[ 21] =        -0.130031859543;
  BAS[ATNO][  6].a[ 22] =         2.542082000000;     BAS[ATNO][  6].d[ 22] =        -0.045636272849;
  BAS[ATNO][  6].a[ 23] =         1.033764000000;     BAS[ATNO][  6].d[ 23] =         0.261662106097;
  BAS[ATNO][  6].a[ 24] =         0.418788000000;     BAS[ATNO][  6].d[ 24] =        -0.038211422009;
  BAS[ATNO][  6].a[ 25] =         0.164627000000;     BAS[ATNO][  6].d[ 25] =        -0.158253958180;
  BAS[ATNO][  6].a[ 26] =         0.057619000000;     BAS[ATNO][  6].d[ 26] =        -0.005029554308;
  BAS[ATNO][  6].a[ 27] =       234.945000000000;     BAS[ATNO][  6].d[ 27] =         0.000364407237;
  BAS[ATNO][  6].a[ 28] =        55.077385000000;     BAS[ATNO][  6].d[ 28] =         0.002713719294;
  BAS[ATNO][  6].a[ 29] =        17.389549000000;     BAS[ATNO][  6].d[ 29] =         0.018629130938;
  BAS[ATNO][  6].a[ 30] =         6.389537000000;     BAS[ATNO][  6].d[ 30] =         0.052800939634;
  BAS[ATNO][  6].a[ 31] =         2.542082000000;     BAS[ATNO][  6].d[ 31] =        -0.098008777218;
  BAS[ATNO][  6].a[ 32] =         1.033764000000;     BAS[ATNO][  6].d[ 32] =         0.029437657426;
  BAS[ATNO][  6].a[ 33] =         0.418788000000;     BAS[ATNO][  6].d[ 33] =         0.056573408320;
  BAS[ATNO][  6].a[ 34] =         0.164627000000;     BAS[ATNO][  6].d[ 34] =        -0.055374688138;
  BAS[ATNO][  6].a[ 35] =         0.057619000000;     BAS[ATNO][  6].d[ 35] =        -0.000513185748;

  // Basis function   8 L = p
  InitBFNGauss(BAS[ATNO][  7]);
  BAS[ATNO][  7].l  = 1;
  BAS[ATNO][  7].ng = 35;
  BAS[ATNO][  7].a[  0] =       234.945000000000;     BAS[ATNO][  7].d[  0] =        -0.000004598428;
  BAS[ATNO][  7].a[  1] =        55.077385000000;     BAS[ATNO][  7].d[  1] =        -0.000035460970;
  BAS[ATNO][  7].a[  2] =        17.389549000000;     BAS[ATNO][  7].d[  2] =        -0.000159900869;
  BAS[ATNO][  7].a[  3] =         6.389537000000;     BAS[ATNO][  7].d[  3] =        -0.000469427134;
  BAS[ATNO][  7].a[  4] =         2.542082000000;     BAS[ATNO][  7].d[  4] =        -0.000864398096;
  BAS[ATNO][  7].a[  5] =         1.033764000000;     BAS[ATNO][  7].d[  5] =        -0.001025136392;
  BAS[ATNO][  7].a[  6] =         0.418788000000;     BAS[ATNO][  7].d[  6] =        -0.000730969351;
  BAS[ATNO][  7].a[  7] =         0.164627000000;     BAS[ATNO][  7].d[  7] =        -0.000192429007;
  BAS[ATNO][  7].a[  8] =       234.945000000000;     BAS[ATNO][  7].d[  8] =         0.000575674103;
  BAS[ATNO][  7].a[  9] =        55.077385000000;     BAS[ATNO][  7].d[  9] =         0.004652110245;
  BAS[ATNO][  7].a[ 10] =        17.389549000000;     BAS[ATNO][  7].d[ 10] =         0.020877906992;
  BAS[ATNO][  7].a[ 11] =         6.389537000000;     BAS[ATNO][  7].d[ 11] =         0.072889473066;
  BAS[ATNO][  7].a[ 12] =         2.542082000000;     BAS[ATNO][  7].d[ 12] =         0.123707842502;
  BAS[ATNO][  7].a[ 13] =         1.033764000000;     BAS[ATNO][  7].d[ 13] =        -0.001669902347;
  BAS[ATNO][  7].a[ 14] =         0.418788000000;     BAS[ATNO][  7].d[ 14] =        -0.156408111957;
  BAS[ATNO][  7].a[ 15] =         0.164627000000;     BAS[ATNO][  7].d[ 15] =        -0.089389161799;
  BAS[ATNO][  7].a[ 16] =         0.057619000000;     BAS[ATNO][  7].d[ 16] =        -0.001747268731;
  BAS[ATNO][  7].a[ 17] =       234.945000000000;     BAS[ATNO][  7].d[ 17] =        -0.002868656501;
  BAS[ATNO][  7].a[ 18] =        55.077385000000;     BAS[ATNO][  7].d[ 18] =        -0.027533825648;
  BAS[ATNO][  7].a[ 19] =        17.389549000000;     BAS[ATNO][  7].d[ 19] =        -0.113250634021;
  BAS[ATNO][  7].a[ 20] =         6.389537000000;     BAS[ATNO][  7].d[ 20] =        -0.527349329679;
  BAS[ATNO][  7].a[ 21] =         2.542082000000;     BAS[ATNO][  7].d[ 21] =        -0.185079702625;
  BAS[ATNO][  7].a[ 22] =         1.033764000000;     BAS[ATNO][  7].d[ 22] =         1.061180980860;
  BAS[ATNO][  7].a[ 23] =         0.418788000000;     BAS[ATNO][  7].d[ 23] =        -0.154967927503;
  BAS[ATNO][  7].a[ 24] =         0.164627000000;     BAS[ATNO][  7].d[ 24] =        -0.641805162663;
  BAS[ATNO][  7].a[ 25] =         0.057619000000;     BAS[ATNO][  7].d[ 25] =        -0.020397555664;
  BAS[ATNO][  7].a[ 26] =       234.945000000000;     BAS[ATNO][  7].d[ 26] =         0.001507260253;
  BAS[ATNO][  7].a[ 27] =        55.077385000000;     BAS[ATNO][  7].d[ 27] =         0.011224478595;
  BAS[ATNO][  7].a[ 28] =        17.389549000000;     BAS[ATNO][  7].d[ 28] =         0.077053762323;
  BAS[ATNO][  7].a[ 29] =         6.389537000000;     BAS[ATNO][  7].d[ 29] =         0.218395107453;
  BAS[ATNO][  7].a[ 30] =         2.542082000000;     BAS[ATNO][  7].d[ 30] =        -0.405383646204;
  BAS[ATNO][  7].a[ 31] =         1.033764000000;     BAS[ATNO][  7].d[ 31] =         0.121759961115;
  BAS[ATNO][  7].a[ 32] =         0.418788000000;     BAS[ATNO][  7].d[ 32] =         0.233998782494;
  BAS[ATNO][  7].a[ 33] =         0.164627000000;     BAS[ATNO][  7].d[ 33] =        -0.229040639237;
  BAS[ATNO][  7].a[ 34] =         0.057619000000;     BAS[ATNO][  7].d[ 34] =        -0.002122637539;

  // Basis function   9 L = p
  InitBFNGauss(BAS[ATNO][  8]);
  BAS[ATNO][  8].l  = 1;
  BAS[ATNO][  8].ng = 36;
  BAS[ATNO][  8].a[  0] =       234.945000000000;     BAS[ATNO][  8].d[  0] =         0.000051114441;
  BAS[ATNO][  8].a[  1] =        55.077385000000;     BAS[ATNO][  8].d[  1] =         0.000394171128;
  BAS[ATNO][  8].a[  2] =        17.389549000000;     BAS[ATNO][  8].d[  2] =         0.001777399388;
  BAS[ATNO][  8].a[  3] =         6.389537000000;     BAS[ATNO][  8].d[  3] =         0.005217979767;
  BAS[ATNO][  8].a[  4] =         2.542082000000;     BAS[ATNO][  8].d[  4] =         0.009608332061;
  BAS[ATNO][  8].a[  5] =         1.033764000000;     BAS[ATNO][  8].d[  5] =         0.011395039973;
  BAS[ATNO][  8].a[  6] =         0.418788000000;     BAS[ATNO][  8].d[  6] =         0.008125187090;
  BAS[ATNO][  8].a[  7] =         0.164627000000;     BAS[ATNO][  8].d[  7] =         0.002138970230;
  BAS[ATNO][  8].a[  8] =         0.057619000000;     BAS[ATNO][  8].d[  8] =         0.000018776422;
  BAS[ATNO][  8].a[  9] =       234.945000000000;     BAS[ATNO][  8].d[  9] =         0.000035061669;
  BAS[ATNO][  8].a[ 10] =        55.077385000000;     BAS[ATNO][  8].d[ 10] =         0.000283338698;
  BAS[ATNO][  8].a[ 11] =        17.389549000000;     BAS[ATNO][  8].d[ 11] =         0.001271577558;
  BAS[ATNO][  8].a[ 12] =         6.389537000000;     BAS[ATNO][  8].d[ 12] =         0.004439363496;
  BAS[ATNO][  8].a[ 13] =         2.542082000000;     BAS[ATNO][  8].d[ 13] =         0.007534477300;
  BAS[ATNO][  8].a[ 14] =         1.033764000000;     BAS[ATNO][  8].d[ 14] =        -0.000101706093;
  BAS[ATNO][  8].a[ 15] =         0.418788000000;     BAS[ATNO][  8].d[ 15] =        -0.009526100733;
  BAS[ATNO][  8].a[ 16] =         0.164627000000;     BAS[ATNO][  8].d[ 16] =        -0.005444283861;
  BAS[ATNO][  8].a[ 17] =         0.057619000000;     BAS[ATNO][  8].d[ 17] =        -0.000106418125;
  BAS[ATNO][  8].a[ 18] =       234.945000000000;     BAS[ATNO][  8].d[ 18] =        -0.000760097304;
  BAS[ATNO][  8].a[ 19] =        55.077385000000;     BAS[ATNO][  8].d[ 19] =        -0.007295535960;
  BAS[ATNO][  8].a[ 20] =        17.389549000000;     BAS[ATNO][  8].d[ 20] =        -0.030007601687;
  BAS[ATNO][  8].a[ 21] =         6.389537000000;     BAS[ATNO][  8].d[ 21] =        -0.139729801707;
  BAS[ATNO][  8].a[ 22] =         2.542082000000;     BAS[ATNO][  8].d[ 22] =        -0.049039884366;
  BAS[ATNO][  8].a[ 23] =         1.033764000000;     BAS[ATNO][  8].d[ 23] =         0.281177200171;
  BAS[ATNO][  8].a[ 24] =         0.418788000000;     BAS[ATNO][  8].d[ 24] =        -0.041061278667;
  BAS[ATNO][  8].a[ 25] =         0.164627000000;     BAS[ATNO][  8].d[ 25] =        -0.170056740507;
  BAS[ATNO][  8].a[ 26] =         0.057619000000;     BAS[ATNO][  8].d[ 26] =        -0.005404664893;
  BAS[ATNO][  8].a[ 27] =       234.945000000000;     BAS[ATNO][  8].d[ 27] =        -0.006014684180;
  BAS[ATNO][  8].a[ 28] =        55.077385000000;     BAS[ATNO][  8].d[ 28] =        -0.044790999898;
  BAS[ATNO][  8].a[ 29] =        17.389549000000;     BAS[ATNO][  8].d[ 29] =        -0.307481103118;
  BAS[ATNO][  8].a[ 30] =         6.389537000000;     BAS[ATNO][  8].d[ 30] =        -0.871500190661;
  BAS[ATNO][  8].a[ 31] =         2.542082000000;     BAS[ATNO][  8].d[ 31] =         1.617673257786;
  BAS[ATNO][  8].a[ 32] =         1.033764000000;     BAS[ATNO][  8].d[ 32] =        -0.485880066473;
  BAS[ATNO][  8].a[ 33] =         0.418788000000;     BAS[ATNO][  8].d[ 33] =        -0.933766263979;
  BAS[ATNO][  8].a[ 34] =         0.164627000000;     BAS[ATNO][  8].d[ 34] =         0.913980917851;
  BAS[ATNO][  8].a[ 35] =         0.057619000000;     BAS[ATNO][  8].d[ 35] =         0.008470331783;

  // Basis function  10 L = d
  InitBFNGauss(BAS[ATNO][  9]);
  BAS[ATNO][  9].l  = 2;
  BAS[ATNO][  9].ng = 12;
  BAS[ATNO][  9].a[  0] =         6.420000000000;     BAS[ATNO][  9].d[  0] =         0.145455247368;
  BAS[ATNO][  9].a[  1] =         2.247000000000;     BAS[ATNO][  9].d[  1] =         0.525943843981;
  BAS[ATNO][  9].a[  2] =         0.786450000000;     BAS[ATNO][  9].d[  2] =         0.421771460333;
  BAS[ATNO][  9].a[  3] =         0.275257500000;     BAS[ATNO][  9].d[  3] =         0.043051723391;
  BAS[ATNO][  9].a[  4] =         6.420000000000;     BAS[ATNO][  9].d[  4] =        -0.147412335238;
  BAS[ATNO][  9].a[  5] =         2.247000000000;     BAS[ATNO][  9].d[  5] =        -0.153389149594;
  BAS[ATNO][  9].a[  6] =         0.786450000000;     BAS[ATNO][  9].d[  6] =         0.244537530162;
  BAS[ATNO][  9].a[  7] =         0.275257500000;     BAS[ATNO][  9].d[  7] =         0.051990306419;
  BAS[ATNO][  9].a[  8] =         6.420000000000;     BAS[ATNO][  9].d[  8] =         0.061895216722;
  BAS[ATNO][  9].a[  9] =         2.247000000000;     BAS[ATNO][  9].d[  9] =        -0.061865755696;
  BAS[ATNO][  9].a[ 10] =         0.786450000000;     BAS[ATNO][  9].d[ 10] =         0.008080701844;
  BAS[ATNO][  9].a[ 11] =         0.275257500000;     BAS[ATNO][  9].d[ 11] =         0.033727191203;

  // Basis function  11 L = d
  InitBFNGauss(BAS[ATNO][ 10]);
  BAS[ATNO][ 10].l  = 2;
  BAS[ATNO][ 10].ng = 12;
  BAS[ATNO][ 10].a[  0] =         6.420000000000;     BAS[ATNO][ 10].d[  0] =        -0.044388870778;
  BAS[ATNO][ 10].a[  1] =         2.247000000000;     BAS[ATNO][ 10].d[  1] =        -0.160503342088;
  BAS[ATNO][ 10].a[  2] =         0.786450000000;     BAS[ATNO][ 10].d[  2] =        -0.128712845973;
  BAS[ATNO][ 10].a[  3] =         0.275257500000;     BAS[ATNO][ 10].d[  3] =        -0.013138181131;
  BAS[ATNO][ 10].a[  4] =         6.420000000000;     BAS[ATNO][ 10].d[  4] =        -0.425437186623;
  BAS[ATNO][ 10].a[  5] =         2.247000000000;     BAS[ATNO][ 10].d[  5] =        -0.442686483167;
  BAS[ATNO][ 10].a[  6] =         0.786450000000;     BAS[ATNO][ 10].d[  6] =         0.705743916802;
  BAS[ATNO][ 10].a[  7] =         0.275257500000;     BAS[ATNO][ 10].d[  7] =         0.150045853753;
  BAS[ATNO][ 10].a[  8] =         6.420000000000;     BAS[ATNO][ 10].d[  8] =         0.464602961493;
  BAS[ATNO][ 10].a[  9] =         2.247000000000;     BAS[ATNO][ 10].d[  9] =        -0.464381818719;
  BAS[ATNO][ 10].a[ 10] =         0.786450000000;     BAS[ATNO][ 10].d[ 10] =         0.060656028149;
  BAS[ATNO][ 10].a[ 11] =         0.275257500000;     BAS[ATNO][ 10].d[ 11] =         0.253165813869;

  // Basis function  12 L = d
  InitBFNGauss(BAS[ATNO][ 11]);
  BAS[ATNO][ 11].l  = 2;
  BAS[ATNO][ 11].ng = 12;
  BAS[ATNO][ 11].a[  0] =         6.420000000000;     BAS[ATNO][ 11].d[  0] =         0.011987631522;
  BAS[ATNO][ 11].a[  1] =         2.247000000000;     BAS[ATNO][ 11].d[  1] =         0.043345435224;
  BAS[ATNO][ 11].a[  2] =         0.786450000000;     BAS[ATNO][ 11].d[  2] =         0.034760113123;
  BAS[ATNO][ 11].a[  3] =         0.275257500000;     BAS[ATNO][ 11].d[  3] =         0.003548089228;
  BAS[ATNO][ 11].a[  4] =         6.420000000000;     BAS[ATNO][ 11].d[  4] =         0.213321666162;
  BAS[ATNO][ 11].a[  5] =         2.247000000000;     BAS[ATNO][ 11].d[  5] =         0.221970765946;
  BAS[ATNO][ 11].a[  6] =         0.786450000000;     BAS[ATNO][ 11].d[  6] =        -0.353872376345;
  BAS[ATNO][ 11].a[  7] =         0.275257500000;     BAS[ATNO][ 11].d[  7] =        -0.075235622389;
  BAS[ATNO][ 11].a[  8] =         6.420000000000;     BAS[ATNO][ 11].d[  8] =         0.969350654031;
  BAS[ATNO][ 11].a[  9] =         2.247000000000;     BAS[ATNO][ 11].d[  9] =        -0.968889260303;
  BAS[ATNO][ 11].a[ 10] =         0.786450000000;     BAS[ATNO][ 11].d[ 10] =         0.126553133385;
  BAS[ATNO][ 11].a[ 11] =         0.275257500000;     BAS[ATNO][ 11].d[ 11] =         0.528206807944;

  // Basis function  13 L = f
  InitBFNGauss(BAS[ATNO][ 12]);
  BAS[ATNO][ 12].l  = 3;
  BAS[ATNO][ 12].ng = 6;
  BAS[ATNO][ 12].a[  0] =         4.190000000000;     BAS[ATNO][ 12].d[  0] =         0.331463452065;
  BAS[ATNO][ 12].a[  1] =         1.676000000000;     BAS[ATNO][ 12].d[  1] =         0.536549384321;
  BAS[ATNO][ 12].a[  2] =         0.670400000000;     BAS[ATNO][ 12].d[  2] =         0.177222023924;
  BAS[ATNO][ 12].a[  3] =         4.190000000000;     BAS[ATNO][ 12].d[  3] =        -0.434711194555;
  BAS[ATNO][ 12].a[  4] =         1.676000000000;     BAS[ATNO][ 12].d[  4] =         0.186610723774;
  BAS[ATNO][ 12].a[  5] =         0.670400000000;     BAS[ATNO][ 12].d[  5] =         0.252093935546;

  // Basis function  14 L = f
  InitBFNGauss(BAS[ATNO][ 13]);
  BAS[ATNO][ 13].l  = 3;
  BAS[ATNO][ 13].ng = 6;
  BAS[ATNO][ 13].a[  0] =         4.190000000000;     BAS[ATNO][ 13].d[  0] =         0.167284755684;
  BAS[ATNO][ 13].a[  1] =         1.676000000000;     BAS[ATNO][ 13].d[  1] =         0.270788625743;
  BAS[ATNO][ 13].a[  2] =         0.670400000000;     BAS[ATNO][ 13].d[  2] =         0.089441363111;
  BAS[ATNO][ 13].a[  3] =         4.190000000000;     BAS[ATNO][ 13].d[  3] =         0.861350873340;
  BAS[ATNO][ 13].a[  4] =         1.676000000000;     BAS[ATNO][ 13].d[  4] =        -0.369756546209;
  BAS[ATNO][ 13].a[  5] =         0.670400000000;     BAS[ATNO][ 13].d[  5] =        -0.499507107860;

-------
TIMINGS
-------

Total SCF time: 0 days 0 hours 0 min 4 sec 

Total time                  ....       4.138 sec
Sum of individual times     ....       3.911 sec  ( 94.5%)

Fock matrix formation       ....       3.449 sec  ( 83.4%)
  XC integration            ....       0.019 sec  (  0.5% of F)
    Basis function eval.    ....       0.007 sec  ( 38.1% of XC)
    Density eval.           ....       0.001 sec  (  5.2% of XC)
    XC-Functional eval.     ....       0.001 sec  (  6.3% of XC)
    XC-Potential eval.      ....       0.001 sec  (  7.3% of XC)
Diagonalization             ....       0.001 sec  (  0.0%)
Density matrix formation    ....       0.000 sec  (  0.0%)
Population analysis         ....       0.001 sec  (  0.0%)
Initial guess               ....       0.084 sec  (  2.0%)
Orbital Transformation      ....       0.000 sec  (  0.0%)
Orbital Orthonormalization  ....       0.000 sec  (  0.0%)
DIIS solution               ....       0.000 sec  (  0.0%)
SOSCF solution              ....       0.001 sec  (  0.0%)
Grid generation             ....       0.375 sec  (  9.1%)

-------------------------   --------------------
FINAL SINGLE POINT ENERGY       -93.191871522128
-------------------------   --------------------


                            ***************************************
                            *     ORCA property calculations      *
                            ***************************************

                                    ---------------------
                                    Active property flags
                                    ---------------------
   (+) Dipole Moment


------------------------------------------------------------------------------
                       ORCA ELECTRIC PROPERTIES CALCULATION
------------------------------------------------------------------------------

Dipole Moment Calculation                       ... on
Quadrupole Moment Calculation                   ... off
Polarizability Calculation                      ... off
GBWName                                         ... Ne_ano-rcc-qzp_.gbw
Electron density file                           ... Ne_ano-rcc-qzp_.scfp
The origin for moment calculation is the CENTER OF MASS  = ( 0.000000,  0.000000  0.000000)

-------------
DIPOLE MOMENT
-------------
                                X             Y             Z
Electronic contribution:      0.00000       0.00000       0.00000
Nuclear contribution   :      0.00000       0.00000       0.00000
                        -----------------------------------------
Total Dipole Moment    :      0.00000       0.00000       0.00000
                        -----------------------------------------
Magnitude (a.u.)       :      0.00000
Magnitude (Debye)      :      0.00000



--------------------
Rotational spectrum 
--------------------
 
Rotational constants in cm-1:     0.000000     0.000000     0.000000 
Rotational constants in MHz :     0.000000     0.000000     0.000000 

 Dipole components along the rotational axes: 
x,y,z [a.u.] :     0.000000     0.000000     0.000000 
x,y,z [Debye]:     0.000000     0.000000     0.000000 

 

Timings for individual modules:

Sum of individual times         ...        4.727 sec (=   0.079 min)
GTO integral calculation        ...        0.346 sec (=   0.006 min)   7.3 %
SCF iterations                  ...        4.381 sec (=   0.073 min)  92.7 %
                             ****ORCA TERMINATED NORMALLY****
TOTAL RUN TIME: 0 days 0 hours 0 minutes 5 seconds 56 msec
