
                                 *****************
                                 * O   R   C   A *
                                 *****************

           --- An Ab Initio, DFT and Semiempirical electronic structure package ---

                  #######################################################
                  #                        -***-                        #
                  #          Department of theory and spectroscopy      #
                  #               Directorship: Frank Neese             #
                  #        Max Planck Institute fuer Kohlenforschung    #
                  #                Kaiser Wilhelm Platz 1               #
                  #                 D-45470 Muelheim/Ruhr               #
                  #                      Germany                        #
                  #                                                     #
                  #                  All rights reserved                #
                  #                        -***-                        #
                  #######################################################


                         Program Version 4.2.1 -  RELEASE  -


 With contributions from (in alphabetic order):
   Daniel Aravena         : Magnetic Suceptibility
   Michael Atanasov       : Ab Initio Ligand Field Theory (pilot matlab implementation)
   Alexander A. Auer      : GIAO ZORA, VPT2
   Ute Becker             : Parallelization
   Giovanni Bistoni       : ED, misc. LED, open-shell LED, HFLD
   Martin Brehm           : Molecular dynamics
   Dmytro Bykov           : SCF Hessian
   Vijay G. Chilkuri      : MRCI spin determinant printing, contributions to CSF-ICE
   Dipayan Datta          : RHF DLPNO-CCSD density
   Achintya Kumar Dutta   : EOM-CC, STEOM-CC
   Dmitry Ganyushin       : Spin-Orbit,Spin-Spin,Magnetic field MRCI
   Miquel Garcia          : C-PCM Hessian, Gaussian charge scheme
   Yang Guo               : DLPNO-NEVPT2, CIM, IAO-localization
   Andreas Hansen         : Spin unrestricted coupled pair/coupled cluster methods
   Benjamin Helmich-Paris : CASSCF linear response (MC-RPA)
   Lee Huntington         : MR-EOM, pCC
   Robert Izsak           : Overlap fitted RIJCOSX, COSX-SCS-MP3, EOM
   Christian Kollmar      : KDIIS, OOCD, Brueckner-CCSD(T), CCSD density
   Simone Kossmann        : Meta GGA functionals, TD-DFT gradient, OOMP2, MP2 Hessian
   Martin Krupicka        : AUTO-CI
   Lucas Lang             : DCDCAS
   Dagmar Lenk            : GEPOL surface, SMD
   Dimitrios Liakos       : Extrapolation schemes; Compound Job, initial MDCI parallelization
   Dimitrios Manganas     : Further ROCIS development; embedding schemes
   Dimitrios Pantazis     : SARC Basis sets
   Taras Petrenko         : DFT Hessian,TD-DFT gradient, ASA, ECA, R-Raman, ABS, FL, XAS/XES, NRVS
   Peter Pinski           : DLPNO-MP2, DLPNO-MP2 Gradient
   Christoph Reimann      : Effective Core Potentials
   Marius Retegan         : Local ZFS, SOC
   Christoph Riplinger    : Optimizer, TS searches, QM/MM, DLPNO-CCSD(T), (RO)-DLPNO pert. Triples
   Tobias Risthaus        : Range-separated hybrids, TD-DFT gradient, RPA, STAB
   Michael Roemelt        : Original ROCIS implementation
   Masaaki Saitow         : Open-shell DLPNO-CCSD energy and density
   Barbara Sandhoefer     : DKH picture change effects
   Avijit Sen             : IP-ROCIS
   Kantharuban Sivalingam : CASSCF convergence, NEVPT2, FIC-MRCI
   Bernardo de Souza      : ESD, SOC TD-DFT
   Georgi Stoychev        : AutoAux, RI-MP2 NMR
   Willem Van den Heuvel  : Paramagnetic NMR
   Boris Wezisla          : Elementary symmetry handling
   Frank Wennmohs         : Technical directorship


 We gratefully acknowledge several colleagues who have allowed us to
 interface, adapt or use parts of their codes:
   Stefan Grimme, W. Hujo, H. Kruse,             : VdW corrections, initial TS optimization,
                  C. Bannwarth                     DFT functionals, gCP, sTDA/sTD-DF
   Ed Valeev, F. Pavosevic, A. Kumar             : LibInt (2-el integral package), F12 methods
   Garnet Chan, S. Sharma, J. Yang, R. Olivares  : DMRG
   Ulf Ekstrom                                   : XCFun DFT Library
   Mihaly Kallay                                 : mrcc  (arbitrary order and MRCC methods)
   Andreas Klamt, Michael Diedenhofen            : otool_cosmo (COSMO solvation model)
   Jiri Pittner, Ondrej Demel                    : Mk-CCSD
   Frank Weinhold                                : gennbo (NPA and NBO analysis)
   Christopher J. Cramer and Donald G. Truhlar   : smd solvation model
   Lars Goerigk                                  : TD-DFT with DH, B97 family of functionals
   V. Asgeirsson, H. Jonsson                     : NEB implementation
   FAccTs GmbH                                   : IRC, NEB, NEB-TS, Multilevel, MM, QM/MM, CI optimization
   S Lehtola, MJT Oliveira, MAL Marques          : LibXC Library


 Your calculation uses the libint2 library for the computation of 2-el integrals
 For citations please refer to: http://libint.valeyev.net

 Your ORCA version has been built with support for libXC version: 4.2.3
 For citations please refer to: https://tddft.org/programs/libxc/

 This ORCA versions uses:
   CBLAS   interface :  Fast vector & matrix operations
   LAPACKE interface :  Fast linear algebra routines
   SCALAPACK package :  Parallel linear algebra routines


----- Orbital basis set information -----
Your calculation utilizes the basis: ANO-RCC-TZP
   H, He:       P.-O. Widmark, P.-A. Malmqvist, and B. O. Roos, Theor. Chim. Acta 77, 291 (1990).
   s block:     B. O. Roos, V. Veryazov and P.-O. Widmark, Theor. Chem. Acc. 111, 345 (2004).
   p block:     B. O. Roos, R. Lindh, P.-A. Malmqvist, V. Veryazov, and P.-O. Widmark, J. Phys. Chem. A 108, 2851 (2004).
   d block:     B. O. Roos, R. Lindh, P.-A. Malmqvist, V. Veryazov, and P.-O. Widmark, J. Phys. Chem. A 109, 6575 (2005).
   actinides:   B. O. Roos, R. Lindh, P.-A. Malmqvist, V. Veryazov, and P.-O. Widmark, Chem. Phys. Letters 409, 295 (2005).
   lanthanides: B. O. Roos, R. Lindh, P.-A. Malmqvist, V. Veryazov, P.-O. Widmark and A. C. Borin, J. Phys. Chem. A 112, 11431 (2008).

================================================================================
                                        WARNINGS
                       Please study these warnings very carefully!
================================================================================


INFO   : the flag for use of LIBINT has been found!

================================================================================
                                       INPUT FILE
================================================================================
NAME = Ne_ano-rcc-tzp_.inp
|  1> ! LDA ano-rcc-tzp nori grid5 finalgrid6 verytightscf
|  2> %Pal NProcs 18 End
|  3> 
|  4> *xyz 8 1
|  5> Ne 0.0 0.0 0.0
|  6> **                         ****END OF INPUT****
================================================================================

                       ****************************
                       * Single Point Calculation *
                       ****************************

---------------------------------
CARTESIAN COORDINATES (ANGSTROEM)
---------------------------------
  Ne     0.000000    0.000000    0.000000

----------------------------
CARTESIAN COORDINATES (A.U.)
----------------------------
  NO LB      ZA    FRAG     MASS         X           Y           Z
   0 Ne   10.0000    0    20.179    0.000000    0.000000    0.000000

--------------------------------
INTERNAL COORDINATES (ANGSTROEM)
--------------------------------
 Ne     0   0   0     0.000000000000     0.00000000     0.00000000

---------------------------
INTERNAL COORDINATES (A.U.)
---------------------------
 Ne     0   0   0     0.000000000000     0.00000000     0.00000000

---------------------
BASIS SET INFORMATION
---------------------
There are 1 groups of distinct atoms

 Group   1 Type Ne  : 56s27p8d3f contracted to 4s3p2d1f pattern {14141414/999/44/3}

Atom   0Ne   basis set group =>   1


           ************************************************************
           *        Program running with 18 parallel MPI-processes    *
           *              working on a common directory               *
           ************************************************************


------------------------------------------------------------------------------
                       ORCA GTO INTEGRAL CALCULATION
                     -- ANO INTEGRAL GENERATION BRANCH --
------------------------------------------------------------------------------


Gathering ANO information                         ... done
Calculation Information:
Number of atoms                                   ... 1
Number of basis functions                         ... 30
Highest angular momentum                          ... 3
Number of primitive shells                        ... 30
Total number of shells                            ... 10
Maximum number of shells                          ... 10

Getting memory                                    ... done
Making prescreening integrals                     ... done
Gathering atom contracted prescreening            ... done
Making one-electron integrals                     ... done

Timings:

Total time                                        ...    0.1 sec
Prescreening matrix                               ...    0.1 sec
One-electron matrix                               ...    0.0 sec
Two-index integrals + Cholesky                    ...    0.0 sec


           ************************************************************
           *        Program running with 18 parallel MPI-processes    *
           *              working on a common directory               *
           ************************************************************
-------------------------------------------------------------------------------
                                 ORCA SCF
-------------------------------------------------------------------------------

------------
SCF SETTINGS
------------
Hamiltonian:
 Density Functional     Method          .... DFT(GTOs)
 Exchange Functional    Exchange        .... Slater
   X-Alpha parameter    XAlpha          ....  0.666667
 Correlation Functional Correlation     .... VWN-5
 Gradients option       PostSCFGGA      .... off
   Density functional embedding theory  .... OFF


General Settings:
 Integral files         IntName         .... Ne_ano-rcc-tzp_
 Hartree-Fock type      HFTyp           .... RHF
 Total Charge           Charge          ....    8
 Multiplicity           Mult            ....    1
 Number of Electrons    NEL             ....    2
 Basis Dimension        Dim             ....   30
 Nuclear Repulsion      ENuc            ....      0.0000000000 Eh

Convergence Acceleration:
 DIIS                   CNVDIIS         .... on
   Start iteration      DIISMaxIt       ....    12
   Startup error        DIISStart       ....  0.200000
   # of expansion vecs  DIISMaxEq       ....     5
   Bias factor          DIISBfac        ....   1.050
   Max. coefficient     DIISMaxC        ....  10.000
 Newton-Raphson         CNVNR           .... off
 SOSCF                  CNVSOSCF        .... on
   Start iteration      SOSCFMaxIt      ....   150
   Startup grad/error   SOSCFStart      ....  0.003300
 Level Shifting         CNVShift        .... on
   Level shift para.    LevelShift      ....    0.2500
   Turn off err/grad.   ShiftErr        ....    0.0010
 Zerner damping         CNVZerner       .... off
 Static damping         CNVDamp         .... on
   Fraction old density DampFac         ....    0.7000
   Max. Damping (<1)    DampMax         ....    0.9800
   Min. Damping (>=0)   DampMin         ....    0.0000
   Turn off err/grad.   DampErr         ....    0.1000
 Fernandez-Rico         CNVRico         .... off

SCF Procedure:
 Maximum # iterations   MaxIter         ....   125
 SCF integral mode      SCFMode         .... Direct
   Integral package                     .... LIBINT
 Reset frequency        DirectResetFreq ....    20
 Integral Threshold     Thresh          ....  1.000e-12 Eh
 Primitive CutOff       TCut            ....  1.000e-14 Eh

Convergence Tolerance:
 Convergence Check Mode ConvCheckMode   .... Total+1el-Energy
 Convergence forced     ConvForced      .... 0
 Energy Change          TolE            ....  1.000e-09 Eh
 1-El. energy change                    ....  1.000e-06 Eh
 Orbital Gradient       TolG            ....  2.000e-06
 Orbital Rotation angle TolX            ....  2.000e-06
 DIIS Error             TolErr          ....  1.000e-08


Diagonalization of the overlap matrix:
Smallest eigenvalue                        ... 1.000e+00
Time for diagonalization                   ...    0.001 sec
Threshold for overlap eigenvalues          ... 1.000e-08
Number of eigenvalues below threshold      ... 0
Time for construction of square roots      ...    0.001 sec
Total time needed                          ...    0.002 sec

-------------------
DFT GRID GENERATION
-------------------

General Integration Accuracy     IntAcc      ...  5.010
Radial Grid Type                 RadialGrid  ... Gauss-Chebyshev
Angular Grid (max. acc.)         AngularGrid ... Lebedev-434
Angular grid pruning method      GridPruning ... 3 (G Style)
Weight generation scheme         WeightScheme... Becke
Basis function cutoff            BFCut       ...    1.0000e-12
Integration weight cutoff        WCut        ...    1.0000e-14
Grids for H and He will be reduced by one unit

# of grid points (after initial pruning)     ...  10818 (   0.0 sec)
# of grid points (after weights+screening)   ...  10818 (   0.0 sec)
Grid point division into batches done        ...    0.1 sec
Reduced shell lists constructed in    0.1 sec

Total number of grid points                  ...    10818
Total number of batches                      ...      170
Average number of points per batch           ...       63
Average number of grid points per atom       ...    10818
Average number of shells per batch           ...     4.00 (40.00%)
Average number of basis functions per batch  ...     9.45 (31.52%)
Average number of large shells per batch     ...     2.18 (54.55%)
Average number of large basis fcns per batch ...     5.82 (61.54%)
Maximum spatial batch extension              ...  16.29, 16.29, 16.29 au
Average spatial batch extension              ...   0.85,  0.86,  0.85 au

Time for grid setup =    0.133 sec

------------------------------
INITIAL GUESS: MODEL POTENTIAL
------------------------------
Loading Hartree-Fock densities                     ... done
Calculating cut-offs                               ... done
Setting up the integral package                    ... done
Initializing the effective Hamiltonian             ... done
Starting the Coulomb interaction                   ... done (   0.0 sec)
Reading the grid                                   ... done
Mapping shells                                     ... done
Starting the XC term evaluation                    ... done (   0.0 sec)
  promolecular density results
     # of electrons  =     10.000000232
     EX              =    -11.033501327
     EC              =     -0.746381123
     EX+EC           =    -11.779882450
Transforming the Hamiltonian                       ... done (   0.0 sec)
Diagonalizing the Hamiltonian                      ... done (   0.0 sec)
Back transforming the eigenvectors                 ... done (   0.0 sec)
Now organizing SCF variables                       ... done
                      ------------------
                      INITIAL GUESS DONE (   0.2 sec)
                      ------------------
--------------
SCF ITERATIONS
--------------
ITER       Energy         Delta-E        Max-DP      RMS-DP      [F,P]     Damp
               ***  Starting incremental Fock matrix formation  ***
  0    -93.1805142395   0.000000000000 0.00521104  0.00025175  0.5490995 0.7000
                      *** Initiating the SOSCF procedure ***
                      *** Re-Reading the Fockian *** 
                      *** Removing any level shift *** 
ITER      Energy       Delta-E        Grad      Rot      Max-DP    RMS-DP
  1    -93.18394537  -0.0034311323  0.001274  0.001274  0.012172  0.000586
               *** Restarting incremental Fock matrix formation ***
  2    -93.19172017  -0.0077747937  0.006337  0.000188  0.000300  0.000017
  3    -93.19172475  -0.0000045839  0.000180  0.000005  0.000008  0.000000
                  ***Gradient check signals convergence***
              ***Rediagonalizing the Fockian in SOSCF/NRSCF***

               *****************************************************
               *                     SUCCESS                       *
               *           SCF CONVERGED AFTER   4 CYCLES          *
               *****************************************************

Setting up the final grid:

General Integration Accuracy     IntAcc      ...  5.340
Radial Grid Type                 RadialGrid  ... Gauss-Chebyshev
Angular Grid (max. acc.)         AngularGrid ... Lebedev-590
Angular grid pruning method      GridPruning ... 3 (G Style)
Weight generation scheme         WeightScheme... Becke
Basis function cutoff            BFCut       ...    1.0000e-12
Integration weight cutoff        WCut        ...    1.0000e-14
Grids for H and He will be reduced by one unit

# of grid points (after initial pruning)     ...  16840 (   0.0 sec)
# of grid points (after weights+screening)   ...  16840 (   0.0 sec)
Grid point division into batches done        ...    0.2 sec
Reduced shell lists constructed in    0.2 sec

Total number of grid points                  ...    16840
Total number of batches                      ...      264
Average number of points per batch           ...       63
Average number of grid points per atom       ...    16840
Average number of shells per batch           ...     1.12 (11.25%)
Average number of basis functions per batch  ...     3.38 (11.25%)
Average number of large shells per batch     ...     1.12 (100.00%)
Average number of large basis fcns per batch ...     3.38 (100.00%)
Maximum spatial batch extension              ...  16.63, 16.63, 16.63 au
Average spatial batch extension              ...   0.74,  0.74,  0.69 au

Final grid set up in    0.2 sec
Final integration                            ... done (   0.0 sec)
Change in XC energy                          ...    -0.000000701
Integrated number of electrons               ...     2.000000062
Previous integrated no of electrons          ...     1.999999970

----------------
TOTAL SCF ENERGY
----------------

Total Energy       :          -93.19172545 Eh           -2535.87577 eV

Components:
Nuclear Repulsion  :            0.00000000 Eh               0.00000 eV
Electronic Energy  :          -93.19172545 Eh           -2535.87577 eV
One Electron Energy:          -99.84263185 Eh           -2716.85613 eV
Two Electron Energy:            6.65090640 Eh             180.98036 eV

Virial components:
Potential Energy   :         -187.03246734 Eh           -5089.41218 eV
Kinetic Energy     :           93.84074189 Eh            2553.53641 eV
Virial Ratio       :            1.99308385


DFT components:
N(Alpha)           :        1.000000030756 electrons
N(Beta)            :        1.000000030756 electrons
N(Total)           :        2.000000061512 electrons
E(X)               :       -5.156518467379 Eh       
E(C)               :       -0.202748534937 Eh       
E(XC)              :       -5.359267002317 Eh       
DFET-embed. en.    :        0.000000000000 Eh       

---------------
SCF CONVERGENCE
---------------

  Last Energy change         ...   -3.7411e-09  Tolerance :   1.0000e-09
  Last MAX-Density change    ...    2.6157e-10  Tolerance :   1.0000e-08
  Last RMS-Density change    ...    1.2455e-11  Tolerance :   1.0000e-09
  Last Orbital Gradient      ...    5.6941e-09  Tolerance :   2.0000e-06
  Last Orbital Rotation      ...    1.3442e-10  Tolerance :   2.0000e-06

             **** THE GBW FILE WAS UPDATED (Ne_ano-rcc-tzp_.gbw) ****
             **** DENSITY FILE WAS UPDATED (Ne_ano-rcc-tzp_.scfp) ****
             **** ENERGY FILE WAS UPDATED (Ne_ano-rcc-tzp_.en.tmp) ****
             **** THE GBW FILE WAS UPDATED (Ne_ano-rcc-tzp_.gbw) ****
             **** DENSITY FILE WAS UPDATED (Ne_ano-rcc-tzp_.scfp) ****
----------------
ORBITAL ENERGIES
----------------

  NO   OCC          E(Eh)            E(eV) 
   0   2.0000     -41.459402     -1128.1677 
   1   0.0000      -9.047498      -246.1949 
   2   0.0000      -8.613481      -234.3847 
   3   0.0000      -8.613481      -234.3847 
   4   0.0000      -8.613481      -234.3847 
   5   0.0000      -3.827866      -104.1615 
   6   0.0000      -3.669175       -99.8433 
   7   0.0000      -3.669175       -99.8433 
   8   0.0000      -3.669175       -99.8433 
   9   0.0000      -3.573517       -97.2403 
  10   0.0000      -3.573517       -97.2403 
  11   0.0000      -3.573517       -97.2403 
  12   0.0000      -3.573517       -97.2403 
  13   0.0000      -3.573517       -97.2403 
  14   0.0000      -1.595945       -43.4279 
  15   0.0000      -1.595945       -43.4279 
  16   0.0000      -1.595945       -43.4279 
  17   0.0000      -0.127750        -3.4763 
  18   0.0000       0.617966        16.8157 
  19   0.0000       0.617966        16.8157 
  20   0.0000       0.617966        16.8157 
  21   0.0000       0.617966        16.8157 
  22   0.0000       0.617966        16.8157 
  23   0.0000       0.617966        16.8157 
  24   0.0000       0.617966        16.8157 
  25   0.0000       0.804724        21.8977 
  26   0.0000       0.804724        21.8977 
  27   0.0000       0.804724        21.8977 
  28   0.0000       0.804724        21.8977 
  29   0.0000       0.804724        21.8977 

                    ********************************
                    * MULLIKEN POPULATION ANALYSIS *
                    ********************************

-----------------------
MULLIKEN ATOMIC CHARGES
-----------------------
   0 Ne:    8.000000
Sum of atomic charges:    8.0000000

--------------------------------
MULLIKEN REDUCED ORBITAL CHARGES
--------------------------------
  0 Nes       :     2.000000  s :     2.000000
      pz      :     0.000000  p :     0.000000
      px      :     0.000000
      py      :     0.000000
      dz2     :     0.000000  d :     0.000000
      dxz     :     0.000000
      dyz     :     0.000000
      dx2y2   :     0.000000
      dxy     :     0.000000
      f0      :     0.000000  f :     0.000000
      f+1     :     0.000000
      f-1     :     0.000000
      f+2     :     0.000000
      f-2     :     0.000000
      f+3     :     0.000000
      f-3     :     0.000000


                     *******************************
                     * LOEWDIN POPULATION ANALYSIS *
                     *******************************

----------------------
LOEWDIN ATOMIC CHARGES
----------------------
   0 Ne:    8.000000

-------------------------------
LOEWDIN REDUCED ORBITAL CHARGES
-------------------------------
  0 Nes       :     2.000000  s :     2.000000
      pz      :     0.000000  p :     0.000000
      px      :     0.000000
      py      :     0.000000
      dz2     :     0.000000  d :     0.000000
      dxz     :     0.000000
      dyz     :     0.000000
      dx2y2   :     0.000000
      dxy     :     0.000000
      f0      :     0.000000  f :     0.000000
      f+1     :     0.000000
      f-1     :     0.000000
      f+2     :     0.000000
      f-2     :     0.000000
      f+3     :     0.000000
      f-3     :     0.000000


                      *****************************
                      * MAYER POPULATION ANALYSIS *
                      *****************************

  NA   - Mulliken gross atomic population
  ZA   - Total nuclear charge
  QA   - Mulliken gross atomic charge
  VA   - Mayer's total valence
  BVA  - Mayer's bonded valence
  FA   - Mayer's free valence

  ATOM       NA         ZA         QA         VA         BVA        FA
  0 Ne     2.0000    10.0000     8.0000    -0.0000     0.0000    -0.0000

  Mayer bond orders larger than 0.100000


--------------------------
ATOM BASIS FOR ELEMENT Ne
--------------------------
 NewGTO Ne
 S 56
    1     166165.079999999987         0.000153217999
    2      23107.524000000001         0.000635241702
    3       5060.153900000000         0.002574946364
    4       1384.612300000000         0.010128717690
    5        436.512580000000         0.035833741908
    6        153.471480000000         0.105524891540
    7         59.389087000000         0.238259657639
    8         24.861967000000         0.369251786503
    9         11.015704000000         0.305195613262
   10          4.965175000000         0.083724036322
   11          1.936503000000         0.003641492432
   12          0.765728000000         0.000957467493
   13          0.295538000000         0.000034219553
   14          0.103438000000         0.000025849662
   15     166165.079999999987         0.000000174355
   16      23107.524000000001         0.000000722800
   17       5060.153900000000         0.000002941288
   18       1384.612300000000         0.000011592898
   19        436.512580000000         0.000041805284
   20        153.471480000000         0.000127167242
   21         59.389087000000         0.000316598350
   22         24.861967000000         0.000591570694
   23         11.015704000000         0.000759912570
   24          4.965175000000         0.000035771582
   25          1.936503000000        -0.001874317635
   26          0.765728000000        -0.002656241302
   27          0.295538000000        -0.000886464168
   28          0.103438000000         0.000000904993
   29     166165.079999999987         0.000000082788
   30      23107.524000000001         0.000000340501
   31       5060.153900000000         0.000001410363
   32       1384.612300000000         0.000005418927
   33        436.512580000000         0.000020345197
   34        153.471480000000         0.000059663767
   35         59.389087000000         0.000162798808
   36         24.861967000000         0.000287037525
   37         11.015704000000         0.000526755950
   38          4.965175000000        -0.000446394890
   39          1.936503000000        -0.002294506957
   40          0.765728000000         0.000838335877
   41          0.295538000000         0.001473907331
   42          0.103438000000         0.000018635337
   43     166165.079999999987        -0.000000006617
   44      23107.524000000001        -0.000000025832
   45       5060.153900000000        -0.000000119564
   46       1384.612300000000        -0.000000384325
   47        436.512580000000        -0.000001838956
   48        153.471480000000        -0.000003997986
   49         59.389087000000        -0.000017044906
   50         24.861967000000        -0.000015423525
   51         11.015704000000        -0.000085278567
   52          4.965175000000         0.000209036910
   53          1.936503000000         0.000010236726
   54          0.765728000000        -0.000265801780
   55          0.295538000000         0.000186723084
   56          0.103438000000         0.000010512332
 S 54
    1     166165.079999999987        -0.000000781480
    2      23107.524000000001        -0.000003240014
    3       5060.153900000000        -0.000013133367
    4       1384.612300000000        -0.000051660946
    5        436.512580000000        -0.000182767954
    6        153.471480000000        -0.000538223683
    7         59.389087000000        -0.001215229777
    8         24.861967000000        -0.001883347649
    9         11.015704000000        -0.001556632796
   10          4.965175000000        -0.000427029666
   11          1.936503000000        -0.000018573224
   12          0.765728000000        -0.000004883508
   13     166165.079999999987         0.000034610975
   14      23107.524000000001         0.000143481845
   15       5060.153900000000         0.000583870447
   16       1384.612300000000         0.002301288268
   17        436.512580000000         0.008298702270
   18        153.471480000000         0.025243772532
   19         59.389087000000         0.062847448643
   20         24.861967000000         0.117431783219
   21         11.015704000000         0.150849068380
   22          4.965175000000         0.007100961403
   23          1.936503000000        -0.372067893678
   24          0.765728000000        -0.527286350947
   25          0.295538000000        -0.175970630395
   26          0.103438000000         0.000179648796
   27     166165.079999999987         0.000014359536
   28      23107.524000000001         0.000059059838
   29       5060.153900000000         0.000244627534
   30       1384.612300000000         0.000939913188
   31        436.512580000000         0.003528875617
   32        153.471480000000         0.010348684091
   33         59.389087000000         0.028237463427
   34         24.861967000000         0.049786676747
   35         11.015704000000         0.091365852535
   36          4.965175000000        -0.077427221585
   37          1.936503000000        -0.397982375554
   38          0.765728000000         0.145409410432
   39          0.295538000000         0.255649318928
   40          0.103438000000         0.003232300442
   41     166165.079999999987         0.000001839559
   42      23107.524000000001         0.000007181457
   43       5060.153900000000         0.000033239405
   44       1384.612300000000         0.000106844406
   45        436.512580000000         0.000511239171
   46        153.471480000000         0.001111460406
   47         59.389087000000         0.004738570089
   48         24.861967000000         0.004287817908
   49         11.015704000000         0.023707872973
   50          4.965175000000        -0.058113318452
   51          1.936503000000        -0.002845861512
   52          0.765728000000         0.073894239476
   53          0.295538000000        -0.051909961974
   54          0.103438000000        -0.002922481490
 S 54
    1     166165.079999999987         0.000000037671
    2      23107.524000000001         0.000000156183
    3       5060.153900000000         0.000000633087
    4       1384.612300000000         0.000002490290
    5        436.512580000000         0.000008810238
    6        153.471480000000         0.000025944804
    7         59.389087000000         0.000058579545
    8         24.861967000000         0.000090785834
    9         11.015704000000         0.000075036707
   10          4.965175000000         0.000020584752
   11          1.936503000000         0.000000895313
   12          0.765728000000         0.000000235407
   13     166165.079999999987         0.000011286515
   14      23107.524000000001         0.000046788917
   15       5060.153900000000         0.000190398065
   16       1384.612300000000         0.000750441875
   17        436.512580000000         0.002706177134
   18        153.471480000000         0.008231903951
   19         59.389087000000         0.020494328259
   20         24.861967000000         0.038294084571
   21         11.015704000000         0.049191341761
   22          4.965175000000         0.002315598120
   23          1.936503000000        -0.121330009611
   24          0.765728000000        -0.171946193464
   25          0.295538000000        -0.057383393299
   26          0.103438000000         0.000058582830
   27     166165.079999999987        -0.000043174667
   28      23107.524000000001        -0.000177574597
   29       5060.153900000000        -0.000735519045
   30       1384.612300000000        -0.002826027137
   31        436.512580000000        -0.010610233355
   32        153.471480000000        -0.031115280061
   33         59.389087000000        -0.084901285521
   34         24.861967000000        -0.149693079500
   35         11.015704000000        -0.274708751831
   36          4.965175000000         0.232799616151
   37          1.936503000000         1.196609440024
   38          0.765728000000        -0.437200951297
   39          0.295538000000        -0.768658129495
   40          0.103438000000        -0.009718523883
   41     166165.079999999987         0.000006064559
   42      23107.524000000001         0.000023675432
   43       5060.153900000000         0.000109581846
   44       1384.612300000000         0.000352238778
   45        436.512580000000         0.001685425262
   46        153.471480000000         0.003664201712
   47         59.389087000000         0.015621857994
   48         24.861967000000         0.014135842925
   49         11.015704000000         0.078158815424
   50          4.965175000000        -0.191584801203
   51          1.936503000000        -0.009382080158
   52          0.765728000000         0.243610476174
   53          0.295538000000        -0.171133915773
   54          0.103438000000        -0.009634676701
 S 54
    1     166165.079999999987        -0.000000039298
    2      23107.524000000001        -0.000000162929
    3       5060.153900000000        -0.000000660431
    4       1384.612300000000        -0.000002597848
    5        436.512580000000        -0.000009190762
    6        153.471480000000        -0.000027065389
    7         59.389087000000        -0.000061109660
    8         24.861967000000        -0.000094706973
    9         11.015704000000        -0.000078277625
   10          4.965175000000        -0.000021473830
   11          1.936503000000        -0.000000933983
   12          0.765728000000        -0.000000245575
   13     166165.079999999987         0.000002335595
   14      23107.524000000001         0.000009682348
   15       5060.153900000000         0.000039400363
   16       1384.612300000000         0.000155294027
   17        436.512580000000         0.000560007590
   18        153.471480000000         0.001703483720
   19         59.389087000000         0.004241030356
   20         24.861967000000         0.007924454662
   21         11.015704000000         0.010179498007
   22          4.965175000000         0.000479182425
   23          1.936503000000        -0.025107641848
   24          0.765728000000        -0.035581992094
   25          0.295538000000        -0.011874734797
   26          0.103438000000         0.000012122942
   27     166165.079999999987        -0.000004161868
   28      23107.524000000001        -0.000017117491
   29       5060.153900000000        -0.000070901137
   30       1384.612300000000        -0.000272417879
   31        436.512580000000        -0.001022784683
   32        153.471480000000        -0.002999390379
   33         59.389087000000        -0.008184149345
   34         24.861967000000        -0.014429822953
   35         11.015704000000        -0.026480841104
   36          4.965175000000         0.022440965580
   37          1.936503000000         0.115348434421
   38          0.765728000000        -0.042144448784
   39          0.295538000000        -0.074095614556
   40          0.103438000000        -0.000936827404
   41     166165.079999999987        -0.000056566099
   42      23107.524000000001        -0.000220828404
   43       5060.153900000000        -0.001022105277
   44       1384.612300000000        -0.003285444867
   45        436.512580000000        -0.015720505865
   46        153.471480000000        -0.034177193022
   47         59.389087000000        -0.145710115873
   48         24.861967000000        -0.131849573291
   49         11.015704000000        -0.729012519271
   50          4.965175000000         1.786973328877
   51          1.936503000000         0.087509692344
   52          0.765728000000        -2.272233605299
   53          0.295538000000         1.596221314179
   54          0.103438000000         0.089865741901
 P 27
    1        234.945000000000         0.001492890152
    2         55.077385000000         0.011512484283
    3         17.389549000000         0.051912179878
    4          6.389537000000         0.152400583698
    5          2.542082000000         0.280628802699
    6          1.033764000000         0.332812854911
    7          0.418788000000         0.237310857933
    8          0.164627000000         0.062472513529
    9          0.057619000000         0.000548399528
   10        234.945000000000         0.000947029640
   11         55.077385000000         0.007653090996
   12         17.389549000000         0.034345815896
   13          6.389537000000         0.119908974766
   14          2.542082000000         0.203509230358
   15          1.033764000000        -0.002747122046
   16          0.418788000000        -0.257303771875
   17          0.164627000000        -0.147052273746
   18          0.057619000000        -0.002874395896
   19        234.945000000000         0.000377689916
   20         55.077385000000         0.003625128452
   21         17.389549000000         0.014910681171
   22          6.389537000000         0.069431290946
   23          2.542082000000         0.024367761478
   24          1.033764000000        -0.139716050218
   25          0.418788000000         0.020403217860
   26          0.164627000000         0.084500649705
   27          0.057619000000         0.002685560675
 P 27
    1        234.945000000000        -0.000756597055
    2         55.077385000000        -0.005834529551
    3         17.389549000000        -0.026309104111
    4          6.389537000000        -0.077236649134
    5          2.542082000000        -0.142222738556
    6          1.033764000000        -0.168669627625
    7          0.418788000000        -0.120269194679
    8          0.164627000000        -0.031661083513
    9          0.057619000000        -0.000277929001
   10        234.945000000000         0.001894504593
   11         55.077385000000         0.015309780635
   12         17.389549000000         0.068707781915
   13          6.389537000000         0.239874333247
   14          2.542082000000         0.407114155024
   15          1.033764000000        -0.005495535847
   16          0.418788000000        -0.514728533380
   17          0.164627000000        -0.294173694556
   18          0.057619000000        -0.005750143393
   19        234.945000000000         0.000587754409
   20         55.077385000000         0.005641361177
   21         17.389549000000         0.023203739948
   22          6.389537000000         0.108047754551
   23          2.542082000000         0.037920682091
   24          1.033764000000        -0.217423661511
   25          0.418788000000         0.031751128999
   26          0.164627000000         0.131498425773
   27          0.057619000000         0.004179222318
 P 27
    1        234.945000000000        -0.000039807828
    2         55.077385000000        -0.000306979716
    3         17.389549000000        -0.001384235221
    4          6.389537000000        -0.004063752593
    5          2.542082000000        -0.007482950505
    6          1.033764000000        -0.008874435185
    7          0.418788000000        -0.006327880057
    8          0.164627000000        -0.001665825896
    9          0.057619000000        -0.000014623041
   10        234.945000000000        -0.000491495315
   11         55.077385000000        -0.003971848621
   12         17.389549000000        -0.017825004507
   13          6.389537000000        -0.062231103262
   14          2.542082000000        -0.105618482302
   15          1.033764000000         0.001425718434
   16          0.418788000000         0.133537107030
   17          0.164627000000         0.076318100878
   18          0.057619000000         0.001491771806
   19        234.945000000000         0.002993287944
   20         55.077385000000         0.028730058255
   21         17.389549000000         0.118170912915
   22          6.389537000000         0.550260510699
   23          2.542082000000         0.193120662064
   24          1.033764000000        -1.107284973371
   25          0.418788000000         0.161700652927
   26          0.164627000000         0.669688983563
   27          0.057619000000         0.021283746399
 D 8
    1          6.420000000000         0.147716627128
    2          2.247000000000         0.534120646023
    3          0.786450000000         0.428328703616
    4          0.275257500000         0.043721044696
    5          6.420000000000        -0.124413837098
    6          2.247000000000        -0.129458180277
    7          0.786450000000         0.206386069339
    8          0.275257500000         0.043879051933
 D 8
    1          6.420000000000         0.038093335575
    2          2.247000000000         0.137739653294
    3          0.786450000000         0.110457904167
    4          0.275257500000         0.011274833847
    5          6.420000000000         0.482446397784
    6          2.247000000000         0.502007125533
    7          0.786450000000        -0.800314643677
    8          0.275257500000        -0.170152219697
 F 3
    1          4.190000000000         0.371284539860
    2          1.676000000000         0.601008919774
    3          0.670400000000         0.198512979925
 end
  // -----------------------------------------------
  // The basis set
  // -----------------------------------------------
  BAS[ATNO] = new BFNGauss[NSH];
  // Basis function   1 L = s
  InitBFNGauss(BAS[ATNO][  0]);
  BAS[ATNO][  0].l  = 0;
  BAS[ATNO][  0].ng = 56;
  BAS[ATNO][  0].a[  0] =    166165.079999999987;     BAS[ATNO][  0].d[  0] =         0.000153217999;
  BAS[ATNO][  0].a[  1] =     23107.524000000001;     BAS[ATNO][  0].d[  1] =         0.000635241702;
  BAS[ATNO][  0].a[  2] =      5060.153900000000;     BAS[ATNO][  0].d[  2] =         0.002574946364;
  BAS[ATNO][  0].a[  3] =      1384.612300000000;     BAS[ATNO][  0].d[  3] =         0.010128717690;
  BAS[ATNO][  0].a[  4] =       436.512580000000;     BAS[ATNO][  0].d[  4] =         0.035833741908;
  BAS[ATNO][  0].a[  5] =       153.471480000000;     BAS[ATNO][  0].d[  5] =         0.105524891540;
  BAS[ATNO][  0].a[  6] =        59.389087000000;     BAS[ATNO][  0].d[  6] =         0.238259657639;
  BAS[ATNO][  0].a[  7] =        24.861967000000;     BAS[ATNO][  0].d[  7] =         0.369251786503;
  BAS[ATNO][  0].a[  8] =        11.015704000000;     BAS[ATNO][  0].d[  8] =         0.305195613262;
  BAS[ATNO][  0].a[  9] =         4.965175000000;     BAS[ATNO][  0].d[  9] =         0.083724036322;
  BAS[ATNO][  0].a[ 10] =         1.936503000000;     BAS[ATNO][  0].d[ 10] =         0.003641492432;
  BAS[ATNO][  0].a[ 11] =         0.765728000000;     BAS[ATNO][  0].d[ 11] =         0.000957467493;
  BAS[ATNO][  0].a[ 12] =         0.295538000000;     BAS[ATNO][  0].d[ 12] =         0.000034219553;
  BAS[ATNO][  0].a[ 13] =         0.103438000000;     BAS[ATNO][  0].d[ 13] =         0.000025849662;
  BAS[ATNO][  0].a[ 14] =    166165.079999999987;     BAS[ATNO][  0].d[ 14] =         0.000000174355;
  BAS[ATNO][  0].a[ 15] =     23107.524000000001;     BAS[ATNO][  0].d[ 15] =         0.000000722800;
  BAS[ATNO][  0].a[ 16] =      5060.153900000000;     BAS[ATNO][  0].d[ 16] =         0.000002941288;
  BAS[ATNO][  0].a[ 17] =      1384.612300000000;     BAS[ATNO][  0].d[ 17] =         0.000011592898;
  BAS[ATNO][  0].a[ 18] =       436.512580000000;     BAS[ATNO][  0].d[ 18] =         0.000041805284;
  BAS[ATNO][  0].a[ 19] =       153.471480000000;     BAS[ATNO][  0].d[ 19] =         0.000127167242;
  BAS[ATNO][  0].a[ 20] =        59.389087000000;     BAS[ATNO][  0].d[ 20] =         0.000316598350;
  BAS[ATNO][  0].a[ 21] =        24.861967000000;     BAS[ATNO][  0].d[ 21] =         0.000591570694;
  BAS[ATNO][  0].a[ 22] =        11.015704000000;     BAS[ATNO][  0].d[ 22] =         0.000759912570;
  BAS[ATNO][  0].a[ 23] =         4.965175000000;     BAS[ATNO][  0].d[ 23] =         0.000035771582;
  BAS[ATNO][  0].a[ 24] =         1.936503000000;     BAS[ATNO][  0].d[ 24] =        -0.001874317635;
  BAS[ATNO][  0].a[ 25] =         0.765728000000;     BAS[ATNO][  0].d[ 25] =        -0.002656241302;
  BAS[ATNO][  0].a[ 26] =         0.295538000000;     BAS[ATNO][  0].d[ 26] =        -0.000886464168;
  BAS[ATNO][  0].a[ 27] =         0.103438000000;     BAS[ATNO][  0].d[ 27] =         0.000000904993;
  BAS[ATNO][  0].a[ 28] =    166165.079999999987;     BAS[ATNO][  0].d[ 28] =         0.000000082788;
  BAS[ATNO][  0].a[ 29] =     23107.524000000001;     BAS[ATNO][  0].d[ 29] =         0.000000340501;
  BAS[ATNO][  0].a[ 30] =      5060.153900000000;     BAS[ATNO][  0].d[ 30] =         0.000001410363;
  BAS[ATNO][  0].a[ 31] =      1384.612300000000;     BAS[ATNO][  0].d[ 31] =         0.000005418927;
  BAS[ATNO][  0].a[ 32] =       436.512580000000;     BAS[ATNO][  0].d[ 32] =         0.000020345197;
  BAS[ATNO][  0].a[ 33] =       153.471480000000;     BAS[ATNO][  0].d[ 33] =         0.000059663767;
  BAS[ATNO][  0].a[ 34] =        59.389087000000;     BAS[ATNO][  0].d[ 34] =         0.000162798808;
  BAS[ATNO][  0].a[ 35] =        24.861967000000;     BAS[ATNO][  0].d[ 35] =         0.000287037525;
  BAS[ATNO][  0].a[ 36] =        11.015704000000;     BAS[ATNO][  0].d[ 36] =         0.000526755950;
  BAS[ATNO][  0].a[ 37] =         4.965175000000;     BAS[ATNO][  0].d[ 37] =        -0.000446394890;
  BAS[ATNO][  0].a[ 38] =         1.936503000000;     BAS[ATNO][  0].d[ 38] =        -0.002294506957;
  BAS[ATNO][  0].a[ 39] =         0.765728000000;     BAS[ATNO][  0].d[ 39] =         0.000838335877;
  BAS[ATNO][  0].a[ 40] =         0.295538000000;     BAS[ATNO][  0].d[ 40] =         0.001473907331;
  BAS[ATNO][  0].a[ 41] =         0.103438000000;     BAS[ATNO][  0].d[ 41] =         0.000018635337;
  BAS[ATNO][  0].a[ 42] =    166165.079999999987;     BAS[ATNO][  0].d[ 42] =        -0.000000006617;
  BAS[ATNO][  0].a[ 43] =     23107.524000000001;     BAS[ATNO][  0].d[ 43] =        -0.000000025832;
  BAS[ATNO][  0].a[ 44] =      5060.153900000000;     BAS[ATNO][  0].d[ 44] =        -0.000000119564;
  BAS[ATNO][  0].a[ 45] =      1384.612300000000;     BAS[ATNO][  0].d[ 45] =        -0.000000384325;
  BAS[ATNO][  0].a[ 46] =       436.512580000000;     BAS[ATNO][  0].d[ 46] =        -0.000001838956;
  BAS[ATNO][  0].a[ 47] =       153.471480000000;     BAS[ATNO][  0].d[ 47] =        -0.000003997986;
  BAS[ATNO][  0].a[ 48] =        59.389087000000;     BAS[ATNO][  0].d[ 48] =        -0.000017044906;
  BAS[ATNO][  0].a[ 49] =        24.861967000000;     BAS[ATNO][  0].d[ 49] =        -0.000015423525;
  BAS[ATNO][  0].a[ 50] =        11.015704000000;     BAS[ATNO][  0].d[ 50] =        -0.000085278567;
  BAS[ATNO][  0].a[ 51] =         4.965175000000;     BAS[ATNO][  0].d[ 51] =         0.000209036910;
  BAS[ATNO][  0].a[ 52] =         1.936503000000;     BAS[ATNO][  0].d[ 52] =         0.000010236726;
  BAS[ATNO][  0].a[ 53] =         0.765728000000;     BAS[ATNO][  0].d[ 53] =        -0.000265801780;
  BAS[ATNO][  0].a[ 54] =         0.295538000000;     BAS[ATNO][  0].d[ 54] =         0.000186723084;
  BAS[ATNO][  0].a[ 55] =         0.103438000000;     BAS[ATNO][  0].d[ 55] =         0.000010512332;

  // Basis function   2 L = s
  InitBFNGauss(BAS[ATNO][  1]);
  BAS[ATNO][  1].l  = 0;
  BAS[ATNO][  1].ng = 54;
  BAS[ATNO][  1].a[  0] =    166165.079999999987;     BAS[ATNO][  1].d[  0] =         0.000000781480;
  BAS[ATNO][  1].a[  1] =     23107.524000000001;     BAS[ATNO][  1].d[  1] =         0.000003240014;
  BAS[ATNO][  1].a[  2] =      5060.153900000000;     BAS[ATNO][  1].d[  2] =         0.000013133367;
  BAS[ATNO][  1].a[  3] =      1384.612300000000;     BAS[ATNO][  1].d[  3] =         0.000051660946;
  BAS[ATNO][  1].a[  4] =       436.512580000000;     BAS[ATNO][  1].d[  4] =         0.000182767954;
  BAS[ATNO][  1].a[  5] =       153.471480000000;     BAS[ATNO][  1].d[  5] =         0.000538223683;
  BAS[ATNO][  1].a[  6] =        59.389087000000;     BAS[ATNO][  1].d[  6] =         0.001215229777;
  BAS[ATNO][  1].a[  7] =        24.861967000000;     BAS[ATNO][  1].d[  7] =         0.001883347649;
  BAS[ATNO][  1].a[  8] =        11.015704000000;     BAS[ATNO][  1].d[  8] =         0.001556632796;
  BAS[ATNO][  1].a[  9] =         4.965175000000;     BAS[ATNO][  1].d[  9] =         0.000427029666;
  BAS[ATNO][  1].a[ 10] =         1.936503000000;     BAS[ATNO][  1].d[ 10] =         0.000018573224;
  BAS[ATNO][  1].a[ 11] =         0.765728000000;     BAS[ATNO][  1].d[ 11] =         0.000004883508;
  BAS[ATNO][  1].a[ 12] =    166165.079999999987;     BAS[ATNO][  1].d[ 12] =        -0.000034610975;
  BAS[ATNO][  1].a[ 13] =     23107.524000000001;     BAS[ATNO][  1].d[ 13] =        -0.000143481845;
  BAS[ATNO][  1].a[ 14] =      5060.153900000000;     BAS[ATNO][  1].d[ 14] =        -0.000583870447;
  BAS[ATNO][  1].a[ 15] =      1384.612300000000;     BAS[ATNO][  1].d[ 15] =        -0.002301288268;
  BAS[ATNO][  1].a[ 16] =       436.512580000000;     BAS[ATNO][  1].d[ 16] =        -0.008298702270;
  BAS[ATNO][  1].a[ 17] =       153.471480000000;     BAS[ATNO][  1].d[ 17] =        -0.025243772532;
  BAS[ATNO][  1].a[ 18] =        59.389087000000;     BAS[ATNO][  1].d[ 18] =        -0.062847448643;
  BAS[ATNO][  1].a[ 19] =        24.861967000000;     BAS[ATNO][  1].d[ 19] =        -0.117431783219;
  BAS[ATNO][  1].a[ 20] =        11.015704000000;     BAS[ATNO][  1].d[ 20] =        -0.150849068380;
  BAS[ATNO][  1].a[ 21] =         4.965175000000;     BAS[ATNO][  1].d[ 21] =        -0.007100961403;
  BAS[ATNO][  1].a[ 22] =         1.936503000000;     BAS[ATNO][  1].d[ 22] =         0.372067893678;
  BAS[ATNO][  1].a[ 23] =         0.765728000000;     BAS[ATNO][  1].d[ 23] =         0.527286350947;
  BAS[ATNO][  1].a[ 24] =         0.295538000000;     BAS[ATNO][  1].d[ 24] =         0.175970630395;
  BAS[ATNO][  1].a[ 25] =         0.103438000000;     BAS[ATNO][  1].d[ 25] =        -0.000179648796;
  BAS[ATNO][  1].a[ 26] =    166165.079999999987;     BAS[ATNO][  1].d[ 26] =        -0.000014359536;
  BAS[ATNO][  1].a[ 27] =     23107.524000000001;     BAS[ATNO][  1].d[ 27] =        -0.000059059838;
  BAS[ATNO][  1].a[ 28] =      5060.153900000000;     BAS[ATNO][  1].d[ 28] =        -0.000244627534;
  BAS[ATNO][  1].a[ 29] =      1384.612300000000;     BAS[ATNO][  1].d[ 29] =        -0.000939913188;
  BAS[ATNO][  1].a[ 30] =       436.512580000000;     BAS[ATNO][  1].d[ 30] =        -0.003528875617;
  BAS[ATNO][  1].a[ 31] =       153.471480000000;     BAS[ATNO][  1].d[ 31] =        -0.010348684091;
  BAS[ATNO][  1].a[ 32] =        59.389087000000;     BAS[ATNO][  1].d[ 32] =        -0.028237463427;
  BAS[ATNO][  1].a[ 33] =        24.861967000000;     BAS[ATNO][  1].d[ 33] =        -0.049786676747;
  BAS[ATNO][  1].a[ 34] =        11.015704000000;     BAS[ATNO][  1].d[ 34] =        -0.091365852535;
  BAS[ATNO][  1].a[ 35] =         4.965175000000;     BAS[ATNO][  1].d[ 35] =         0.077427221585;
  BAS[ATNO][  1].a[ 36] =         1.936503000000;     BAS[ATNO][  1].d[ 36] =         0.397982375554;
  BAS[ATNO][  1].a[ 37] =         0.765728000000;     BAS[ATNO][  1].d[ 37] =        -0.145409410432;
  BAS[ATNO][  1].a[ 38] =         0.295538000000;     BAS[ATNO][  1].d[ 38] =        -0.255649318928;
  BAS[ATNO][  1].a[ 39] =         0.103438000000;     BAS[ATNO][  1].d[ 39] =        -0.003232300442;
  BAS[ATNO][  1].a[ 40] =    166165.079999999987;     BAS[ATNO][  1].d[ 40] =        -0.000001839559;
  BAS[ATNO][  1].a[ 41] =     23107.524000000001;     BAS[ATNO][  1].d[ 41] =        -0.000007181457;
  BAS[ATNO][  1].a[ 42] =      5060.153900000000;     BAS[ATNO][  1].d[ 42] =        -0.000033239405;
  BAS[ATNO][  1].a[ 43] =      1384.612300000000;     BAS[ATNO][  1].d[ 43] =        -0.000106844406;
  BAS[ATNO][  1].a[ 44] =       436.512580000000;     BAS[ATNO][  1].d[ 44] =        -0.000511239171;
  BAS[ATNO][  1].a[ 45] =       153.471480000000;     BAS[ATNO][  1].d[ 45] =        -0.001111460406;
  BAS[ATNO][  1].a[ 46] =        59.389087000000;     BAS[ATNO][  1].d[ 46] =        -0.004738570089;
  BAS[ATNO][  1].a[ 47] =        24.861967000000;     BAS[ATNO][  1].d[ 47] =        -0.004287817908;
  BAS[ATNO][  1].a[ 48] =        11.015704000000;     BAS[ATNO][  1].d[ 48] =        -0.023707872973;
  BAS[ATNO][  1].a[ 49] =         4.965175000000;     BAS[ATNO][  1].d[ 49] =         0.058113318452;
  BAS[ATNO][  1].a[ 50] =         1.936503000000;     BAS[ATNO][  1].d[ 50] =         0.002845861512;
  BAS[ATNO][  1].a[ 51] =         0.765728000000;     BAS[ATNO][  1].d[ 51] =        -0.073894239476;
  BAS[ATNO][  1].a[ 52] =         0.295538000000;     BAS[ATNO][  1].d[ 52] =         0.051909961974;
  BAS[ATNO][  1].a[ 53] =         0.103438000000;     BAS[ATNO][  1].d[ 53] =         0.002922481490;

  // Basis function   3 L = s
  InitBFNGauss(BAS[ATNO][  2]);
  BAS[ATNO][  2].l  = 0;
  BAS[ATNO][  2].ng = 54;
  BAS[ATNO][  2].a[  0] =    166165.079999999987;     BAS[ATNO][  2].d[  0] =         0.000000037671;
  BAS[ATNO][  2].a[  1] =     23107.524000000001;     BAS[ATNO][  2].d[  1] =         0.000000156183;
  BAS[ATNO][  2].a[  2] =      5060.153900000000;     BAS[ATNO][  2].d[  2] =         0.000000633087;
  BAS[ATNO][  2].a[  3] =      1384.612300000000;     BAS[ATNO][  2].d[  3] =         0.000002490290;
  BAS[ATNO][  2].a[  4] =       436.512580000000;     BAS[ATNO][  2].d[  4] =         0.000008810238;
  BAS[ATNO][  2].a[  5] =       153.471480000000;     BAS[ATNO][  2].d[  5] =         0.000025944804;
  BAS[ATNO][  2].a[  6] =        59.389087000000;     BAS[ATNO][  2].d[  6] =         0.000058579545;
  BAS[ATNO][  2].a[  7] =        24.861967000000;     BAS[ATNO][  2].d[  7] =         0.000090785834;
  BAS[ATNO][  2].a[  8] =        11.015704000000;     BAS[ATNO][  2].d[  8] =         0.000075036707;
  BAS[ATNO][  2].a[  9] =         4.965175000000;     BAS[ATNO][  2].d[  9] =         0.000020584752;
  BAS[ATNO][  2].a[ 10] =         1.936503000000;     BAS[ATNO][  2].d[ 10] =         0.000000895313;
  BAS[ATNO][  2].a[ 11] =         0.765728000000;     BAS[ATNO][  2].d[ 11] =         0.000000235407;
  BAS[ATNO][  2].a[ 12] =    166165.079999999987;     BAS[ATNO][  2].d[ 12] =         0.000011286515;
  BAS[ATNO][  2].a[ 13] =     23107.524000000001;     BAS[ATNO][  2].d[ 13] =         0.000046788917;
  BAS[ATNO][  2].a[ 14] =      5060.153900000000;     BAS[ATNO][  2].d[ 14] =         0.000190398065;
  BAS[ATNO][  2].a[ 15] =      1384.612300000000;     BAS[ATNO][  2].d[ 15] =         0.000750441875;
  BAS[ATNO][  2].a[ 16] =       436.512580000000;     BAS[ATNO][  2].d[ 16] =         0.002706177134;
  BAS[ATNO][  2].a[ 17] =       153.471480000000;     BAS[ATNO][  2].d[ 17] =         0.008231903951;
  BAS[ATNO][  2].a[ 18] =        59.389087000000;     BAS[ATNO][  2].d[ 18] =         0.020494328259;
  BAS[ATNO][  2].a[ 19] =        24.861967000000;     BAS[ATNO][  2].d[ 19] =         0.038294084571;
  BAS[ATNO][  2].a[ 20] =        11.015704000000;     BAS[ATNO][  2].d[ 20] =         0.049191341761;
  BAS[ATNO][  2].a[ 21] =         4.965175000000;     BAS[ATNO][  2].d[ 21] =         0.002315598120;
  BAS[ATNO][  2].a[ 22] =         1.936503000000;     BAS[ATNO][  2].d[ 22] =        -0.121330009611;
  BAS[ATNO][  2].a[ 23] =         0.765728000000;     BAS[ATNO][  2].d[ 23] =        -0.171946193464;
  BAS[ATNO][  2].a[ 24] =         0.295538000000;     BAS[ATNO][  2].d[ 24] =        -0.057383393299;
  BAS[ATNO][  2].a[ 25] =         0.103438000000;     BAS[ATNO][  2].d[ 25] =         0.000058582830;
  BAS[ATNO][  2].a[ 26] =    166165.079999999987;     BAS[ATNO][  2].d[ 26] =        -0.000043174667;
  BAS[ATNO][  2].a[ 27] =     23107.524000000001;     BAS[ATNO][  2].d[ 27] =        -0.000177574597;
  BAS[ATNO][  2].a[ 28] =      5060.153900000000;     BAS[ATNO][  2].d[ 28] =        -0.000735519045;
  BAS[ATNO][  2].a[ 29] =      1384.612300000000;     BAS[ATNO][  2].d[ 29] =        -0.002826027137;
  BAS[ATNO][  2].a[ 30] =       436.512580000000;     BAS[ATNO][  2].d[ 30] =        -0.010610233355;
  BAS[ATNO][  2].a[ 31] =       153.471480000000;     BAS[ATNO][  2].d[ 31] =        -0.031115280061;
  BAS[ATNO][  2].a[ 32] =        59.389087000000;     BAS[ATNO][  2].d[ 32] =        -0.084901285521;
  BAS[ATNO][  2].a[ 33] =        24.861967000000;     BAS[ATNO][  2].d[ 33] =        -0.149693079500;
  BAS[ATNO][  2].a[ 34] =        11.015704000000;     BAS[ATNO][  2].d[ 34] =        -0.274708751831;
  BAS[ATNO][  2].a[ 35] =         4.965175000000;     BAS[ATNO][  2].d[ 35] =         0.232799616151;
  BAS[ATNO][  2].a[ 36] =         1.936503000000;     BAS[ATNO][  2].d[ 36] =         1.196609440024;
  BAS[ATNO][  2].a[ 37] =         0.765728000000;     BAS[ATNO][  2].d[ 37] =        -0.437200951297;
  BAS[ATNO][  2].a[ 38] =         0.295538000000;     BAS[ATNO][  2].d[ 38] =        -0.768658129495;
  BAS[ATNO][  2].a[ 39] =         0.103438000000;     BAS[ATNO][  2].d[ 39] =        -0.009718523883;
  BAS[ATNO][  2].a[ 40] =    166165.079999999987;     BAS[ATNO][  2].d[ 40] =         0.000006064559;
  BAS[ATNO][  2].a[ 41] =     23107.524000000001;     BAS[ATNO][  2].d[ 41] =         0.000023675432;
  BAS[ATNO][  2].a[ 42] =      5060.153900000000;     BAS[ATNO][  2].d[ 42] =         0.000109581846;
  BAS[ATNO][  2].a[ 43] =      1384.612300000000;     BAS[ATNO][  2].d[ 43] =         0.000352238778;
  BAS[ATNO][  2].a[ 44] =       436.512580000000;     BAS[ATNO][  2].d[ 44] =         0.001685425262;
  BAS[ATNO][  2].a[ 45] =       153.471480000000;     BAS[ATNO][  2].d[ 45] =         0.003664201712;
  BAS[ATNO][  2].a[ 46] =        59.389087000000;     BAS[ATNO][  2].d[ 46] =         0.015621857994;
  BAS[ATNO][  2].a[ 47] =        24.861967000000;     BAS[ATNO][  2].d[ 47] =         0.014135842925;
  BAS[ATNO][  2].a[ 48] =        11.015704000000;     BAS[ATNO][  2].d[ 48] =         0.078158815424;
  BAS[ATNO][  2].a[ 49] =         4.965175000000;     BAS[ATNO][  2].d[ 49] =        -0.191584801203;
  BAS[ATNO][  2].a[ 50] =         1.936503000000;     BAS[ATNO][  2].d[ 50] =        -0.009382080158;
  BAS[ATNO][  2].a[ 51] =         0.765728000000;     BAS[ATNO][  2].d[ 51] =         0.243610476174;
  BAS[ATNO][  2].a[ 52] =         0.295538000000;     BAS[ATNO][  2].d[ 52] =        -0.171133915773;
  BAS[ATNO][  2].a[ 53] =         0.103438000000;     BAS[ATNO][  2].d[ 53] =        -0.009634676701;

  // Basis function   4 L = s
  InitBFNGauss(BAS[ATNO][  3]);
  BAS[ATNO][  3].l  = 0;
  BAS[ATNO][  3].ng = 54;
  BAS[ATNO][  3].a[  0] =    166165.079999999987;     BAS[ATNO][  3].d[  0] =         0.000000039298;
  BAS[ATNO][  3].a[  1] =     23107.524000000001;     BAS[ATNO][  3].d[  1] =         0.000000162929;
  BAS[ATNO][  3].a[  2] =      5060.153900000000;     BAS[ATNO][  3].d[  2] =         0.000000660431;
  BAS[ATNO][  3].a[  3] =      1384.612300000000;     BAS[ATNO][  3].d[  3] =         0.000002597848;
  BAS[ATNO][  3].a[  4] =       436.512580000000;     BAS[ATNO][  3].d[  4] =         0.000009190762;
  BAS[ATNO][  3].a[  5] =       153.471480000000;     BAS[ATNO][  3].d[  5] =         0.000027065389;
  BAS[ATNO][  3].a[  6] =        59.389087000000;     BAS[ATNO][  3].d[  6] =         0.000061109660;
  BAS[ATNO][  3].a[  7] =        24.861967000000;     BAS[ATNO][  3].d[  7] =         0.000094706973;
  BAS[ATNO][  3].a[  8] =        11.015704000000;     BAS[ATNO][  3].d[  8] =         0.000078277625;
  BAS[ATNO][  3].a[  9] =         4.965175000000;     BAS[ATNO][  3].d[  9] =         0.000021473830;
  BAS[ATNO][  3].a[ 10] =         1.936503000000;     BAS[ATNO][  3].d[ 10] =         0.000000933983;
  BAS[ATNO][  3].a[ 11] =         0.765728000000;     BAS[ATNO][  3].d[ 11] =         0.000000245575;
  BAS[ATNO][  3].a[ 12] =    166165.079999999987;     BAS[ATNO][  3].d[ 12] =        -0.000002335595;
  BAS[ATNO][  3].a[ 13] =     23107.524000000001;     BAS[ATNO][  3].d[ 13] =        -0.000009682348;
  BAS[ATNO][  3].a[ 14] =      5060.153900000000;     BAS[ATNO][  3].d[ 14] =        -0.000039400363;
  BAS[ATNO][  3].a[ 15] =      1384.612300000000;     BAS[ATNO][  3].d[ 15] =        -0.000155294027;
  BAS[ATNO][  3].a[ 16] =       436.512580000000;     BAS[ATNO][  3].d[ 16] =        -0.000560007590;
  BAS[ATNO][  3].a[ 17] =       153.471480000000;     BAS[ATNO][  3].d[ 17] =        -0.001703483720;
  BAS[ATNO][  3].a[ 18] =        59.389087000000;     BAS[ATNO][  3].d[ 18] =        -0.004241030356;
  BAS[ATNO][  3].a[ 19] =        24.861967000000;     BAS[ATNO][  3].d[ 19] =        -0.007924454662;
  BAS[ATNO][  3].a[ 20] =        11.015704000000;     BAS[ATNO][  3].d[ 20] =        -0.010179498007;
  BAS[ATNO][  3].a[ 21] =         4.965175000000;     BAS[ATNO][  3].d[ 21] =        -0.000479182425;
  BAS[ATNO][  3].a[ 22] =         1.936503000000;     BAS[ATNO][  3].d[ 22] =         0.025107641848;
  BAS[ATNO][  3].a[ 23] =         0.765728000000;     BAS[ATNO][  3].d[ 23] =         0.035581992094;
  BAS[ATNO][  3].a[ 24] =         0.295538000000;     BAS[ATNO][  3].d[ 24] =         0.011874734797;
  BAS[ATNO][  3].a[ 25] =         0.103438000000;     BAS[ATNO][  3].d[ 25] =        -0.000012122942;
  BAS[ATNO][  3].a[ 26] =    166165.079999999987;     BAS[ATNO][  3].d[ 26] =         0.000004161868;
  BAS[ATNO][  3].a[ 27] =     23107.524000000001;     BAS[ATNO][  3].d[ 27] =         0.000017117491;
  BAS[ATNO][  3].a[ 28] =      5060.153900000000;     BAS[ATNO][  3].d[ 28] =         0.000070901137;
  BAS[ATNO][  3].a[ 29] =      1384.612300000000;     BAS[ATNO][  3].d[ 29] =         0.000272417879;
  BAS[ATNO][  3].a[ 30] =       436.512580000000;     BAS[ATNO][  3].d[ 30] =         0.001022784683;
  BAS[ATNO][  3].a[ 31] =       153.471480000000;     BAS[ATNO][  3].d[ 31] =         0.002999390379;
  BAS[ATNO][  3].a[ 32] =        59.389087000000;     BAS[ATNO][  3].d[ 32] =         0.008184149345;
  BAS[ATNO][  3].a[ 33] =        24.861967000000;     BAS[ATNO][  3].d[ 33] =         0.014429822953;
  BAS[ATNO][  3].a[ 34] =        11.015704000000;     BAS[ATNO][  3].d[ 34] =         0.026480841104;
  BAS[ATNO][  3].a[ 35] =         4.965175000000;     BAS[ATNO][  3].d[ 35] =        -0.022440965580;
  BAS[ATNO][  3].a[ 36] =         1.936503000000;     BAS[ATNO][  3].d[ 36] =        -0.115348434421;
  BAS[ATNO][  3].a[ 37] =         0.765728000000;     BAS[ATNO][  3].d[ 37] =         0.042144448784;
  BAS[ATNO][  3].a[ 38] =         0.295538000000;     BAS[ATNO][  3].d[ 38] =         0.074095614556;
  BAS[ATNO][  3].a[ 39] =         0.103438000000;     BAS[ATNO][  3].d[ 39] =         0.000936827404;
  BAS[ATNO][  3].a[ 40] =    166165.079999999987;     BAS[ATNO][  3].d[ 40] =         0.000056566099;
  BAS[ATNO][  3].a[ 41] =     23107.524000000001;     BAS[ATNO][  3].d[ 41] =         0.000220828404;
  BAS[ATNO][  3].a[ 42] =      5060.153900000000;     BAS[ATNO][  3].d[ 42] =         0.001022105277;
  BAS[ATNO][  3].a[ 43] =      1384.612300000000;     BAS[ATNO][  3].d[ 43] =         0.003285444867;
  BAS[ATNO][  3].a[ 44] =       436.512580000000;     BAS[ATNO][  3].d[ 44] =         0.015720505865;
  BAS[ATNO][  3].a[ 45] =       153.471480000000;     BAS[ATNO][  3].d[ 45] =         0.034177193022;
  BAS[ATNO][  3].a[ 46] =        59.389087000000;     BAS[ATNO][  3].d[ 46] =         0.145710115873;
  BAS[ATNO][  3].a[ 47] =        24.861967000000;     BAS[ATNO][  3].d[ 47] =         0.131849573291;
  BAS[ATNO][  3].a[ 48] =        11.015704000000;     BAS[ATNO][  3].d[ 48] =         0.729012519271;
  BAS[ATNO][  3].a[ 49] =         4.965175000000;     BAS[ATNO][  3].d[ 49] =        -1.786973328877;
  BAS[ATNO][  3].a[ 50] =         1.936503000000;     BAS[ATNO][  3].d[ 50] =        -0.087509692344;
  BAS[ATNO][  3].a[ 51] =         0.765728000000;     BAS[ATNO][  3].d[ 51] =         2.272233605299;
  BAS[ATNO][  3].a[ 52] =         0.295538000000;     BAS[ATNO][  3].d[ 52] =        -1.596221314179;
  BAS[ATNO][  3].a[ 53] =         0.103438000000;     BAS[ATNO][  3].d[ 53] =        -0.089865741901;

  // Basis function   5 L = p
  InitBFNGauss(BAS[ATNO][  4]);
  BAS[ATNO][  4].l  = 1;
  BAS[ATNO][  4].ng = 27;
  BAS[ATNO][  4].a[  0] =       234.945000000000;     BAS[ATNO][  4].d[  0] =         0.001492890152;
  BAS[ATNO][  4].a[  1] =        55.077385000000;     BAS[ATNO][  4].d[  1] =         0.011512484283;
  BAS[ATNO][  4].a[  2] =        17.389549000000;     BAS[ATNO][  4].d[  2] =         0.051912179878;
  BAS[ATNO][  4].a[  3] =         6.389537000000;     BAS[ATNO][  4].d[  3] =         0.152400583698;
  BAS[ATNO][  4].a[  4] =         2.542082000000;     BAS[ATNO][  4].d[  4] =         0.280628802699;
  BAS[ATNO][  4].a[  5] =         1.033764000000;     BAS[ATNO][  4].d[  5] =         0.332812854911;
  BAS[ATNO][  4].a[  6] =         0.418788000000;     BAS[ATNO][  4].d[  6] =         0.237310857933;
  BAS[ATNO][  4].a[  7] =         0.164627000000;     BAS[ATNO][  4].d[  7] =         0.062472513529;
  BAS[ATNO][  4].a[  8] =         0.057619000000;     BAS[ATNO][  4].d[  8] =         0.000548399528;
  BAS[ATNO][  4].a[  9] =       234.945000000000;     BAS[ATNO][  4].d[  9] =         0.000947029640;
  BAS[ATNO][  4].a[ 10] =        55.077385000000;     BAS[ATNO][  4].d[ 10] =         0.007653090996;
  BAS[ATNO][  4].a[ 11] =        17.389549000000;     BAS[ATNO][  4].d[ 11] =         0.034345815896;
  BAS[ATNO][  4].a[ 12] =         6.389537000000;     BAS[ATNO][  4].d[ 12] =         0.119908974766;
  BAS[ATNO][  4].a[ 13] =         2.542082000000;     BAS[ATNO][  4].d[ 13] =         0.203509230358;
  BAS[ATNO][  4].a[ 14] =         1.033764000000;     BAS[ATNO][  4].d[ 14] =        -0.002747122046;
  BAS[ATNO][  4].a[ 15] =         0.418788000000;     BAS[ATNO][  4].d[ 15] =        -0.257303771875;
  BAS[ATNO][  4].a[ 16] =         0.164627000000;     BAS[ATNO][  4].d[ 16] =        -0.147052273746;
  BAS[ATNO][  4].a[ 17] =         0.057619000000;     BAS[ATNO][  4].d[ 17] =        -0.002874395896;
  BAS[ATNO][  4].a[ 18] =       234.945000000000;     BAS[ATNO][  4].d[ 18] =         0.000377689916;
  BAS[ATNO][  4].a[ 19] =        55.077385000000;     BAS[ATNO][  4].d[ 19] =         0.003625128452;
  BAS[ATNO][  4].a[ 20] =        17.389549000000;     BAS[ATNO][  4].d[ 20] =         0.014910681171;
  BAS[ATNO][  4].a[ 21] =         6.389537000000;     BAS[ATNO][  4].d[ 21] =         0.069431290946;
  BAS[ATNO][  4].a[ 22] =         2.542082000000;     BAS[ATNO][  4].d[ 22] =         0.024367761478;
  BAS[ATNO][  4].a[ 23] =         1.033764000000;     BAS[ATNO][  4].d[ 23] =        -0.139716050218;
  BAS[ATNO][  4].a[ 24] =         0.418788000000;     BAS[ATNO][  4].d[ 24] =         0.020403217860;
  BAS[ATNO][  4].a[ 25] =         0.164627000000;     BAS[ATNO][  4].d[ 25] =         0.084500649705;
  BAS[ATNO][  4].a[ 26] =         0.057619000000;     BAS[ATNO][  4].d[ 26] =         0.002685560675;

  // Basis function   6 L = p
  InitBFNGauss(BAS[ATNO][  5]);
  BAS[ATNO][  5].l  = 1;
  BAS[ATNO][  5].ng = 27;
  BAS[ATNO][  5].a[  0] =       234.945000000000;     BAS[ATNO][  5].d[  0] =         0.000756597055;
  BAS[ATNO][  5].a[  1] =        55.077385000000;     BAS[ATNO][  5].d[  1] =         0.005834529551;
  BAS[ATNO][  5].a[  2] =        17.389549000000;     BAS[ATNO][  5].d[  2] =         0.026309104111;
  BAS[ATNO][  5].a[  3] =         6.389537000000;     BAS[ATNO][  5].d[  3] =         0.077236649134;
  BAS[ATNO][  5].a[  4] =         2.542082000000;     BAS[ATNO][  5].d[  4] =         0.142222738556;
  BAS[ATNO][  5].a[  5] =         1.033764000000;     BAS[ATNO][  5].d[  5] =         0.168669627625;
  BAS[ATNO][  5].a[  6] =         0.418788000000;     BAS[ATNO][  5].d[  6] =         0.120269194679;
  BAS[ATNO][  5].a[  7] =         0.164627000000;     BAS[ATNO][  5].d[  7] =         0.031661083513;
  BAS[ATNO][  5].a[  8] =         0.057619000000;     BAS[ATNO][  5].d[  8] =         0.000277929001;
  BAS[ATNO][  5].a[  9] =       234.945000000000;     BAS[ATNO][  5].d[  9] =        -0.001894504593;
  BAS[ATNO][  5].a[ 10] =        55.077385000000;     BAS[ATNO][  5].d[ 10] =        -0.015309780635;
  BAS[ATNO][  5].a[ 11] =        17.389549000000;     BAS[ATNO][  5].d[ 11] =        -0.068707781915;
  BAS[ATNO][  5].a[ 12] =         6.389537000000;     BAS[ATNO][  5].d[ 12] =        -0.239874333247;
  BAS[ATNO][  5].a[ 13] =         2.542082000000;     BAS[ATNO][  5].d[ 13] =        -0.407114155024;
  BAS[ATNO][  5].a[ 14] =         1.033764000000;     BAS[ATNO][  5].d[ 14] =         0.005495535847;
  BAS[ATNO][  5].a[ 15] =         0.418788000000;     BAS[ATNO][  5].d[ 15] =         0.514728533380;
  BAS[ATNO][  5].a[ 16] =         0.164627000000;     BAS[ATNO][  5].d[ 16] =         0.294173694556;
  BAS[ATNO][  5].a[ 17] =         0.057619000000;     BAS[ATNO][  5].d[ 17] =         0.005750143393;
  BAS[ATNO][  5].a[ 18] =       234.945000000000;     BAS[ATNO][  5].d[ 18] =        -0.000587754409;
  BAS[ATNO][  5].a[ 19] =        55.077385000000;     BAS[ATNO][  5].d[ 19] =        -0.005641361177;
  BAS[ATNO][  5].a[ 20] =        17.389549000000;     BAS[ATNO][  5].d[ 20] =        -0.023203739948;
  BAS[ATNO][  5].a[ 21] =         6.389537000000;     BAS[ATNO][  5].d[ 21] =        -0.108047754551;
  BAS[ATNO][  5].a[ 22] =         2.542082000000;     BAS[ATNO][  5].d[ 22] =        -0.037920682091;
  BAS[ATNO][  5].a[ 23] =         1.033764000000;     BAS[ATNO][  5].d[ 23] =         0.217423661511;
  BAS[ATNO][  5].a[ 24] =         0.418788000000;     BAS[ATNO][  5].d[ 24] =        -0.031751128999;
  BAS[ATNO][  5].a[ 25] =         0.164627000000;     BAS[ATNO][  5].d[ 25] =        -0.131498425773;
  BAS[ATNO][  5].a[ 26] =         0.057619000000;     BAS[ATNO][  5].d[ 26] =        -0.004179222318;

  // Basis function   7 L = p
  InitBFNGauss(BAS[ATNO][  6]);
  BAS[ATNO][  6].l  = 1;
  BAS[ATNO][  6].ng = 27;
  BAS[ATNO][  6].a[  0] =       234.945000000000;     BAS[ATNO][  6].d[  0] =         0.000039807828;
  BAS[ATNO][  6].a[  1] =        55.077385000000;     BAS[ATNO][  6].d[  1] =         0.000306979716;
  BAS[ATNO][  6].a[  2] =        17.389549000000;     BAS[ATNO][  6].d[  2] =         0.001384235221;
  BAS[ATNO][  6].a[  3] =         6.389537000000;     BAS[ATNO][  6].d[  3] =         0.004063752593;
  BAS[ATNO][  6].a[  4] =         2.542082000000;     BAS[ATNO][  6].d[  4] =         0.007482950505;
  BAS[ATNO][  6].a[  5] =         1.033764000000;     BAS[ATNO][  6].d[  5] =         0.008874435185;
  BAS[ATNO][  6].a[  6] =         0.418788000000;     BAS[ATNO][  6].d[  6] =         0.006327880057;
  BAS[ATNO][  6].a[  7] =         0.164627000000;     BAS[ATNO][  6].d[  7] =         0.001665825896;
  BAS[ATNO][  6].a[  8] =         0.057619000000;     BAS[ATNO][  6].d[  8] =         0.000014623041;
  BAS[ATNO][  6].a[  9] =       234.945000000000;     BAS[ATNO][  6].d[  9] =         0.000491495315;
  BAS[ATNO][  6].a[ 10] =        55.077385000000;     BAS[ATNO][  6].d[ 10] =         0.003971848621;
  BAS[ATNO][  6].a[ 11] =        17.389549000000;     BAS[ATNO][  6].d[ 11] =         0.017825004507;
  BAS[ATNO][  6].a[ 12] =         6.389537000000;     BAS[ATNO][  6].d[ 12] =         0.062231103262;
  BAS[ATNO][  6].a[ 13] =         2.542082000000;     BAS[ATNO][  6].d[ 13] =         0.105618482302;
  BAS[ATNO][  6].a[ 14] =         1.033764000000;     BAS[ATNO][  6].d[ 14] =        -0.001425718434;
  BAS[ATNO][  6].a[ 15] =         0.418788000000;     BAS[ATNO][  6].d[ 15] =        -0.133537107030;
  BAS[ATNO][  6].a[ 16] =         0.164627000000;     BAS[ATNO][  6].d[ 16] =        -0.076318100878;
  BAS[ATNO][  6].a[ 17] =         0.057619000000;     BAS[ATNO][  6].d[ 17] =        -0.001491771806;
  BAS[ATNO][  6].a[ 18] =       234.945000000000;     BAS[ATNO][  6].d[ 18] =        -0.002993287944;
  BAS[ATNO][  6].a[ 19] =        55.077385000000;     BAS[ATNO][  6].d[ 19] =        -0.028730058255;
  BAS[ATNO][  6].a[ 20] =        17.389549000000;     BAS[ATNO][  6].d[ 20] =        -0.118170912915;
  BAS[ATNO][  6].a[ 21] =         6.389537000000;     BAS[ATNO][  6].d[ 21] =        -0.550260510699;
  BAS[ATNO][  6].a[ 22] =         2.542082000000;     BAS[ATNO][  6].d[ 22] =        -0.193120662064;
  BAS[ATNO][  6].a[ 23] =         1.033764000000;     BAS[ATNO][  6].d[ 23] =         1.107284973371;
  BAS[ATNO][  6].a[ 24] =         0.418788000000;     BAS[ATNO][  6].d[ 24] =        -0.161700652927;
  BAS[ATNO][  6].a[ 25] =         0.164627000000;     BAS[ATNO][  6].d[ 25] =        -0.669688983563;
  BAS[ATNO][  6].a[ 26] =         0.057619000000;     BAS[ATNO][  6].d[ 26] =        -0.021283746399;

  // Basis function   8 L = d
  InitBFNGauss(BAS[ATNO][  7]);
  BAS[ATNO][  7].l  = 2;
  BAS[ATNO][  7].ng = 8;
  BAS[ATNO][  7].a[  0] =         6.420000000000;     BAS[ATNO][  7].d[  0] =         0.147716627128;
  BAS[ATNO][  7].a[  1] =         2.247000000000;     BAS[ATNO][  7].d[  1] =         0.534120646023;
  BAS[ATNO][  7].a[  2] =         0.786450000000;     BAS[ATNO][  7].d[  2] =         0.428328703616;
  BAS[ATNO][  7].a[  3] =         0.275257500000;     BAS[ATNO][  7].d[  3] =         0.043721044696;
  BAS[ATNO][  7].a[  4] =         6.420000000000;     BAS[ATNO][  7].d[  4] =        -0.124413837098;
  BAS[ATNO][  7].a[  5] =         2.247000000000;     BAS[ATNO][  7].d[  5] =        -0.129458180277;
  BAS[ATNO][  7].a[  6] =         0.786450000000;     BAS[ATNO][  7].d[  6] =         0.206386069339;
  BAS[ATNO][  7].a[  7] =         0.275257500000;     BAS[ATNO][  7].d[  7] =         0.043879051933;

  // Basis function   9 L = d
  InitBFNGauss(BAS[ATNO][  8]);
  BAS[ATNO][  8].l  = 2;
  BAS[ATNO][  8].ng = 8;
  BAS[ATNO][  8].a[  0] =         6.420000000000;     BAS[ATNO][  8].d[  0] =        -0.038093335575;
  BAS[ATNO][  8].a[  1] =         2.247000000000;     BAS[ATNO][  8].d[  1] =        -0.137739653294;
  BAS[ATNO][  8].a[  2] =         0.786450000000;     BAS[ATNO][  8].d[  2] =        -0.110457904167;
  BAS[ATNO][  8].a[  3] =         0.275257500000;     BAS[ATNO][  8].d[  3] =        -0.011274833847;
  BAS[ATNO][  8].a[  4] =         6.420000000000;     BAS[ATNO][  8].d[  4] =        -0.482446397784;
  BAS[ATNO][  8].a[  5] =         2.247000000000;     BAS[ATNO][  8].d[  5] =        -0.502007125533;
  BAS[ATNO][  8].a[  6] =         0.786450000000;     BAS[ATNO][  8].d[  6] =         0.800314643677;
  BAS[ATNO][  8].a[  7] =         0.275257500000;     BAS[ATNO][  8].d[  7] =         0.170152219697;

  // Basis function  10 L = f
  InitBFNGauss(BAS[ATNO][  9]);
  BAS[ATNO][  9].l  = 3;
  BAS[ATNO][  9].ng = 3;
  BAS[ATNO][  9].a[  0] =         4.190000000000;     BAS[ATNO][  9].d[  0] =         0.371284539860;
  BAS[ATNO][  9].a[  1] =         1.676000000000;     BAS[ATNO][  9].d[  1] =         0.601008919774;
  BAS[ATNO][  9].a[  2] =         0.670400000000;     BAS[ATNO][  9].d[  2] =         0.198512979925;

-------
TIMINGS
-------

Total SCF time: 0 days 0 hours 0 min 2 sec 

Total time                  ....       2.383 sec
Sum of individual times     ....       2.172 sec  ( 91.2%)

Fock matrix formation       ....       1.750 sec  ( 73.4%)
  XC integration            ....       0.015 sec  (  0.9% of F)
    Basis function eval.    ....       0.005 sec  ( 35.3% of XC)
    Density eval.           ....       0.001 sec  (  4.7% of XC)
    XC-Functional eval.     ....       0.001 sec  (  7.8% of XC)
    XC-Potential eval.      ....       0.001 sec  (  4.0% of XC)
Diagonalization             ....       0.000 sec  (  0.0%)
Density matrix formation    ....       0.000 sec  (  0.0%)
Population analysis         ....       0.001 sec  (  0.0%)
Initial guess               ....       0.094 sec  (  3.9%)
Orbital Transformation      ....       0.000 sec  (  0.0%)
Orbital Orthonormalization  ....       0.000 sec  (  0.0%)
DIIS solution               ....       0.000 sec  (  0.0%)
SOSCF solution              ....       0.001 sec  (  0.0%)
Grid generation             ....       0.326 sec  ( 13.7%)

-------------------------   --------------------
FINAL SINGLE POINT ENERGY       -93.191725453712
-------------------------   --------------------


                            ***************************************
                            *     ORCA property calculations      *
                            ***************************************

                                    ---------------------
                                    Active property flags
                                    ---------------------
   (+) Dipole Moment


------------------------------------------------------------------------------
                       ORCA ELECTRIC PROPERTIES CALCULATION
------------------------------------------------------------------------------

Dipole Moment Calculation                       ... on
Quadrupole Moment Calculation                   ... off
Polarizability Calculation                      ... off
GBWName                                         ... Ne_ano-rcc-tzp_.gbw
Electron density file                           ... Ne_ano-rcc-tzp_.scfp
The origin for moment calculation is the CENTER OF MASS  = ( 0.000000,  0.000000  0.000000)

-------------
DIPOLE MOMENT
-------------
                                X             Y             Z
Electronic contribution:     -0.00000       0.00000      -0.00000
Nuclear contribution   :      0.00000       0.00000       0.00000
                        -----------------------------------------
Total Dipole Moment    :     -0.00000       0.00000      -0.00000
                        -----------------------------------------
Magnitude (a.u.)       :      0.00000
Magnitude (Debye)      :      0.00000



--------------------
Rotational spectrum 
--------------------
 
Rotational constants in cm-1:     0.000000     0.000000     0.000000 
Rotational constants in MHz :     0.000000     0.000000     0.000000 

 Dipole components along the rotational axes: 
x,y,z [a.u.] :    -0.000000     0.000000    -0.000000 
x,y,z [Debye]:    -0.000000     0.000000    -0.000000 

 

Timings for individual modules:

Sum of individual times         ...        2.998 sec (=   0.050 min)
GTO integral calculation        ...        0.363 sec (=   0.006 min)  12.1 %
SCF iterations                  ...        2.635 sec (=   0.044 min)  87.9 %
                             ****ORCA TERMINATED NORMALLY****
TOTAL RUN TIME: 0 days 0 hours 0 minutes 3 seconds 318 msec
