
                                 *****************
                                 * O   R   C   A *
                                 *****************

           --- An Ab Initio, DFT and Semiempirical electronic structure package ---

                  #######################################################
                  #                        -***-                        #
                  #          Department of theory and spectroscopy      #
                  #               Directorship: Frank Neese             #
                  #        Max Planck Institute fuer Kohlenforschung    #
                  #                Kaiser Wilhelm Platz 1               #
                  #                 D-45470 Muelheim/Ruhr               #
                  #                      Germany                        #
                  #                                                     #
                  #                  All rights reserved                #
                  #                        -***-                        #
                  #######################################################


                         Program Version 4.2.1 -  RELEASE  -


 With contributions from (in alphabetic order):
   Daniel Aravena         : Magnetic Suceptibility
   Michael Atanasov       : Ab Initio Ligand Field Theory (pilot matlab implementation)
   Alexander A. Auer      : GIAO ZORA, VPT2
   Ute Becker             : Parallelization
   Giovanni Bistoni       : ED, misc. LED, open-shell LED, HFLD
   Martin Brehm           : Molecular dynamics
   Dmytro Bykov           : SCF Hessian
   Vijay G. Chilkuri      : MRCI spin determinant printing, contributions to CSF-ICE
   Dipayan Datta          : RHF DLPNO-CCSD density
   Achintya Kumar Dutta   : EOM-CC, STEOM-CC
   Dmitry Ganyushin       : Spin-Orbit,Spin-Spin,Magnetic field MRCI
   Miquel Garcia          : C-PCM Hessian, Gaussian charge scheme
   Yang Guo               : DLPNO-NEVPT2, CIM, IAO-localization
   Andreas Hansen         : Spin unrestricted coupled pair/coupled cluster methods
   Benjamin Helmich-Paris : CASSCF linear response (MC-RPA)
   Lee Huntington         : MR-EOM, pCC
   Robert Izsak           : Overlap fitted RIJCOSX, COSX-SCS-MP3, EOM
   Christian Kollmar      : KDIIS, OOCD, Brueckner-CCSD(T), CCSD density
   Simone Kossmann        : Meta GGA functionals, TD-DFT gradient, OOMP2, MP2 Hessian
   Martin Krupicka        : AUTO-CI
   Lucas Lang             : DCDCAS
   Dagmar Lenk            : GEPOL surface, SMD
   Dimitrios Liakos       : Extrapolation schemes; Compound Job, initial MDCI parallelization
   Dimitrios Manganas     : Further ROCIS development; embedding schemes
   Dimitrios Pantazis     : SARC Basis sets
   Taras Petrenko         : DFT Hessian,TD-DFT gradient, ASA, ECA, R-Raman, ABS, FL, XAS/XES, NRVS
   Peter Pinski           : DLPNO-MP2, DLPNO-MP2 Gradient
   Christoph Reimann      : Effective Core Potentials
   Marius Retegan         : Local ZFS, SOC
   Christoph Riplinger    : Optimizer, TS searches, QM/MM, DLPNO-CCSD(T), (RO)-DLPNO pert. Triples
   Tobias Risthaus        : Range-separated hybrids, TD-DFT gradient, RPA, STAB
   Michael Roemelt        : Original ROCIS implementation
   Masaaki Saitow         : Open-shell DLPNO-CCSD energy and density
   Barbara Sandhoefer     : DKH picture change effects
   Avijit Sen             : IP-ROCIS
   Kantharuban Sivalingam : CASSCF convergence, NEVPT2, FIC-MRCI
   Bernardo de Souza      : ESD, SOC TD-DFT
   Georgi Stoychev        : AutoAux, RI-MP2 NMR
   Willem Van den Heuvel  : Paramagnetic NMR
   Boris Wezisla          : Elementary symmetry handling
   Frank Wennmohs         : Technical directorship


 We gratefully acknowledge several colleagues who have allowed us to
 interface, adapt or use parts of their codes:
   Stefan Grimme, W. Hujo, H. Kruse,             : VdW corrections, initial TS optimization,
                  C. Bannwarth                     DFT functionals, gCP, sTDA/sTD-DF
   Ed Valeev, F. Pavosevic, A. Kumar             : LibInt (2-el integral package), F12 methods
   Garnet Chan, S. Sharma, J. Yang, R. Olivares  : DMRG
   Ulf Ekstrom                                   : XCFun DFT Library
   Mihaly Kallay                                 : mrcc  (arbitrary order and MRCC methods)
   Andreas Klamt, Michael Diedenhofen            : otool_cosmo (COSMO solvation model)
   Jiri Pittner, Ondrej Demel                    : Mk-CCSD
   Frank Weinhold                                : gennbo (NPA and NBO analysis)
   Christopher J. Cramer and Donald G. Truhlar   : smd solvation model
   Lars Goerigk                                  : TD-DFT with DH, B97 family of functionals
   V. Asgeirsson, H. Jonsson                     : NEB implementation
   FAccTs GmbH                                   : IRC, NEB, NEB-TS, Multilevel, MM, QM/MM, CI optimization
   S Lehtola, MJT Oliveira, MAL Marques          : LibXC Library


 Your calculation uses the libint2 library for the computation of 2-el integrals
 For citations please refer to: http://libint.valeyev.net

 Your ORCA version has been built with support for libXC version: 4.2.3
 For citations please refer to: https://tddft.org/programs/libxc/

 This ORCA versions uses:
   CBLAS   interface :  Fast vector & matrix operations
   LAPACKE interface :  Fast linear algebra routines
   SCALAPACK package :  Parallel linear algebra routines


----- Orbital basis set information -----
Your calculation utilizes the basis: cc-pCVTZ 
             H : cc-pVTZ. Obtained from the ccRepo (grant-hill.group.shef.ac.uk/ccrepo) Feb. 2017
                 T. H. Dunning, Jr., J. Chem. Phys. 90, 1007 (1989)
            He : cc-pVTZ. Obtained from the ccRepo (grant-hill.group.shef.ac.uk/ccrepo) Feb. 2017
                 D. E. Woon, T. H. Dunning, Jr., J. Chem. Phys. 100, 2975 (1994)
  Li-Be, Na-Mg : Obtained from the ccRepo (grant-hill.group.shef.ac.uk/ccrepo) Feb. 2017
                 B. P. Prascher, D. E. Woon, K. A. Peterson, T. H. Dunning, Jr., A. K. Wilson, Theor. Chem. Acc. 128, 69 (2011)
          B-Ne : Obtained from the ccRepo (grant-hill.group.shef.ac.uk/ccrepo) Feb. 2017
                 D. E. Woon, T. H. Dunning, Jr., J. Chem. Phys. 103, 4572 (1995)
                  K. A. Peterson, T. H. Dunning, Jr., J. Chem. Phys. 117, 10548 (2002)
         Al-Ar : Obtained from the EMSL Basis Set Exchange (bse.pnl.gov) Feb. 2017
                 K. A. Peterson, T. H. Dunning, Jr., J. Chem. Phys. 117, 10548 (2002)
            Ca : Obtained from the Peterson Research Group Website (tyr0.chem.wsu.edu/~kipeters) Feb. 2017
                 J. Koput, K. A. Peterson, J. Phys. Chem. 106, 9595 (2002)
         Ga-Kr : Obtained from the Peterson Research Group Website (tyr0.chem.wsu.edu/~kipeters) Feb. 2017
                 N. J. DeYonker, K. A. Peterson, A. K. Wilson, J. Phys. Chem. A 111, 11383 (2007)

================================================================================
                                        WARNINGS
                       Please study these warnings very carefully!
================================================================================


INFO   : the flag for use of LIBINT has been found!

================================================================================
                                       INPUT FILE
================================================================================
NAME = Ne_cc-pcvtz_.inp
|  1> ! LDA cc-pcvtz nori grid5 finalgrid6 verytightscf
|  2> %Pal NProcs 18 End
|  3> 
|  4> *xyz 8 1
|  5> Ne 0.0 0.0 0.0
|  6> **                         ****END OF INPUT****
================================================================================

                       ****************************
                       * Single Point Calculation *
                       ****************************

---------------------------------
CARTESIAN COORDINATES (ANGSTROEM)
---------------------------------
  Ne     0.000000    0.000000    0.000000

----------------------------
CARTESIAN COORDINATES (A.U.)
----------------------------
  NO LB      ZA    FRAG     MASS         X           Y           Z
   0 Ne   10.0000    0    20.179    0.000000    0.000000    0.000000

--------------------------------
INTERNAL COORDINATES (ANGSTROEM)
--------------------------------
 Ne     0   0   0     0.000000000000     0.00000000     0.00000000

---------------------------
INTERNAL COORDINATES (A.U.)
---------------------------
 Ne     0   0   0     0.000000000000     0.00000000     0.00000000

---------------------
BASIS SET INFORMATION
---------------------
There are 1 groups of distinct atoms

 Group   1 Type Ne  : 20s7p3d1f contracted to 6s5p3d1f pattern {881111/31111/111/1}

Atom   0Ne   basis set group =>   1


           ************************************************************
           *        Program running with 18 parallel MPI-processes    *
           *              working on a common directory               *
           ************************************************************
------------------------------------------------------------------------------
                           ORCA GTO INTEGRAL CALCULATION
------------------------------------------------------------------------------

                         BASIS SET STATISTICS AND STARTUP INFO

 # of primitive gaussian shells          ...   31
 # of primitive gaussian functions       ...   63
 # of contracted shells                  ...   15
 # of contracted basis functions         ...   43
 Highest angular momentum                ...    3
 Maximum contraction depth               ...    8
 Integral package used                   ... LIBINT
 Integral threshhold            Thresh   ...  1.000e-12
 Primitive cut-off              TCut     ...  1.000e-14


------------------------------ INTEGRAL EVALUATION ----------------------------


 * One electron integrals 
 Pre-screening matrix                    ... done
 Shell pair data                         ... done (   0.000 sec)



           ************************************************************
           *        Program running with 18 parallel MPI-processes    *
           *              working on a common directory               *
           ************************************************************
-------------------------------------------------------------------------------
                                 ORCA SCF
-------------------------------------------------------------------------------

------------
SCF SETTINGS
------------
Hamiltonian:
 Density Functional     Method          .... DFT(GTOs)
 Exchange Functional    Exchange        .... Slater
   X-Alpha parameter    XAlpha          ....  0.666667
 Correlation Functional Correlation     .... VWN-5
 Gradients option       PostSCFGGA      .... off
   Density functional embedding theory  .... OFF


General Settings:
 Integral files         IntName         .... Ne_cc-pcvtz_
 Hartree-Fock type      HFTyp           .... RHF
 Total Charge           Charge          ....    8
 Multiplicity           Mult            ....    1
 Number of Electrons    NEL             ....    2
 Basis Dimension        Dim             ....   43
 Nuclear Repulsion      ENuc            ....      0.0000000000 Eh

Convergence Acceleration:
 DIIS                   CNVDIIS         .... on
   Start iteration      DIISMaxIt       ....    12
   Startup error        DIISStart       ....  0.200000
   # of expansion vecs  DIISMaxEq       ....     5
   Bias factor          DIISBfac        ....   1.050
   Max. coefficient     DIISMaxC        ....  10.000
 Newton-Raphson         CNVNR           .... off
 SOSCF                  CNVSOSCF        .... on
   Start iteration      SOSCFMaxIt      ....   150
   Startup grad/error   SOSCFStart      ....  0.003300
 Level Shifting         CNVShift        .... on
   Level shift para.    LevelShift      ....    0.2500
   Turn off err/grad.   ShiftErr        ....    0.0010
 Zerner damping         CNVZerner       .... off
 Static damping         CNVDamp         .... on
   Fraction old density DampFac         ....    0.7000
   Max. Damping (<1)    DampMax         ....    0.9800
   Min. Damping (>=0)   DampMin         ....    0.0000
   Turn off err/grad.   DampErr         ....    0.1000
 Fernandez-Rico         CNVRico         .... off

SCF Procedure:
 Maximum # iterations   MaxIter         ....   125
 SCF integral mode      SCFMode         .... Direct
   Integral package                     .... LIBINT
 Reset frequency        DirectResetFreq ....    20
 Integral Threshold     Thresh          ....  1.000e-12 Eh
 Primitive CutOff       TCut            ....  1.000e-14 Eh

Convergence Tolerance:
 Convergence Check Mode ConvCheckMode   .... Total+1el-Energy
 Convergence forced     ConvForced      .... 0
 Energy Change          TolE            ....  1.000e-09 Eh
 1-El. energy change                    ....  1.000e-06 Eh
 Orbital Gradient       TolG            ....  2.000e-06
 Orbital Rotation angle TolX            ....  2.000e-06
 DIIS Error             TolErr          ....  1.000e-08


Diagonalization of the overlap matrix:
Smallest eigenvalue                        ... 1.088e-02
Time for diagonalization                   ...    0.001 sec
Threshold for overlap eigenvalues          ... 1.000e-08
Number of eigenvalues below threshold      ... 0
Time for construction of square roots      ...    0.001 sec
Total time needed                          ...    0.002 sec

-------------------
DFT GRID GENERATION
-------------------

General Integration Accuracy     IntAcc      ...  5.010
Radial Grid Type                 RadialGrid  ... Gauss-Chebyshev
Angular Grid (max. acc.)         AngularGrid ... Lebedev-434
Angular grid pruning method      GridPruning ... 3 (G Style)
Weight generation scheme         WeightScheme... Becke
Basis function cutoff            BFCut       ...    1.0000e-12
Integration weight cutoff        WCut        ...    1.0000e-14
Grids for H and He will be reduced by one unit

# of grid points (after initial pruning)     ...  10818 (   0.0 sec)
# of grid points (after weights+screening)   ...  10818 (   0.0 sec)
Grid point division into batches done        ...    0.1 sec
Reduced shell lists constructed in    0.1 sec

Total number of grid points                  ...    10818
Total number of batches                      ...      170
Average number of points per batch           ...       63
Average number of grid points per atom       ...    10818
Average number of shells per batch           ...     0.00 ( 0.00%)
Average number of basis functions per batch  ...     0.00 ( 0.00%)
Average number of large shells per batch     ...     0.00 ( -nan%)
Average number of large basis fcns per batch ...     0.00 ( -nan%)
Maximum spatial batch extension              ...  16.29, 16.29, 16.29 au
Average spatial batch extension              ...   0.85,  0.86,  0.85 au

Time for grid setup =    0.116 sec

------------------------------
INITIAL GUESS: MODEL POTENTIAL
------------------------------
Loading Hartree-Fock densities                     ... done
Calculating cut-offs                               ... done
Setting up the integral package                    ... done
Initializing the effective Hamiltonian             ... done
Starting the Coulomb interaction                   ... done (   0.0 sec)
Reading the grid                                   ... done
Mapping shells                                     ... done
Starting the XC term evaluation                    ... done (   0.0 sec)
  promolecular density results
     # of electrons  =     10.000000230
     EX              =    -11.033501327
     EC              =     -0.746381123
     EX+EC           =    -11.779882450
Transforming the Hamiltonian                       ... done (   0.0 sec)
Diagonalizing the Hamiltonian                      ... done (   0.0 sec)
Back transforming the eigenvectors                 ... done (   0.0 sec)
Now organizing SCF variables                       ... done
                      ------------------
                      INITIAL GUESS DONE (   0.2 sec)
                      ------------------
--------------
SCF ITERATIONS
--------------
ITER       Energy         Delta-E        Max-DP      RMS-DP      [F,P]     Damp
               ***  Starting incremental Fock matrix formation  ***
  0    -93.1984760720   0.000000000000 0.01330091  0.00039419  0.7930277 0.7000
  1    -93.2022171712  -0.003741099236 0.00905498  0.00027106  0.5486780 0.7000
  2    -93.2047805231  -0.002563351873 0.00610908  0.00018474  0.3785010 0.7000
                      *** Initiating the SOSCF procedure ***
                      *** Re-Reading the Fockian *** 
                      *** Removing any level shift *** 
ITER      Energy       Delta-E        Grad      Rot      Max-DP    RMS-DP
  3    -93.20654895  -0.0017684283  0.003055  0.003055  0.013731  0.000420
               *** Restarting incremental Fock matrix formation ***
  4    -93.21059690  -0.0040479504  0.006945  0.000110  0.001192  0.000031
  5    -93.21059977  -0.0000028725  0.000373  0.000006  0.000063  0.000002
                  ***Gradient check signals convergence***
              ***Rediagonalizing the Fockian in SOSCF/NRSCF***

               *****************************************************
               *                     SUCCESS                       *
               *           SCF CONVERGED AFTER   6 CYCLES          *
               *****************************************************

Setting up the final grid:

General Integration Accuracy     IntAcc      ...  5.340
Radial Grid Type                 RadialGrid  ... Gauss-Chebyshev
Angular Grid (max. acc.)         AngularGrid ... Lebedev-590
Angular grid pruning method      GridPruning ... 3 (G Style)
Weight generation scheme         WeightScheme... Becke
Basis function cutoff            BFCut       ...    1.0000e-12
Integration weight cutoff        WCut        ...    1.0000e-14
Grids for H and He will be reduced by one unit

# of grid points (after initial pruning)     ...  16840 (   0.0 sec)
# of grid points (after weights+screening)   ...  16840 (   0.0 sec)
Grid point division into batches done        ...    0.2 sec
Reduced shell lists constructed in    0.2 sec

Total number of grid points                  ...    16840
Total number of batches                      ...      264
Average number of points per batch           ...       63
Average number of grid points per atom       ...    16840
Average number of shells per batch           ...     0.00 ( 0.00%)
Average number of basis functions per batch  ...     0.00 ( 0.00%)
Average number of large shells per batch     ...     0.00 ( -nan%)
Average number of large basis fcns per batch ...     0.00 ( -nan%)
Maximum spatial batch extension              ...  16.63, 16.63, 16.63 au
Average spatial batch extension              ...   0.74,  0.74,  0.69 au

Final grid set up in    0.3 sec
Final integration                            ... done (   0.0 sec)
Change in XC energy                          ...     0.000005234
Integrated number of electrons               ...     2.000000018
Previous integrated no of electrons          ...     2.000000894

----------------
TOTAL SCF ENERGY
----------------

Total Energy       :          -93.21059455 Eh           -2536.38923 eV

Components:
Nuclear Repulsion  :            0.00000000 Eh               0.00000 eV
Electronic Energy  :          -93.21059455 Eh           -2536.38923 eV
One Electron Energy:          -99.85045422 Eh           -2717.06899 eV
Two Electron Energy:            6.63985967 Eh             180.67977 eV

Virial components:
Potential Energy   :         -186.26375549 Eh           -5068.49446 eV
Kinetic Energy     :           93.05316094 Eh            2532.10524 eV
Virial Ratio       :            2.00169187


DFT components:
N(Alpha)           :        1.000000009249 electrons
N(Beta)            :        1.000000009249 electrons
N(Total)           :        2.000000018497 electrons
E(X)               :       -5.145938119071 Eh       
E(C)               :       -0.202678174100 Eh       
E(XC)              :       -5.348616293171 Eh       
DFET-embed. en.    :        0.000000000000 Eh       

---------------
SCF CONVERGENCE
---------------

  Last Energy change         ...   -8.6955e-09  Tolerance :   1.0000e-09
  Last MAX-Density change    ...    3.3597e-09  Tolerance :   1.0000e-08
  Last RMS-Density change    ...    1.2931e-10  Tolerance :   1.0000e-09
  Last Orbital Gradient      ...    2.7817e-08  Tolerance :   2.0000e-06
  Last Orbital Rotation      ...    3.8430e-10  Tolerance :   2.0000e-06

             **** THE GBW FILE WAS UPDATED (Ne_cc-pcvtz_.gbw) ****
             **** DENSITY FILE WAS UPDATED (Ne_cc-pcvtz_.scfp) ****
             **** ENERGY FILE WAS UPDATED (Ne_cc-pcvtz_.en.tmp) ****
             **** THE GBW FILE WAS UPDATED (Ne_cc-pcvtz_.gbw) ****
             **** DENSITY FILE WAS UPDATED (Ne_cc-pcvtz_.scfp) ****
----------------
ORBITAL ENERGIES
----------------

  NO   OCC          E(Eh)            E(eV) 
   0   2.0000     -41.477925     -1128.6717 
   1   0.0000      -9.048386      -246.2191 
   2   0.0000      -8.605518      -234.1681 
   3   0.0000      -8.605518      -234.1681 
   4   0.0000      -8.605518      -234.1681 
   5   0.0000      -3.832222      -104.2801 
   6   0.0000      -3.655109       -99.4606 
   7   0.0000      -3.655109       -99.4606 
   8   0.0000      -3.655109       -99.4606 
   9   0.0000      -3.489694       -94.9594 
  10   0.0000      -3.489694       -94.9594 
  11   0.0000      -3.489694       -94.9594 
  12   0.0000      -3.489694       -94.9594 
  13   0.0000      -3.489694       -94.9594 
  14   0.0000      -1.353583       -36.8329 
  15   0.0000      -1.353583       -36.8329 
  16   0.0000      -1.353583       -36.8329 
  17   0.0000      -0.047085        -1.2813 
  18   0.0000       2.061919        56.1077 
  19   0.0000       2.061919        56.1077 
  20   0.0000       2.061919        56.1077 
  21   0.0000       2.061919        56.1077 
  22   0.0000       2.061919        56.1077 
  23   0.0000       2.061919        56.1077 
  24   0.0000       2.061919        56.1077 
  25   0.0000       2.533101        68.9292 
  26   0.0000       2.533101        68.9292 
  27   0.0000       2.533101        68.9292 
  28   0.0000       2.533101        68.9292 
  29   0.0000       2.533101        68.9292 
  30   0.0000      26.855460       730.7742 
  31   0.0000      26.855460       730.7742 
  32   0.0000      26.855460       730.7742 
  33   0.0000      30.593333       832.4869 
  34   0.0000      52.166400      1419.5199 
  35   0.0000      52.166400      1419.5199 
  36   0.0000      52.166400      1419.5199 
  37   0.0000      52.166400      1419.5199 
  38   0.0000      52.166400      1419.5199 
  39   0.0000     192.440849      5236.5817 
  40   0.0000     192.440849      5236.5817 
  41   0.0000     192.440849      5236.5817 
  42   0.0000     208.820887      5682.3052 

                    ********************************
                    * MULLIKEN POPULATION ANALYSIS *
                    ********************************

-----------------------
MULLIKEN ATOMIC CHARGES
-----------------------
   0 Ne:    8.000000
Sum of atomic charges:    8.0000000

--------------------------------
MULLIKEN REDUCED ORBITAL CHARGES
--------------------------------
  0 Nes       :     2.000000  s :     2.000000
      pz      :     0.000000  p :     0.000000
      px      :     0.000000
      py      :     0.000000
      dz2     :     0.000000  d :     0.000000
      dxz     :     0.000000
      dyz     :     0.000000
      dx2y2   :     0.000000
      dxy     :     0.000000
      f0      :     0.000000  f :     0.000000
      f+1     :     0.000000
      f-1     :     0.000000
      f+2     :     0.000000
      f-2     :     0.000000
      f+3     :     0.000000
      f-3     :     0.000000


                     *******************************
                     * LOEWDIN POPULATION ANALYSIS *
                     *******************************

----------------------
LOEWDIN ATOMIC CHARGES
----------------------
   0 Ne:    8.000000

-------------------------------
LOEWDIN REDUCED ORBITAL CHARGES
-------------------------------
  0 Nes       :     2.000000  s :     2.000000
      pz      :     0.000000  p :     0.000000
      px      :     0.000000
      py      :     0.000000
      dz2     :     0.000000  d :     0.000000
      dxz     :     0.000000
      dyz     :     0.000000
      dx2y2   :     0.000000
      dxy     :     0.000000
      f0      :     0.000000  f :     0.000000
      f+1     :     0.000000
      f-1     :     0.000000
      f+2     :     0.000000
      f-2     :     0.000000
      f+3     :     0.000000
      f-3     :     0.000000


                      *****************************
                      * MAYER POPULATION ANALYSIS *
                      *****************************

  NA   - Mulliken gross atomic population
  ZA   - Total nuclear charge
  QA   - Mulliken gross atomic charge
  VA   - Mayer's total valence
  BVA  - Mayer's bonded valence
  FA   - Mayer's free valence

  ATOM       NA         ZA         QA         VA         BVA        FA
  0 Ne     2.0000    10.0000     8.0000    -0.0000     0.0000    -0.0000

  Mayer bond orders larger than 0.100000


--------------------------
ATOM BASIS FOR ELEMENT Ne
--------------------------
 NewGTO Ne
 S 20
    1      24350.000000000000         0.000503911864
    2       3650.000000000000         0.003895780763
    3        829.600000000000         0.020073158445
    4        234.000000000000         0.078716654447
    5         75.610000000000         0.230550719564
    6         26.730000000000         0.434370018945
    7          9.927000000000         0.351977417795
    8          1.102000000000        -0.007674115933
    9      24350.000000000000         0.000000002800
   10       3650.000000000000         0.000000021709
   11        829.600000000000         0.000000112387
   12        234.000000000000         0.000000456311
   13         75.610000000000         0.000001432280
   14         26.730000000000         0.000003381063
   15          9.927000000000         0.000004216246
   16          1.102000000000        -0.000014373719
   17          2.836000000000         0.036083860938
   18          0.378200000000         0.001676668987
   19         12.083000000000         0.002496773732
   20         31.947000000000        -0.001571790095
 S 20
    1      24350.000000000000         0.000046688685
    2       3650.000000000000         0.000360953756
    3        829.600000000000         0.001859827946
    4        234.000000000000         0.007293293386
    5         75.610000000000         0.021361096325
    6         26.730000000000         0.040245460232
    7          9.927000000000         0.032611581261
    8          1.102000000000        -0.000711025886
    9      24350.000000000000         0.000122135388
   10       3650.000000000000         0.000947066778
   11        829.600000000000         0.004903011285
   12        234.000000000000         0.019907033153
   13         75.610000000000         0.062484671367
   14         26.730000000000         0.147502286723
   15          9.927000000000         0.183937963999
   16          1.102000000000        -0.627067921656
   17          2.836000000000        -0.561593283718
   18          0.378200000000         0.008263344734
   19         12.083000000000         0.039446312850
   20         31.947000000000         0.016704820810
 S 20
    1      24350.000000000000        -0.000032222587
    2       3650.000000000000        -0.000249115263
    3        829.600000000000        -0.001283575860
    4        234.000000000000        -0.005033527617
    5         75.610000000000        -0.014742539837
    6         26.730000000000        -0.027775742017
    7          9.927000000000        -0.022507156401
    8          1.102000000000         0.000490720480
    9      24350.000000000000         0.000118566713
   10       3650.000000000000         0.000919394424
   11        829.600000000000         0.004759750150
   12        234.000000000000         0.019325369354
   13         75.610000000000         0.060658931134
   14         26.730000000000         0.143192415944
   15          9.927000000000         0.178563478804
   16          1.102000000000        -0.608745617830
   17          2.836000000000        -0.606736717313
   18          0.378200000000         1.443826941884
   19         12.083000000000         0.011082965339
   20         31.947000000000        -0.002985401435
 S 20
    1      24350.000000000000         0.000940008271
    2       3650.000000000000         0.007267275102
    3        829.600000000000         0.037444911159
    4        234.000000000000         0.146839778131
    5         75.610000000000         0.430074381927
    6         26.730000000000         0.810283384840
    7          9.927000000000         0.656586414897
    8          1.102000000000        -0.014315464610
    9      24350.000000000000        -0.000712636506
   10       3650.000000000000        -0.005525952569
   11        829.600000000000        -0.028608128218
   12        234.000000000000        -0.116153711214
   13         75.610000000000        -0.364586044418
   14         26.730000000000        -0.860647484934
   15          9.927000000000        -1.073242656886
   16          1.102000000000         3.658820765727
   17          2.836000000000        -2.830681374148
   18          0.378200000000        -1.616564669583
   19         12.083000000000         0.929455757488
   20         31.947000000000         0.137472794107
 S 20
    1      24350.000000000000         0.000040822832
    2       3650.000000000000         0.000315604404
    3        829.600000000000         0.001626163688
    4        234.000000000000         0.006376981751
    5         75.610000000000         0.018677340159
    6         26.730000000000         0.035189118534
    7          9.927000000000         0.028514341542
    8          1.102000000000        -0.000621694324
    9      24350.000000000000        -0.000316674643
   10       3650.000000000000        -0.002455570322
   11        829.600000000000        -0.012712608324
   12        234.000000000000        -0.051615283068
   13         75.610000000000        -0.162011283914
   14         26.730000000000        -0.382446355714
   15          9.927000000000        -0.476917379192
   16          1.102000000000         1.625872023747
   17          2.836000000000        -2.368234828113
   18          0.378200000000        -0.495731714316
   19         12.083000000000         3.517507890237
   20         31.947000000000        -1.519408512550
 S 20
    1      24350.000000000000        -0.003600935748
    2       3650.000000000000        -0.027839106846
    3        829.600000000000        -0.143442056066
    4        234.000000000000        -0.562506333580
    5         75.610000000000        -1.647507009505
    6         26.730000000000        -3.103992268094
    7          9.927000000000        -2.515217753821
    8          1.102000000000         0.054838951774
    9      24350.000000000000         0.000161032404
   10       3650.000000000000         0.001248683470
   11        829.600000000000         0.006464495732
   12        234.000000000000         0.026246917125
   13         75.610000000000         0.082384450678
   14         26.730000000000         0.194478015162
   15          9.927000000000         0.242517529362
   16          1.102000000000        -0.826773113042
   17          2.836000000000         1.268942892535
   18          0.378200000000         0.230015457746
   19         12.083000000000         0.724688128539
   20         31.947000000000         5.537342625883
 P 7
    1         54.700000000000         0.032784158324
    2         12.430000000000         0.205784580987
    3          3.679000000000         0.614893640824
    4          1.143000000000         0.329400651566
    5          0.330000000000        -0.016997783945
    6         22.827000000000         0.002562906493
    7         87.017000000000        -0.000752623141
 P 7
    1         54.700000000000         0.023894370230
    2         12.430000000000         0.149983809779
    3          3.679000000000         0.448158411176
    4          1.143000000000        -0.342588324594
    5          0.330000000000        -0.793581958204
    6         22.827000000000        -0.014909952163
    7         87.017000000000        -0.001531147385
 P 7
    1         54.700000000000         0.039028938521
    2         12.430000000000         0.244982765170
    3          3.679000000000         0.732019589088
    4          1.143000000000        -1.603062410676
    5          0.330000000000         1.102970338266
    6         22.827000000000        -0.041974988454
    7         87.017000000000        -0.003068095307
 P 7
    1         54.700000000000        -0.046783885982
    2         12.430000000000        -0.293660196446
    3          3.679000000000        -0.877469956648
    4          1.143000000000         0.612360145683
    5          0.330000000000        -0.214645122385
    6         22.827000000000         1.348115568859
    7         87.017000000000        -0.011440051371
 P 7
    1         54.700000000000         0.016975515954
    2         12.430000000000         0.106554495105
    3          3.679000000000         0.318389653525
    4          1.143000000000        -0.198943268074
    5          0.330000000000         0.068142529636
    6         22.827000000000        -0.963858409926
    7         87.017000000000         1.278876609652
 D 3
    1          4.014000000000         0.186925765089
    2          1.096000000000         0.892044007793
    3         23.168000000000         0.010474026053
 D 3
    1          4.014000000000         1.130865614121
    2          1.096000000000        -0.733220144000
    3         23.168000000000         0.023250332197
 D 3
    1          4.014000000000        -0.419011817249
    2          1.096000000000         0.155089872089
    3         23.168000000000         1.056827800476
 F 1
    1          2.544000000000         1.000000000000
 end
  // -----------------------------------------------
  // The basis set
  // -----------------------------------------------
  BAS[ATNO] = new BFNGauss[NSH];
  // Basis function   1 L = s
  InitBFNGauss(BAS[ATNO][  0]);
  BAS[ATNO][  0].l  = 0;
  BAS[ATNO][  0].ng = 20;
  BAS[ATNO][  0].a[  0] =     24350.000000000000;     BAS[ATNO][  0].d[  0] =         0.000503911864;
  BAS[ATNO][  0].a[  1] =      3650.000000000000;     BAS[ATNO][  0].d[  1] =         0.003895780763;
  BAS[ATNO][  0].a[  2] =       829.600000000000;     BAS[ATNO][  0].d[  2] =         0.020073158445;
  BAS[ATNO][  0].a[  3] =       234.000000000000;     BAS[ATNO][  0].d[  3] =         0.078716654447;
  BAS[ATNO][  0].a[  4] =        75.610000000000;     BAS[ATNO][  0].d[  4] =         0.230550719564;
  BAS[ATNO][  0].a[  5] =        26.730000000000;     BAS[ATNO][  0].d[  5] =         0.434370018945;
  BAS[ATNO][  0].a[  6] =         9.927000000000;     BAS[ATNO][  0].d[  6] =         0.351977417795;
  BAS[ATNO][  0].a[  7] =         1.102000000000;     BAS[ATNO][  0].d[  7] =        -0.007674115933;
  BAS[ATNO][  0].a[  8] =     24350.000000000000;     BAS[ATNO][  0].d[  8] =         0.000000002800;
  BAS[ATNO][  0].a[  9] =      3650.000000000000;     BAS[ATNO][  0].d[  9] =         0.000000021709;
  BAS[ATNO][  0].a[ 10] =       829.600000000000;     BAS[ATNO][  0].d[ 10] =         0.000000112387;
  BAS[ATNO][  0].a[ 11] =       234.000000000000;     BAS[ATNO][  0].d[ 11] =         0.000000456311;
  BAS[ATNO][  0].a[ 12] =        75.610000000000;     BAS[ATNO][  0].d[ 12] =         0.000001432280;
  BAS[ATNO][  0].a[ 13] =        26.730000000000;     BAS[ATNO][  0].d[ 13] =         0.000003381063;
  BAS[ATNO][  0].a[ 14] =         9.927000000000;     BAS[ATNO][  0].d[ 14] =         0.000004216246;
  BAS[ATNO][  0].a[ 15] =         1.102000000000;     BAS[ATNO][  0].d[ 15] =        -0.000014373719;
  BAS[ATNO][  0].a[ 16] =         2.836000000000;     BAS[ATNO][  0].d[ 16] =         0.036083860938;
  BAS[ATNO][  0].a[ 17] =         0.378200000000;     BAS[ATNO][  0].d[ 17] =         0.001676668987;
  BAS[ATNO][  0].a[ 18] =        12.083000000000;     BAS[ATNO][  0].d[ 18] =         0.002496773732;
  BAS[ATNO][  0].a[ 19] =        31.947000000000;     BAS[ATNO][  0].d[ 19] =        -0.001571790095;

  // Basis function   2 L = s
  InitBFNGauss(BAS[ATNO][  1]);
  BAS[ATNO][  1].l  = 0;
  BAS[ATNO][  1].ng = 20;
  BAS[ATNO][  1].a[  0] =     24350.000000000000;     BAS[ATNO][  1].d[  0] =        -0.000046688685;
  BAS[ATNO][  1].a[  1] =      3650.000000000000;     BAS[ATNO][  1].d[  1] =        -0.000360953756;
  BAS[ATNO][  1].a[  2] =       829.600000000000;     BAS[ATNO][  1].d[  2] =        -0.001859827946;
  BAS[ATNO][  1].a[  3] =       234.000000000000;     BAS[ATNO][  1].d[  3] =        -0.007293293386;
  BAS[ATNO][  1].a[  4] =        75.610000000000;     BAS[ATNO][  1].d[  4] =        -0.021361096325;
  BAS[ATNO][  1].a[  5] =        26.730000000000;     BAS[ATNO][  1].d[  5] =        -0.040245460232;
  BAS[ATNO][  1].a[  6] =         9.927000000000;     BAS[ATNO][  1].d[  6] =        -0.032611581261;
  BAS[ATNO][  1].a[  7] =         1.102000000000;     BAS[ATNO][  1].d[  7] =         0.000711025886;
  BAS[ATNO][  1].a[  8] =     24350.000000000000;     BAS[ATNO][  1].d[  8] =        -0.000122135388;
  BAS[ATNO][  1].a[  9] =      3650.000000000000;     BAS[ATNO][  1].d[  9] =        -0.000947066778;
  BAS[ATNO][  1].a[ 10] =       829.600000000000;     BAS[ATNO][  1].d[ 10] =        -0.004903011285;
  BAS[ATNO][  1].a[ 11] =       234.000000000000;     BAS[ATNO][  1].d[ 11] =        -0.019907033153;
  BAS[ATNO][  1].a[ 12] =        75.610000000000;     BAS[ATNO][  1].d[ 12] =        -0.062484671367;
  BAS[ATNO][  1].a[ 13] =        26.730000000000;     BAS[ATNO][  1].d[ 13] =        -0.147502286723;
  BAS[ATNO][  1].a[ 14] =         9.927000000000;     BAS[ATNO][  1].d[ 14] =        -0.183937963999;
  BAS[ATNO][  1].a[ 15] =         1.102000000000;     BAS[ATNO][  1].d[ 15] =         0.627067921656;
  BAS[ATNO][  1].a[ 16] =         2.836000000000;     BAS[ATNO][  1].d[ 16] =         0.561593283718;
  BAS[ATNO][  1].a[ 17] =         0.378200000000;     BAS[ATNO][  1].d[ 17] =        -0.008263344734;
  BAS[ATNO][  1].a[ 18] =        12.083000000000;     BAS[ATNO][  1].d[ 18] =        -0.039446312850;
  BAS[ATNO][  1].a[ 19] =        31.947000000000;     BAS[ATNO][  1].d[ 19] =        -0.016704820810;

  // Basis function   3 L = s
  InitBFNGauss(BAS[ATNO][  2]);
  BAS[ATNO][  2].l  = 0;
  BAS[ATNO][  2].ng = 20;
  BAS[ATNO][  2].a[  0] =     24350.000000000000;     BAS[ATNO][  2].d[  0] =        -0.000032222587;
  BAS[ATNO][  2].a[  1] =      3650.000000000000;     BAS[ATNO][  2].d[  1] =        -0.000249115263;
  BAS[ATNO][  2].a[  2] =       829.600000000000;     BAS[ATNO][  2].d[  2] =        -0.001283575860;
  BAS[ATNO][  2].a[  3] =       234.000000000000;     BAS[ATNO][  2].d[  3] =        -0.005033527617;
  BAS[ATNO][  2].a[  4] =        75.610000000000;     BAS[ATNO][  2].d[  4] =        -0.014742539837;
  BAS[ATNO][  2].a[  5] =        26.730000000000;     BAS[ATNO][  2].d[  5] =        -0.027775742017;
  BAS[ATNO][  2].a[  6] =         9.927000000000;     BAS[ATNO][  2].d[  6] =        -0.022507156401;
  BAS[ATNO][  2].a[  7] =         1.102000000000;     BAS[ATNO][  2].d[  7] =         0.000490720480;
  BAS[ATNO][  2].a[  8] =     24350.000000000000;     BAS[ATNO][  2].d[  8] =         0.000118566713;
  BAS[ATNO][  2].a[  9] =      3650.000000000000;     BAS[ATNO][  2].d[  9] =         0.000919394424;
  BAS[ATNO][  2].a[ 10] =       829.600000000000;     BAS[ATNO][  2].d[ 10] =         0.004759750150;
  BAS[ATNO][  2].a[ 11] =       234.000000000000;     BAS[ATNO][  2].d[ 11] =         0.019325369354;
  BAS[ATNO][  2].a[ 12] =        75.610000000000;     BAS[ATNO][  2].d[ 12] =         0.060658931134;
  BAS[ATNO][  2].a[ 13] =        26.730000000000;     BAS[ATNO][  2].d[ 13] =         0.143192415944;
  BAS[ATNO][  2].a[ 14] =         9.927000000000;     BAS[ATNO][  2].d[ 14] =         0.178563478804;
  BAS[ATNO][  2].a[ 15] =         1.102000000000;     BAS[ATNO][  2].d[ 15] =        -0.608745617830;
  BAS[ATNO][  2].a[ 16] =         2.836000000000;     BAS[ATNO][  2].d[ 16] =        -0.606736717313;
  BAS[ATNO][  2].a[ 17] =         0.378200000000;     BAS[ATNO][  2].d[ 17] =         1.443826941884;
  BAS[ATNO][  2].a[ 18] =        12.083000000000;     BAS[ATNO][  2].d[ 18] =         0.011082965339;
  BAS[ATNO][  2].a[ 19] =        31.947000000000;     BAS[ATNO][  2].d[ 19] =        -0.002985401435;

  // Basis function   4 L = s
  InitBFNGauss(BAS[ATNO][  3]);
  BAS[ATNO][  3].l  = 0;
  BAS[ATNO][  3].ng = 20;
  BAS[ATNO][  3].a[  0] =     24350.000000000000;     BAS[ATNO][  3].d[  0] =         0.000940008271;
  BAS[ATNO][  3].a[  1] =      3650.000000000000;     BAS[ATNO][  3].d[  1] =         0.007267275102;
  BAS[ATNO][  3].a[  2] =       829.600000000000;     BAS[ATNO][  3].d[  2] =         0.037444911159;
  BAS[ATNO][  3].a[  3] =       234.000000000000;     BAS[ATNO][  3].d[  3] =         0.146839778131;
  BAS[ATNO][  3].a[  4] =        75.610000000000;     BAS[ATNO][  3].d[  4] =         0.430074381927;
  BAS[ATNO][  3].a[  5] =        26.730000000000;     BAS[ATNO][  3].d[  5] =         0.810283384840;
  BAS[ATNO][  3].a[  6] =         9.927000000000;     BAS[ATNO][  3].d[  6] =         0.656586414897;
  BAS[ATNO][  3].a[  7] =         1.102000000000;     BAS[ATNO][  3].d[  7] =        -0.014315464610;
  BAS[ATNO][  3].a[  8] =     24350.000000000000;     BAS[ATNO][  3].d[  8] =        -0.000712636506;
  BAS[ATNO][  3].a[  9] =      3650.000000000000;     BAS[ATNO][  3].d[  9] =        -0.005525952569;
  BAS[ATNO][  3].a[ 10] =       829.600000000000;     BAS[ATNO][  3].d[ 10] =        -0.028608128218;
  BAS[ATNO][  3].a[ 11] =       234.000000000000;     BAS[ATNO][  3].d[ 11] =        -0.116153711214;
  BAS[ATNO][  3].a[ 12] =        75.610000000000;     BAS[ATNO][  3].d[ 12] =        -0.364586044418;
  BAS[ATNO][  3].a[ 13] =        26.730000000000;     BAS[ATNO][  3].d[ 13] =        -0.860647484934;
  BAS[ATNO][  3].a[ 14] =         9.927000000000;     BAS[ATNO][  3].d[ 14] =        -1.073242656886;
  BAS[ATNO][  3].a[ 15] =         1.102000000000;     BAS[ATNO][  3].d[ 15] =         3.658820765727;
  BAS[ATNO][  3].a[ 16] =         2.836000000000;     BAS[ATNO][  3].d[ 16] =        -2.830681374148;
  BAS[ATNO][  3].a[ 17] =         0.378200000000;     BAS[ATNO][  3].d[ 17] =        -1.616564669583;
  BAS[ATNO][  3].a[ 18] =        12.083000000000;     BAS[ATNO][  3].d[ 18] =         0.929455757488;
  BAS[ATNO][  3].a[ 19] =        31.947000000000;     BAS[ATNO][  3].d[ 19] =         0.137472794107;

  // Basis function   5 L = s
  InitBFNGauss(BAS[ATNO][  4]);
  BAS[ATNO][  4].l  = 0;
  BAS[ATNO][  4].ng = 20;
  BAS[ATNO][  4].a[  0] =     24350.000000000000;     BAS[ATNO][  4].d[  0] =         0.000040822832;
  BAS[ATNO][  4].a[  1] =      3650.000000000000;     BAS[ATNO][  4].d[  1] =         0.000315604404;
  BAS[ATNO][  4].a[  2] =       829.600000000000;     BAS[ATNO][  4].d[  2] =         0.001626163688;
  BAS[ATNO][  4].a[  3] =       234.000000000000;     BAS[ATNO][  4].d[  3] =         0.006376981751;
  BAS[ATNO][  4].a[  4] =        75.610000000000;     BAS[ATNO][  4].d[  4] =         0.018677340159;
  BAS[ATNO][  4].a[  5] =        26.730000000000;     BAS[ATNO][  4].d[  5] =         0.035189118534;
  BAS[ATNO][  4].a[  6] =         9.927000000000;     BAS[ATNO][  4].d[  6] =         0.028514341542;
  BAS[ATNO][  4].a[  7] =         1.102000000000;     BAS[ATNO][  4].d[  7] =        -0.000621694324;
  BAS[ATNO][  4].a[  8] =     24350.000000000000;     BAS[ATNO][  4].d[  8] =        -0.000316674643;
  BAS[ATNO][  4].a[  9] =      3650.000000000000;     BAS[ATNO][  4].d[  9] =        -0.002455570322;
  BAS[ATNO][  4].a[ 10] =       829.600000000000;     BAS[ATNO][  4].d[ 10] =        -0.012712608324;
  BAS[ATNO][  4].a[ 11] =       234.000000000000;     BAS[ATNO][  4].d[ 11] =        -0.051615283068;
  BAS[ATNO][  4].a[ 12] =        75.610000000000;     BAS[ATNO][  4].d[ 12] =        -0.162011283914;
  BAS[ATNO][  4].a[ 13] =        26.730000000000;     BAS[ATNO][  4].d[ 13] =        -0.382446355714;
  BAS[ATNO][  4].a[ 14] =         9.927000000000;     BAS[ATNO][  4].d[ 14] =        -0.476917379192;
  BAS[ATNO][  4].a[ 15] =         1.102000000000;     BAS[ATNO][  4].d[ 15] =         1.625872023747;
  BAS[ATNO][  4].a[ 16] =         2.836000000000;     BAS[ATNO][  4].d[ 16] =        -2.368234828113;
  BAS[ATNO][  4].a[ 17] =         0.378200000000;     BAS[ATNO][  4].d[ 17] =        -0.495731714316;
  BAS[ATNO][  4].a[ 18] =        12.083000000000;     BAS[ATNO][  4].d[ 18] =         3.517507890237;
  BAS[ATNO][  4].a[ 19] =        31.947000000000;     BAS[ATNO][  4].d[ 19] =        -1.519408512550;

  // Basis function   6 L = s
  InitBFNGauss(BAS[ATNO][  5]);
  BAS[ATNO][  5].l  = 0;
  BAS[ATNO][  5].ng = 20;
  BAS[ATNO][  5].a[  0] =     24350.000000000000;     BAS[ATNO][  5].d[  0] =        -0.003600935748;
  BAS[ATNO][  5].a[  1] =      3650.000000000000;     BAS[ATNO][  5].d[  1] =        -0.027839106846;
  BAS[ATNO][  5].a[  2] =       829.600000000000;     BAS[ATNO][  5].d[  2] =        -0.143442056066;
  BAS[ATNO][  5].a[  3] =       234.000000000000;     BAS[ATNO][  5].d[  3] =        -0.562506333580;
  BAS[ATNO][  5].a[  4] =        75.610000000000;     BAS[ATNO][  5].d[  4] =        -1.647507009505;
  BAS[ATNO][  5].a[  5] =        26.730000000000;     BAS[ATNO][  5].d[  5] =        -3.103992268094;
  BAS[ATNO][  5].a[  6] =         9.927000000000;     BAS[ATNO][  5].d[  6] =        -2.515217753821;
  BAS[ATNO][  5].a[  7] =         1.102000000000;     BAS[ATNO][  5].d[  7] =         0.054838951774;
  BAS[ATNO][  5].a[  8] =     24350.000000000000;     BAS[ATNO][  5].d[  8] =         0.000161032404;
  BAS[ATNO][  5].a[  9] =      3650.000000000000;     BAS[ATNO][  5].d[  9] =         0.001248683470;
  BAS[ATNO][  5].a[ 10] =       829.600000000000;     BAS[ATNO][  5].d[ 10] =         0.006464495732;
  BAS[ATNO][  5].a[ 11] =       234.000000000000;     BAS[ATNO][  5].d[ 11] =         0.026246917125;
  BAS[ATNO][  5].a[ 12] =        75.610000000000;     BAS[ATNO][  5].d[ 12] =         0.082384450678;
  BAS[ATNO][  5].a[ 13] =        26.730000000000;     BAS[ATNO][  5].d[ 13] =         0.194478015162;
  BAS[ATNO][  5].a[ 14] =         9.927000000000;     BAS[ATNO][  5].d[ 14] =         0.242517529362;
  BAS[ATNO][  5].a[ 15] =         1.102000000000;     BAS[ATNO][  5].d[ 15] =        -0.826773113042;
  BAS[ATNO][  5].a[ 16] =         2.836000000000;     BAS[ATNO][  5].d[ 16] =         1.268942892535;
  BAS[ATNO][  5].a[ 17] =         0.378200000000;     BAS[ATNO][  5].d[ 17] =         0.230015457746;
  BAS[ATNO][  5].a[ 18] =        12.083000000000;     BAS[ATNO][  5].d[ 18] =         0.724688128539;
  BAS[ATNO][  5].a[ 19] =        31.947000000000;     BAS[ATNO][  5].d[ 19] =         5.537342625883;

  // Basis function   7 L = p
  InitBFNGauss(BAS[ATNO][  6]);
  BAS[ATNO][  6].l  = 1;
  BAS[ATNO][  6].ng = 7;
  BAS[ATNO][  6].a[  0] =        54.700000000000;     BAS[ATNO][  6].d[  0] =         0.032784158324;
  BAS[ATNO][  6].a[  1] =        12.430000000000;     BAS[ATNO][  6].d[  1] =         0.205784580987;
  BAS[ATNO][  6].a[  2] =         3.679000000000;     BAS[ATNO][  6].d[  2] =         0.614893640824;
  BAS[ATNO][  6].a[  3] =         1.143000000000;     BAS[ATNO][  6].d[  3] =         0.329400651566;
  BAS[ATNO][  6].a[  4] =         0.330000000000;     BAS[ATNO][  6].d[  4] =        -0.016997783945;
  BAS[ATNO][  6].a[  5] =        22.827000000000;     BAS[ATNO][  6].d[  5] =         0.002562906493;
  BAS[ATNO][  6].a[  6] =        87.017000000000;     BAS[ATNO][  6].d[  6] =        -0.000752623141;

  // Basis function   8 L = p
  InitBFNGauss(BAS[ATNO][  7]);
  BAS[ATNO][  7].l  = 1;
  BAS[ATNO][  7].ng = 7;
  BAS[ATNO][  7].a[  0] =        54.700000000000;     BAS[ATNO][  7].d[  0] =        -0.023894370230;
  BAS[ATNO][  7].a[  1] =        12.430000000000;     BAS[ATNO][  7].d[  1] =        -0.149983809779;
  BAS[ATNO][  7].a[  2] =         3.679000000000;     BAS[ATNO][  7].d[  2] =        -0.448158411176;
  BAS[ATNO][  7].a[  3] =         1.143000000000;     BAS[ATNO][  7].d[  3] =         0.342588324594;
  BAS[ATNO][  7].a[  4] =         0.330000000000;     BAS[ATNO][  7].d[  4] =         0.793581958204;
  BAS[ATNO][  7].a[  5] =        22.827000000000;     BAS[ATNO][  7].d[  5] =         0.014909952163;
  BAS[ATNO][  7].a[  6] =        87.017000000000;     BAS[ATNO][  7].d[  6] =         0.001531147385;

  // Basis function   9 L = p
  InitBFNGauss(BAS[ATNO][  8]);
  BAS[ATNO][  8].l  = 1;
  BAS[ATNO][  8].ng = 7;
  BAS[ATNO][  8].a[  0] =        54.700000000000;     BAS[ATNO][  8].d[  0] =        -0.039028938521;
  BAS[ATNO][  8].a[  1] =        12.430000000000;     BAS[ATNO][  8].d[  1] =        -0.244982765170;
  BAS[ATNO][  8].a[  2] =         3.679000000000;     BAS[ATNO][  8].d[  2] =        -0.732019589088;
  BAS[ATNO][  8].a[  3] =         1.143000000000;     BAS[ATNO][  8].d[  3] =         1.603062410676;
  BAS[ATNO][  8].a[  4] =         0.330000000000;     BAS[ATNO][  8].d[  4] =        -1.102970338266;
  BAS[ATNO][  8].a[  5] =        22.827000000000;     BAS[ATNO][  8].d[  5] =         0.041974988454;
  BAS[ATNO][  8].a[  6] =        87.017000000000;     BAS[ATNO][  8].d[  6] =         0.003068095307;

  // Basis function  10 L = p
  InitBFNGauss(BAS[ATNO][  9]);
  BAS[ATNO][  9].l  = 1;
  BAS[ATNO][  9].ng = 7;
  BAS[ATNO][  9].a[  0] =        54.700000000000;     BAS[ATNO][  9].d[  0] =        -0.046783885982;
  BAS[ATNO][  9].a[  1] =        12.430000000000;     BAS[ATNO][  9].d[  1] =        -0.293660196446;
  BAS[ATNO][  9].a[  2] =         3.679000000000;     BAS[ATNO][  9].d[  2] =        -0.877469956648;
  BAS[ATNO][  9].a[  3] =         1.143000000000;     BAS[ATNO][  9].d[  3] =         0.612360145683;
  BAS[ATNO][  9].a[  4] =         0.330000000000;     BAS[ATNO][  9].d[  4] =        -0.214645122385;
  BAS[ATNO][  9].a[  5] =        22.827000000000;     BAS[ATNO][  9].d[  5] =         1.348115568859;
  BAS[ATNO][  9].a[  6] =        87.017000000000;     BAS[ATNO][  9].d[  6] =        -0.011440051371;

  // Basis function  11 L = p
  InitBFNGauss(BAS[ATNO][ 10]);
  BAS[ATNO][ 10].l  = 1;
  BAS[ATNO][ 10].ng = 7;
  BAS[ATNO][ 10].a[  0] =        54.700000000000;     BAS[ATNO][ 10].d[  0] =         0.016975515954;
  BAS[ATNO][ 10].a[  1] =        12.430000000000;     BAS[ATNO][ 10].d[  1] =         0.106554495105;
  BAS[ATNO][ 10].a[  2] =         3.679000000000;     BAS[ATNO][ 10].d[  2] =         0.318389653525;
  BAS[ATNO][ 10].a[  3] =         1.143000000000;     BAS[ATNO][ 10].d[  3] =        -0.198943268074;
  BAS[ATNO][ 10].a[  4] =         0.330000000000;     BAS[ATNO][ 10].d[  4] =         0.068142529636;
  BAS[ATNO][ 10].a[  5] =        22.827000000000;     BAS[ATNO][ 10].d[  5] =        -0.963858409926;
  BAS[ATNO][ 10].a[  6] =        87.017000000000;     BAS[ATNO][ 10].d[  6] =         1.278876609652;

  // Basis function  12 L = d
  InitBFNGauss(BAS[ATNO][ 11]);
  BAS[ATNO][ 11].l  = 2;
  BAS[ATNO][ 11].ng = 3;
  BAS[ATNO][ 11].a[  0] =         4.014000000000;     BAS[ATNO][ 11].d[  0] =         0.186925765089;
  BAS[ATNO][ 11].a[  1] =         1.096000000000;     BAS[ATNO][ 11].d[  1] =         0.892044007793;
  BAS[ATNO][ 11].a[  2] =        23.168000000000;     BAS[ATNO][ 11].d[  2] =         0.010474026053;

  // Basis function  13 L = d
  InitBFNGauss(BAS[ATNO][ 12]);
  BAS[ATNO][ 12].l  = 2;
  BAS[ATNO][ 12].ng = 3;
  BAS[ATNO][ 12].a[  0] =         4.014000000000;     BAS[ATNO][ 12].d[  0] =         1.130865614121;
  BAS[ATNO][ 12].a[  1] =         1.096000000000;     BAS[ATNO][ 12].d[  1] =        -0.733220144000;
  BAS[ATNO][ 12].a[  2] =        23.168000000000;     BAS[ATNO][ 12].d[  2] =         0.023250332197;

  // Basis function  14 L = d
  InitBFNGauss(BAS[ATNO][ 13]);
  BAS[ATNO][ 13].l  = 2;
  BAS[ATNO][ 13].ng = 3;
  BAS[ATNO][ 13].a[  0] =         4.014000000000;     BAS[ATNO][ 13].d[  0] =        -0.419011817249;
  BAS[ATNO][ 13].a[  1] =         1.096000000000;     BAS[ATNO][ 13].d[  1] =         0.155089872089;
  BAS[ATNO][ 13].a[  2] =        23.168000000000;     BAS[ATNO][ 13].d[  2] =         1.056827800476;

  // Basis function  15 L = f
  InitBFNGauss(BAS[ATNO][ 14]);
  BAS[ATNO][ 14].l  = 3;
  BAS[ATNO][ 14].ng = 1;
  BAS[ATNO][ 14].a[  0] =         2.544000000000;     BAS[ATNO][ 14].d[  0] =         1.000000000000;

-------
TIMINGS
-------

Total SCF time: 0 days 0 hours 0 min 1 sec 

Total time                  ....       1.501 sec
Sum of individual times     ....       1.331 sec  ( 88.7%)

Fock matrix formation       ....       0.853 sec  ( 56.8%)
  XC integration            ....       0.017 sec  (  2.0% of F)
    Basis function eval.    ....       0.003 sec  ( 15.2% of XC)
    Density eval.           ....       0.001 sec  (  5.3% of XC)
    XC-Functional eval.     ....       0.001 sec  (  8.1% of XC)
    XC-Potential eval.      ....       0.001 sec  (  5.6% of XC)
Diagonalization             ....       0.001 sec  (  0.1%)
Density matrix formation    ....       0.001 sec  (  0.0%)
Population analysis         ....       0.001 sec  (  0.0%)
Initial guess               ....       0.095 sec  (  6.3%)
Orbital Transformation      ....       0.000 sec  (  0.0%)
Orbital Orthonormalization  ....       0.000 sec  (  0.0%)
DIIS solution               ....       0.000 sec  (  0.0%)
SOSCF solution              ....       0.001 sec  (  0.0%)
Grid generation             ....       0.380 sec  ( 25.3%)

-------------------------   --------------------
FINAL SINGLE POINT ENERGY       -93.210594548615
-------------------------   --------------------


                            ***************************************
                            *     ORCA property calculations      *
                            ***************************************

                                    ---------------------
                                    Active property flags
                                    ---------------------
   (+) Dipole Moment


------------------------------------------------------------------------------
                       ORCA ELECTRIC PROPERTIES CALCULATION
------------------------------------------------------------------------------

Dipole Moment Calculation                       ... on
Quadrupole Moment Calculation                   ... off
Polarizability Calculation                      ... off
GBWName                                         ... Ne_cc-pcvtz_.gbw
Electron density file                           ... Ne_cc-pcvtz_.scfp
The origin for moment calculation is the CENTER OF MASS  = ( 0.000000,  0.000000  0.000000)

-------------
DIPOLE MOMENT
-------------
                                X             Y             Z
Electronic contribution:     -0.00000       0.00000      -0.00000
Nuclear contribution   :      0.00000       0.00000       0.00000
                        -----------------------------------------
Total Dipole Moment    :     -0.00000       0.00000      -0.00000
                        -----------------------------------------
Magnitude (a.u.)       :      0.00000
Magnitude (Debye)      :      0.00000



--------------------
Rotational spectrum 
--------------------
 
Rotational constants in cm-1:     0.000000     0.000000     0.000000 
Rotational constants in MHz :     0.000000     0.000000     0.000000 

 Dipole components along the rotational axes: 
x,y,z [a.u.] :    -0.000000     0.000000    -0.000000 
x,y,z [Debye]:    -0.000000     0.000000    -0.000000 

 

Timings for individual modules:

Sum of individual times         ...        2.217 sec (=   0.037 min)
GTO integral calculation        ...        0.489 sec (=   0.008 min)  22.0 %
SCF iterations                  ...        1.729 sec (=   0.029 min)  78.0 %
                             ****ORCA TERMINATED NORMALLY****
TOTAL RUN TIME: 0 days 0 hours 0 minutes 2 seconds 562 msec
