
                                 *****************
                                 * O   R   C   A *
                                 *****************

           --- An Ab Initio, DFT and Semiempirical electronic structure package ---

                  #######################################################
                  #                        -***-                        #
                  #          Department of theory and spectroscopy      #
                  #               Directorship: Frank Neese             #
                  #        Max Planck Institute fuer Kohlenforschung    #
                  #                Kaiser Wilhelm Platz 1               #
                  #                 D-45470 Muelheim/Ruhr               #
                  #                      Germany                        #
                  #                                                     #
                  #                  All rights reserved                #
                  #                        -***-                        #
                  #######################################################


                         Program Version 4.2.1 -  RELEASE  -


 With contributions from (in alphabetic order):
   Daniel Aravena         : Magnetic Suceptibility
   Michael Atanasov       : Ab Initio Ligand Field Theory (pilot matlab implementation)
   Alexander A. Auer      : GIAO ZORA, VPT2
   Ute Becker             : Parallelization
   Giovanni Bistoni       : ED, misc. LED, open-shell LED, HFLD
   Martin Brehm           : Molecular dynamics
   Dmytro Bykov           : SCF Hessian
   Vijay G. Chilkuri      : MRCI spin determinant printing, contributions to CSF-ICE
   Dipayan Datta          : RHF DLPNO-CCSD density
   Achintya Kumar Dutta   : EOM-CC, STEOM-CC
   Dmitry Ganyushin       : Spin-Orbit,Spin-Spin,Magnetic field MRCI
   Miquel Garcia          : C-PCM Hessian, Gaussian charge scheme
   Yang Guo               : DLPNO-NEVPT2, CIM, IAO-localization
   Andreas Hansen         : Spin unrestricted coupled pair/coupled cluster methods
   Benjamin Helmich-Paris : CASSCF linear response (MC-RPA)
   Lee Huntington         : MR-EOM, pCC
   Robert Izsak           : Overlap fitted RIJCOSX, COSX-SCS-MP3, EOM
   Christian Kollmar      : KDIIS, OOCD, Brueckner-CCSD(T), CCSD density
   Simone Kossmann        : Meta GGA functionals, TD-DFT gradient, OOMP2, MP2 Hessian
   Martin Krupicka        : AUTO-CI
   Lucas Lang             : DCDCAS
   Dagmar Lenk            : GEPOL surface, SMD
   Dimitrios Liakos       : Extrapolation schemes; Compound Job, initial MDCI parallelization
   Dimitrios Manganas     : Further ROCIS development; embedding schemes
   Dimitrios Pantazis     : SARC Basis sets
   Taras Petrenko         : DFT Hessian,TD-DFT gradient, ASA, ECA, R-Raman, ABS, FL, XAS/XES, NRVS
   Peter Pinski           : DLPNO-MP2, DLPNO-MP2 Gradient
   Christoph Reimann      : Effective Core Potentials
   Marius Retegan         : Local ZFS, SOC
   Christoph Riplinger    : Optimizer, TS searches, QM/MM, DLPNO-CCSD(T), (RO)-DLPNO pert. Triples
   Tobias Risthaus        : Range-separated hybrids, TD-DFT gradient, RPA, STAB
   Michael Roemelt        : Original ROCIS implementation
   Masaaki Saitow         : Open-shell DLPNO-CCSD energy and density
   Barbara Sandhoefer     : DKH picture change effects
   Avijit Sen             : IP-ROCIS
   Kantharuban Sivalingam : CASSCF convergence, NEVPT2, FIC-MRCI
   Bernardo de Souza      : ESD, SOC TD-DFT
   Georgi Stoychev        : AutoAux, RI-MP2 NMR
   Willem Van den Heuvel  : Paramagnetic NMR
   Boris Wezisla          : Elementary symmetry handling
   Frank Wennmohs         : Technical directorship


 We gratefully acknowledge several colleagues who have allowed us to
 interface, adapt or use parts of their codes:
   Stefan Grimme, W. Hujo, H. Kruse,             : VdW corrections, initial TS optimization,
                  C. Bannwarth                     DFT functionals, gCP, sTDA/sTD-DF
   Ed Valeev, F. Pavosevic, A. Kumar             : LibInt (2-el integral package), F12 methods
   Garnet Chan, S. Sharma, J. Yang, R. Olivares  : DMRG
   Ulf Ekstrom                                   : XCFun DFT Library
   Mihaly Kallay                                 : mrcc  (arbitrary order and MRCC methods)
   Andreas Klamt, Michael Diedenhofen            : otool_cosmo (COSMO solvation model)
   Jiri Pittner, Ondrej Demel                    : Mk-CCSD
   Frank Weinhold                                : gennbo (NPA and NBO analysis)
   Christopher J. Cramer and Donald G. Truhlar   : smd solvation model
   Lars Goerigk                                  : TD-DFT with DH, B97 family of functionals
   V. Asgeirsson, H. Jonsson                     : NEB implementation
   FAccTs GmbH                                   : IRC, NEB, NEB-TS, Multilevel, MM, QM/MM, CI optimization
   S Lehtola, MJT Oliveira, MAL Marques          : LibXC Library


 Your calculation uses the libint2 library for the computation of 2-el integrals
 For citations please refer to: http://libint.valeyev.net

 Your ORCA version has been built with support for libXC version: 4.2.3
 For citations please refer to: https://tddft.org/programs/libxc/

 This ORCA versions uses:
   CBLAS   interface :  Fast vector & matrix operations
   LAPACKE interface :  Fast linear algebra routines
   SCALAPACK package :  Parallel linear algebra routines


----- Orbital basis set information -----
Your calculation utilizes the basis: pc-4
   H, C-F              : F. Jensen, J. Chem. Phys. 115, 9113 (2001).
                         F. Jensen, J. Chem. Phys. 116, 7372 (2002).
                         F. Jensen, J. Chem. Phys. 117, 9234 (2002).
   Si-Cl               : F. Jensen, T. Helgaker, J. Chem. Phys. 121, 3463 (2004).
   He-B, Ne-Mg, Al, Ar : F. Jensen, J. Phys. Chem. A 111, 11198 (2007).
   K, Ca, Ga-Kr        : F. Jensen, J. Chem. Phys. 136, 094110 (2012).
   Sc-Zn               : F. Jensen, J. Chem. Phys. 138, 014107 (2013).

================================================================================
                                        WARNINGS
                       Please study these warnings very carefully!
================================================================================


INFO   : the flag for use of LIBINT has been found!

================================================================================
                                       INPUT FILE
================================================================================
NAME = Ne_pc-4_.inp
|  1> ! LDA pc-4 nori grid5 finalgrid6 verytightscf
|  2> %Pal NProcs 18 End
|  3> 
|  4> *xyz 8 1
|  5> Ne 0.0 0.0 0.0
|  6> **                         ****END OF INPUT****
================================================================================

                       ****************************
                       * Single Point Calculation *
                       ****************************

---------------------------------
CARTESIAN COORDINATES (ANGSTROEM)
---------------------------------
  Ne     0.000000    0.000000    0.000000

----------------------------
CARTESIAN COORDINATES (A.U.)
----------------------------
  NO LB      ZA    FRAG     MASS         X           Y           Z
   0 Ne   10.0000    0    20.179    0.000000    0.000000    0.000000

--------------------------------
INTERNAL COORDINATES (ANGSTROEM)
--------------------------------
 Ne     0   0   0     0.000000000000     0.00000000     0.00000000

---------------------------
INTERNAL COORDINATES (A.U.)
---------------------------
 Ne     0   0   0     0.000000000000     0.00000000     0.00000000

---------------------
BASIS SET INFORMATION
---------------------
There are 1 groups of distinct atoms

 Group   1 Type Ne  : 26s11p6d3f2g1h contracted to 8s7p6d3f2g1h pattern {119111111/5111111/111111/111/11/1}

Atom   0Ne   basis set group =>   1


           ************************************************************
           *        Program running with 18 parallel MPI-processes    *
           *              working on a common directory               *
           ************************************************************
------------------------------------------------------------------------------
                           ORCA GTO INTEGRAL CALCULATION
------------------------------------------------------------------------------

                         BASIS SET STATISTICS AND STARTUP INFO

 # of primitive gaussian shells          ...   49
 # of primitive gaussian functions       ...  139
 # of contracted shells                  ...   27
 # of contracted basis functions         ...  109
 Highest angular momentum                ...    5
 Maximum contraction depth               ...   11
 Integral package used                   ... LIBINT
 Integral threshhold            Thresh   ...  1.000e-12
 Primitive cut-off              TCut     ...  1.000e-14


------------------------------ INTEGRAL EVALUATION ----------------------------


 * One electron integrals 
 Pre-screening matrix                    ... done
 Shell pair data                         ... done (   0.000 sec)



           ************************************************************
           *        Program running with 18 parallel MPI-processes    *
           *              working on a common directory               *
           ************************************************************
-------------------------------------------------------------------------------
                                 ORCA SCF
-------------------------------------------------------------------------------

------------
SCF SETTINGS
------------
Hamiltonian:
 Density Functional     Method          .... DFT(GTOs)
 Exchange Functional    Exchange        .... Slater
   X-Alpha parameter    XAlpha          ....  0.666667
 Correlation Functional Correlation     .... VWN-5
 Gradients option       PostSCFGGA      .... off
   Density functional embedding theory  .... OFF


General Settings:
 Integral files         IntName         .... Ne_pc-4_
 Hartree-Fock type      HFTyp           .... RHF
 Total Charge           Charge          ....    8
 Multiplicity           Mult            ....    1
 Number of Electrons    NEL             ....    2
 Basis Dimension        Dim             ....  109
 Nuclear Repulsion      ENuc            ....      0.0000000000 Eh

Convergence Acceleration:
 DIIS                   CNVDIIS         .... on
   Start iteration      DIISMaxIt       ....    12
   Startup error        DIISStart       ....  0.200000
   # of expansion vecs  DIISMaxEq       ....     5
   Bias factor          DIISBfac        ....   1.050
   Max. coefficient     DIISMaxC        ....  10.000
 Newton-Raphson         CNVNR           .... off
 SOSCF                  CNVSOSCF        .... on
   Start iteration      SOSCFMaxIt      ....   150
   Startup grad/error   SOSCFStart      ....  0.003300
 Level Shifting         CNVShift        .... on
   Level shift para.    LevelShift      ....    0.2500
   Turn off err/grad.   ShiftErr        ....    0.0010
 Zerner damping         CNVZerner       .... off
 Static damping         CNVDamp         .... on
   Fraction old density DampFac         ....    0.7000
   Max. Damping (<1)    DampMax         ....    0.9800
   Min. Damping (>=0)   DampMin         ....    0.0000
   Turn off err/grad.   DampErr         ....    0.1000
 Fernandez-Rico         CNVRico         .... off

SCF Procedure:
 Maximum # iterations   MaxIter         ....   125
 SCF integral mode      SCFMode         .... Direct
   Integral package                     .... LIBINT
 Reset frequency        DirectResetFreq ....    20
 Integral Threshold     Thresh          ....  1.000e-12 Eh
 Primitive CutOff       TCut            ....  1.000e-14 Eh

Convergence Tolerance:
 Convergence Check Mode ConvCheckMode   .... Total+1el-Energy
 Convergence forced     ConvForced      .... 0
 Energy Change          TolE            ....  1.000e-09 Eh
 1-El. energy change                    ....  1.000e-06 Eh
 Orbital Gradient       TolG            ....  2.000e-06
 Orbital Rotation angle TolX            ....  2.000e-06
 DIIS Error             TolErr          ....  1.000e-08


Diagonalization of the overlap matrix:
Smallest eigenvalue                        ... 1.345e-03
Time for diagonalization                   ...    0.002 sec
Threshold for overlap eigenvalues          ... 1.000e-08
Number of eigenvalues below threshold      ... 0
Time for construction of square roots      ...    0.002 sec
Total time needed                          ...    0.004 sec

-------------------
DFT GRID GENERATION
-------------------

General Integration Accuracy     IntAcc      ...  5.010
Radial Grid Type                 RadialGrid  ... Gauss-Chebyshev
Angular Grid (max. acc.)         AngularGrid ... Lebedev-434
Angular grid pruning method      GridPruning ... 3 (G Style)
Weight generation scheme         WeightScheme... Becke
Basis function cutoff            BFCut       ...    1.0000e-12
Integration weight cutoff        WCut        ...    1.0000e-14
Grids for H and He will be reduced by one unit

# of grid points (after initial pruning)     ...  10818 (   0.0 sec)
# of grid points (after weights+screening)   ...  10818 (   0.0 sec)
Grid point division into batches done        ...    0.1 sec
Reduced shell lists constructed in    0.1 sec

Total number of grid points                  ...    10818
Total number of batches                      ...      170
Average number of points per batch           ...       63
Average number of grid points per atom       ...    10818
Average number of shells per batch           ...     1.27 ( 4.71%)
Average number of basis functions per batch  ...     3.09 ( 2.84%)
Average number of large shells per batch     ...     0.91 (71.43%)
Average number of large basis fcns per batch ...     2.73 (88.24%)
Maximum spatial batch extension              ...  16.29, 16.29, 16.29 au
Average spatial batch extension              ...   0.85,  0.86,  0.85 au

Time for grid setup =    0.125 sec

------------------------------
INITIAL GUESS: MODEL POTENTIAL
------------------------------
Loading Hartree-Fock densities                     ... done
Calculating cut-offs                               ... done
Setting up the integral package                    ... done
Initializing the effective Hamiltonian             ... done
Starting the Coulomb interaction                   ... done (   0.0 sec)
Reading the grid                                   ... done
Mapping shells                                     ... done
Starting the XC term evaluation                    ... done (   0.0 sec)
  promolecular density results
     # of electrons  =     10.000000232
     EX              =    -11.033501327
     EC              =     -0.746381123
     EX+EC           =    -11.779882450
Transforming the Hamiltonian                       ... done (   0.0 sec)
Diagonalizing the Hamiltonian                      ... done (   0.0 sec)
Back transforming the eigenvectors                 ... done (   0.0 sec)
Now organizing SCF variables                       ... done
                      ------------------
                      INITIAL GUESS DONE (   0.2 sec)
                      ------------------
--------------
SCF ITERATIONS
--------------
ITER       Energy         Delta-E        Max-DP      RMS-DP      [F,P]     Damp
               ***  Starting incremental Fock matrix formation  ***
  0    -93.2004999411   0.000000000000 0.00472851  0.00006941  0.8865905 0.7000
  1    -93.2042827082  -0.003782767141 0.00325857  0.00004865  0.6071727 0.7000
  2    -93.2068745549  -0.002591846622 0.00222751  0.00003382  0.4146343 0.7000
                      *** Initiating the SOSCF procedure ***
                      *** Re-Reading the Fockian *** 
                      *** Removing any level shift *** 
ITER      Energy       Delta-E        Grad      Rot      Max-DP    RMS-DP
  3    -93.20866262  -0.0017880634  0.002775  0.002775  0.005075  0.000078
               *** Restarting incremental Fock matrix formation ***
  4    -93.21275545  -0.0040928321  0.006319  0.000110  0.000279  0.000004
  5    -93.21275836  -0.0000029086  0.000336  0.000006  0.000014  0.000000
                  ***Gradient check signals convergence***
              ***Rediagonalizing the Fockian in SOSCF/NRSCF***

               *****************************************************
               *                     SUCCESS                       *
               *           SCF CONVERGED AFTER   6 CYCLES          *
               *****************************************************

Setting up the final grid:

General Integration Accuracy     IntAcc      ...  5.340
Radial Grid Type                 RadialGrid  ... Gauss-Chebyshev
Angular Grid (max. acc.)         AngularGrid ... Lebedev-590
Angular grid pruning method      GridPruning ... 3 (G Style)
Weight generation scheme         WeightScheme... Becke
Basis function cutoff            BFCut       ...    1.0000e-12
Integration weight cutoff        WCut        ...    1.0000e-14
Grids for H and He will be reduced by one unit

# of grid points (after initial pruning)     ...  16840 (   0.0 sec)
# of grid points (after weights+screening)   ...  16840 (   0.0 sec)
Grid point division into batches done        ...    0.2 sec
Reduced shell lists constructed in    0.2 sec

Total number of grid points                  ...    16840
Total number of batches                      ...      264
Average number of points per batch           ...       63
Average number of grid points per atom       ...    16840
Average number of shells per batch           ...     0.56 ( 2.08%)
Average number of basis functions per batch  ...     1.69 ( 1.55%)
Average number of large shells per batch     ...     0.56 (100.00%)
Average number of large basis fcns per batch ...     1.69 (100.00%)
Maximum spatial batch extension              ...  16.63, 16.63, 16.63 au
Average spatial batch extension              ...   0.74,  0.74,  0.69 au

Final grid set up in    0.2 sec
Final integration                            ... done (   0.0 sec)
Change in XC energy                          ...     0.000000205
Integrated number of electrons               ...     2.000000006
Previous integrated no of electrons          ...     1.999999967

----------------
TOTAL SCF ENERGY
----------------

Total Energy       :          -93.21275816 Eh           -2536.44810 eV

Components:
Nuclear Repulsion  :            0.00000000 Eh               0.00000 eV
Electronic Energy  :          -93.21275816 Eh           -2536.44810 eV
One Electron Energy:          -99.85281477 Eh           -2717.13323 eV
Two Electron Energy:            6.64005660 Eh             180.68513 eV

Virial components:
Potential Energy   :         -186.27801075 Eh           -5068.88237 eV
Kinetic Energy     :           93.06525258 Eh            2532.43427 eV
Virial Ratio       :            2.00158497


DFT components:
N(Alpha)           :        1.000000003203 electrons
N(Beta)            :        1.000000003203 electrons
N(Total)           :        2.000000006405 electrons
E(X)               :       -5.146105790847 Eh       
E(C)               :       -0.202680267708 Eh       
E(XC)              :       -5.348786058555 Eh       
DFET-embed. en.    :        0.000000000000 Eh       

---------------
SCF CONVERGENCE
---------------

  Last Energy change         ...   -8.7873e-09  Tolerance :   1.0000e-09
  Last MAX-Density change    ...    4.1738e-09  Tolerance :   1.0000e-08
  Last RMS-Density change    ...    7.7996e-11  Tolerance :   1.0000e-09
  Last Orbital Gradient      ...    3.4172e-08  Tolerance :   2.0000e-06
  Last Orbital Rotation      ...    3.9593e-10  Tolerance :   2.0000e-06

             **** THE GBW FILE WAS UPDATED (Ne_pc-4_.gbw) ****
             **** DENSITY FILE WAS UPDATED (Ne_pc-4_.scfp) ****
             **** ENERGY FILE WAS UPDATED (Ne_pc-4_.en.tmp) ****
             **** THE GBW FILE WAS UPDATED (Ne_pc-4_.gbw) ****
             **** DENSITY FILE WAS UPDATED (Ne_pc-4_.scfp) ****
----------------
ORBITAL ENERGIES
----------------

  NO   OCC          E(Eh)            E(eV) 
   0   2.0000     -41.478848     -1128.6968 
   1   0.0000      -9.049541      -246.2505 
   2   0.0000      -8.614375      -234.4091 
   3   0.0000      -8.614375      -234.4091 
   4   0.0000      -8.614375      -234.4091 
   5   0.0000      -3.834847      -104.3515 
   6   0.0000      -3.703444      -100.7758 
   7   0.0000      -3.703444      -100.7758 
   8   0.0000      -3.703443      -100.7758 
   9   0.0000      -3.600846       -97.9840 
  10   0.0000      -3.600846       -97.9840 
  11   0.0000      -3.600846       -97.9840 
  12   0.0000      -3.600846       -97.9840 
  13   0.0000      -3.600846       -97.9840 
  14   0.0000      -2.080411       -56.6109 
  15   0.0000      -2.056144       -55.9505 
  16   0.0000      -2.056144       -55.9505 
  17   0.0000      -2.056144       -55.9505 
  18   0.0000      -1.983438       -53.9721 
  19   0.0000      -1.983438       -53.9721 
  20   0.0000      -1.983438       -53.9721 
  21   0.0000      -1.983438       -53.9721 
  22   0.0000      -1.983438       -53.9721 
  23   0.0000      -1.760372       -47.9022 
  24   0.0000      -1.760372       -47.9022 
  25   0.0000      -1.760372       -47.9022 
  26   0.0000      -1.760372       -47.9022 
  27   0.0000      -1.760372       -47.9022 
  28   0.0000      -1.760372       -47.9022 
  29   0.0000      -1.760372       -47.9022 
  30   0.0000      -1.264568       -34.4106 
  31   0.0000      -1.264568       -34.4106 
  32   0.0000      -1.264568       -34.4106 
  33   0.0000       0.270495         7.3605 
  34   0.0000       0.270495         7.3605 
  35   0.0000       0.270495         7.3605 
  36   0.0000       0.270495         7.3605 
  37   0.0000       0.270495         7.3605 
  38   0.0000       0.528286        14.3754 
  39   0.0000       1.079818        29.3833 
  40   0.0000       1.079818        29.3833 
  41   0.0000       1.079818        29.3833 
  42   0.0000       1.343740        36.5650 
  43   0.0000       1.343740        36.5650 
  44   0.0000       1.343740        36.5650 
  45   0.0000       1.343740        36.5650 
  46   0.0000       1.343740        36.5650 
  47   0.0000       1.343740        36.5650 
  48   0.0000       1.343740        36.5650 
  49   0.0000       2.751242        74.8651 
  50   0.0000       2.751242        74.8651 
  51   0.0000       2.751242        74.8651 
  52   0.0000       2.751242        74.8651 
  53   0.0000       2.751242        74.8651 
  54   0.0000       2.751242        74.8651 
  55   0.0000       2.751242        74.8651 
  56   0.0000       2.751242        74.8651 
  57   0.0000       2.751242        74.8651 
  58   0.0000       7.466204       203.1657 
  59   0.0000       7.466204       203.1657 
  60   0.0000       7.466204       203.1657 
  61   0.0000       7.466204       203.1657 
  62   0.0000       7.466204       203.1657 
  63   0.0000       7.531984       204.9557 
  64   0.0000       7.531984       204.9557 
  65   0.0000       7.531984       204.9557 
  66   0.0000       7.531984       204.9557 
  67   0.0000       7.531984       204.9557 
  68   0.0000       7.531984       204.9557 
  69   0.0000       7.531984       204.9557 
  70   0.0000       7.531984       204.9557 
  71   0.0000       7.531984       204.9557 
  72   0.0000       7.531984       204.9557 
  73   0.0000       7.531984       204.9557 
  74   0.0000       9.856029       268.1962 
  75   0.0000       9.856029       268.1962 
  76   0.0000       9.856029       268.1962 
  77   0.0000       9.856029       268.1962 
  78   0.0000       9.856029       268.1962 
  79   0.0000       9.856029       268.1962 
  80   0.0000       9.856029       268.1962 
  81   0.0000       9.965136       271.1651 
  82   0.0000       9.965136       271.1651 
  83   0.0000       9.965136       271.1651 
  84   0.0000      10.757793       292.7344 
  85   0.0000      16.027495       436.1303 
  86   0.0000      16.027495       436.1303 
  87   0.0000      16.027495       436.1303 
  88   0.0000      16.027495       436.1303 
  89   0.0000      16.027495       436.1303 
  90   0.0000      16.027495       436.1303 
  91   0.0000      16.027495       436.1303 
  92   0.0000      16.027495       436.1303 
  93   0.0000      16.027495       436.1303 
  94   0.0000      28.580108       777.7043 
  95   0.0000      28.580108       777.7043 
  96   0.0000      28.580108       777.7043 
  97   0.0000      28.580108       777.7043 
  98   0.0000      28.580108       777.7043 
  99   0.0000      42.831254      1165.4977 
 100   0.0000      42.831254      1165.4977 
 101   0.0000      42.831254      1165.4977 
 102   0.0000      44.549653      1212.2577 
 103   0.0000     103.742157      2822.9676 
 104   0.0000     103.742157      2822.9676 
 105   0.0000     103.742157      2822.9676 
 106   0.0000     103.742157      2822.9676 
 107   0.0000     103.742157      2822.9676 
 108   0.0000     248.952456      6774.3407 

                    ********************************
                    * MULLIKEN POPULATION ANALYSIS *
                    ********************************

-----------------------
MULLIKEN ATOMIC CHARGES
-----------------------
   0 Ne:    8.000000
Sum of atomic charges:    8.0000000

--------------------------------
MULLIKEN REDUCED ORBITAL CHARGES
--------------------------------
  0 Nes       :     2.000000  s :     2.000000
      pz      :     0.000000  p :     0.000000
      px      :     0.000000
      py      :     0.000000
      dz2     :     0.000000  d :     0.000000
      dxz     :     0.000000
      dyz     :     0.000000
      dx2y2   :     0.000000
      dxy     :     0.000000
      f0      :     0.000000  f :     0.000000
      f+1     :     0.000000
      f-1     :     0.000000
      f+2     :     0.000000
      f-2     :     0.000000
      f+3     :     0.000000
      f-3     :     0.000000
      g0      :     0.000000  g :     0.000000
      g+1     :     0.000000
      g-1     :     0.000000
      g+2     :     0.000000
      g-2     :     0.000000
      g+3     :     0.000000
      g-3     :     0.000000
      g+4     :     0.000000
      g-4     :     0.000000
      h0      :     0.000000  h :     0.000000
      h+1     :     0.000000
      h-1     :     0.000000
      h+2     :     0.000000
      h-2     :     0.000000
      h+3     :     0.000000
      h-3     :     0.000000
      h+4     :     0.000000
      h-4     :     0.000000
      h+5     :     0.000000
      h-5     :     0.000000


                     *******************************
                     * LOEWDIN POPULATION ANALYSIS *
                     *******************************

----------------------
LOEWDIN ATOMIC CHARGES
----------------------
   0 Ne:    8.000000

-------------------------------
LOEWDIN REDUCED ORBITAL CHARGES
-------------------------------
  0 Nes       :     2.000000  s :     2.000000
      pz      :     0.000000  p :     0.000000
      px      :     0.000000
      py      :     0.000000
      dz2     :     0.000000  d :     0.000000
      dxz     :     0.000000
      dyz     :     0.000000
      dx2y2   :     0.000000
      dxy     :     0.000000
      f0      :     0.000000  f :     0.000000
      f+1     :     0.000000
      f-1     :     0.000000
      f+2     :     0.000000
      f-2     :     0.000000
      f+3     :     0.000000
      f-3     :     0.000000
      g0      :     0.000000  g :     0.000000
      g+1     :     0.000000
      g-1     :     0.000000
      g+2     :     0.000000
      g-2     :     0.000000
      g+3     :     0.000000
      g-3     :     0.000000
      g+4     :     0.000000
      g-4     :     0.000000
      h0      :     0.000000  h :     0.000000
      h+1     :     0.000000
      h-1     :     0.000000
      h+2     :     0.000000
      h-2     :     0.000000
      h+3     :     0.000000
      h-3     :     0.000000
      h+4     :     0.000000
      h-4     :     0.000000
      h+5     :     0.000000
      h-5     :     0.000000


                      *****************************
                      * MAYER POPULATION ANALYSIS *
                      *****************************

  NA   - Mulliken gross atomic population
  ZA   - Total nuclear charge
  QA   - Mulliken gross atomic charge
  VA   - Mayer's total valence
  BVA  - Mayer's bonded valence
  FA   - Mayer's free valence

  ATOM       NA         ZA         QA         VA         BVA        FA
  0 Ne     2.0000    10.0000     8.0000    -0.0000     0.0000    -0.0000

  Mayer bond orders larger than 0.100000


--------------------------
ATOM BASIS FOR ELEMENT Ne
--------------------------
 NewGTO Ne
 S 26
    1    2522600.000000000000         0.000001529187
    2     377060.000000000000         0.000011934973
    3      85713.000000000000         0.000062723146
    4      24261.000000000000         0.000265846712
    5       7911.700000000000         0.000964198056
    6       2855.500000000000         0.003144635842
    7       1113.600000000000         0.009201296640
    8        461.890000000000         0.024615657967
    9        201.350000000000         0.056712369292
   10         91.198000000000         0.108862293510
   11         42.680000000000         0.115988246201
   12      24261.000000000000        -0.000000359459
   13       7911.700000000000         0.000003753089
   14       2855.500000000000         0.000013415133
   15       1113.600000000000         0.000195561811
   16        461.890000000000         0.001031020267
   17        201.350000000000         0.006855365783
   18         91.198000000000         0.030224958009
   19         42.680000000000         0.132635309706
   20         20.742000000000         0.325334895676
   21         10.249000000000         0.260511035823
   22          5.101300000000         0.071392877638
   23          2.303100000000         0.003559289833
   24          1.053100000000        -0.000833423939
   25          0.472220000000         0.000363881786
   26          0.204660000000        -0.000096280498
 S 26
    1    2522600.000000000000         0.000000495382
    2     377060.000000000000         0.000003866352
    3      85713.000000000000         0.000020319255
    4      24261.000000000000         0.000086121431
    5       7911.700000000000         0.000312353371
    6       2855.500000000000         0.001018709384
    7       1113.600000000000         0.002980773514
    8        461.890000000000         0.007974278427
    9        201.350000000000         0.018372055039
   10         91.198000000000         0.035266099318
   11         42.680000000000         0.037574562122
   12      24261.000000000000        -0.000000183301
   13       7911.700000000000         0.000001913838
   14       2855.500000000000         0.000006840871
   15       1113.600000000000         0.000099724169
   16        461.890000000000         0.000525755201
   17        201.350000000000         0.003495803462
   18         91.198000000000         0.015412819126
   19         42.680000000000         0.067635628726
   20         20.742000000000         0.165900243792
   21         10.249000000000         0.207319209503
   22          5.101300000000        -0.047200102192
   23          2.303100000000        -0.637069323601
   24          1.053100000000        -0.472266219650
   25          0.472220000000        -0.006941992171
   26          0.204660000000        -0.003528843420
 S 26
    1    2522600.000000000000        -0.000000257257
    2     377060.000000000000        -0.000002007835
    3      85713.000000000000        -0.000010551991
    4      24261.000000000000        -0.000044723716
    5       7911.700000000000        -0.000162208212
    6       2855.500000000000        -0.000529025914
    7       1113.600000000000        -0.001547945330
    8        461.890000000000        -0.004141122091
    9        201.350000000000        -0.009540790892
   10         91.198000000000        -0.018314036097
   11         42.680000000000        -0.019512843789
   12      24261.000000000000         0.000000102854
   13       7911.700000000000        -0.000001073890
   14       2855.500000000000        -0.000003838538
   15       1113.600000000000        -0.000055957055
   16        461.890000000000        -0.000295010857
   17        201.350000000000        -0.001961559246
   18         91.198000000000        -0.008648414644
   19         42.680000000000        -0.037951588035
   20         20.742000000000        -0.093089660373
   21         10.249000000000        -0.127420095167
   22          5.101300000000         0.033415211716
   23          2.303100000000         0.682325245451
   24          1.053100000000         0.627342185961
   25          0.472220000000        -1.329465948673
   26          0.204660000000        -0.269234981722
 S 26
    1    2522600.000000000000         0.000000186689
    2     377060.000000000000         0.000001457064
    3      85713.000000000000         0.000007657464
    4      24261.000000000000         0.000032455510
    5       7911.700000000000         0.000117712721
    6       2855.500000000000         0.000383908305
    7       1113.600000000000         0.001123326953
    8        461.890000000000         0.003005166895
    9        201.350000000000         0.006923647336
   10         91.198000000000         0.013290295183
   11         42.680000000000         0.014160256781
   12      24261.000000000000        -0.000000070462
   13       7911.700000000000         0.000000735694
   14       2855.500000000000         0.000002629683
   15       1113.600000000000         0.000038334736
   16        461.890000000000         0.000202104334
   17        201.350000000000         0.001343813679
   18         91.198000000000         0.005924805956
   19         42.680000000000         0.025999654744
   20         20.742000000000         0.063773326897
   21         10.249000000000         0.127194802207
   22          5.101300000000        -0.119881678622
   23          2.303100000000        -0.389315679281
   24          1.053100000000        -1.179204797419
   25          0.472220000000         3.740941979321
   26          0.204660000000        -2.687867385021
 S 26
    1    2522600.000000000000        -0.000000280683
    2     377060.000000000000        -0.000002190667
    3      85713.000000000000        -0.000011512847
    4      24261.000000000000        -0.000048796221
    5       7911.700000000000        -0.000176978761
    6       2855.500000000000        -0.000577198587
    7       1113.600000000000        -0.001688899983
    8        461.890000000000        -0.004518209330
    9        201.350000000000        -0.010409567617
   10         91.198000000000        -0.019981697457
   11         42.680000000000        -0.021289667611
   12      24261.000000000000         0.000000210869
   13       7911.700000000000        -0.000002201674
   14       2855.500000000000        -0.000007869720
   15       1113.600000000000        -0.000114722431
   16        461.890000000000        -0.000604827448
   17        201.350000000000        -0.004021563423
   18         91.198000000000        -0.017730867970
   19         42.680000000000        -0.077807855477
   20         20.742000000000        -0.190851219033
   21         10.249000000000         0.281776238499
   22          5.101300000000        -1.466434903872
   23          2.303100000000         5.978136187542
   24          1.053100000000        -9.115584007387
   25          0.472220000000         6.737500009094
   26          0.204660000000        -2.228308203585
 S 26
    1    2522600.000000000000        -0.000000955605
    2     377060.000000000000        -0.000007458287
    3      85713.000000000000        -0.000039196336
    4      24261.000000000000        -0.000166130330
    5       7911.700000000000        -0.000602537229
    6       2855.500000000000        -0.001965115109
    7       1113.600000000000        -0.005749984404
    8        461.890000000000        -0.015382576492
    9        201.350000000000        -0.035440139762
   10         91.198000000000        -0.068029160922
   11         42.680000000000        -0.072482241660
   12      24261.000000000000         0.000000046415
   13       7911.700000000000        -0.000000484615
   14       2855.500000000000        -0.000001732220
   15       1113.600000000000        -0.000025251791
   16        461.890000000000        -0.000133129820
   17        201.350000000000        -0.000885194640
   18         91.198000000000        -0.003902778008
   19         42.680000000000        -0.017126447940
   20         20.742000000000        -0.042008656416
   21         10.249000000000        -2.976166897415
   22          5.101300000000         8.781097115662
   23          2.303100000000       -10.805449759971
   24          1.053100000000         8.051631815320
   25          0.472220000000        -3.854018936432
   26          0.204660000000         1.010598821405
 S 26
    1    2522600.000000000000         0.000000051109
    2     377060.000000000000         0.000000398893
    3      85713.000000000000         0.000002096343
    4      24261.000000000000         0.000008885170
    5       7911.700000000000         0.000032225577
    6       2855.500000000000         0.000105100508
    7       1113.600000000000         0.000307527167
    8        461.890000000000         0.000822708347
    9        201.350000000000         0.001895449622
   10         91.198000000000         0.003638412495
   11         42.680000000000         0.003876577194
   12      24261.000000000000         0.000002096350
   13       7911.700000000000        -0.000021887871
   14       2855.500000000000        -0.000078236554
   15       1113.600000000000        -0.001140509134
   16        461.890000000000        -0.006012871448
   17        201.350000000000        -0.039980235613
   18         91.198000000000        -0.176270819212
   19         42.680000000000        -0.773524141570
   20         20.742000000000        -1.897340885008
   21         10.249000000000         8.600923664839
   22          5.101300000000       -10.618325719572
   23          2.303100000000         7.718214111021
   24          1.053100000000        -4.499613775857
   25          0.472220000000         1.962585281997
   26          0.204660000000        -0.502448870755
 S 26
    1    2522600.000000000000         0.000015375852
    2     377060.000000000000         0.000120005185
    3      85713.000000000000         0.000630676131
    4      24261.000000000000         0.002673067053
    5       7911.700000000000         0.009694932974
    6       2855.500000000000         0.031619057451
    7       1113.600000000000         0.092518288829
    8        461.890000000000         0.247508437410
    9        201.350000000000         0.570238257450
   10         91.198000000000         1.094601501014
   11         42.680000000000         1.166252375349
   12      24261.000000000000         0.000004430380
   13       7911.700000000000        -0.000046257352
   14       2855.500000000000        -0.000165343434
   15       1113.600000000000        -0.002410327246
   16        461.890000000000        -0.012707471991
   17        201.350000000000        -0.084493362053
   18         91.198000000000        -0.372526922828
   19         42.680000000000        -1.634749129101
   20         20.742000000000        -4.009799038824
   21         10.249000000000         7.491458438180
   22          5.101300000000        -6.767498154680
   23          2.303100000000         4.342704697121
   24          1.053100000000        -2.478176740776
   25          0.472220000000         1.089611901368
   26          0.204660000000        -0.282030599867
 P 11
    1       1169.900000000000         0.000183702881
    2        277.110000000000         0.001609450784
    3         89.264000000000         0.009033329426
    4         33.100000000000         0.038108346718
    5         14.031000000000         0.107773987632
    6          6.298500000000         0.286280333677
    7          2.923400000000         0.419922027383
    8          1.353700000000         0.286733025034
    9          0.613620000000         0.018640681113
   10          0.263620000000         0.003200688682
   11          0.107550000000        -0.001070458998
 P 11
    1       1169.900000000000         0.000109255764
    2        277.110000000000         0.000957207501
    3         89.264000000000         0.005372497732
    4         33.100000000000         0.022664623049
    5         14.031000000000         0.064097685009
    6          6.298500000000         0.191312095814
    7          2.923400000000         0.297378904789
    8          1.353700000000         0.026849074591
    9          0.613620000000        -0.829555288517
   10          0.263620000000        -0.287227493008
   11          0.107550000000         0.016881372239
 P 11
    1       1169.900000000000         0.000072933191
    2        277.110000000000         0.000638979533
    3         89.264000000000         0.003586386533
    4         33.100000000000         0.015129666486
    5         14.031000000000         0.042788119378
    6          6.298500000000         0.140224179159
    7          2.923400000000         0.195071458722
    8          1.353700000000        -0.001989246750
    9          0.613620000000        -1.215953831422
   10          0.263620000000         0.923359619263
   11          0.107550000000         0.563094270653
 P 11
    1       1169.900000000000         0.000064678324
    2        277.110000000000         0.000566657307
    3         89.264000000000         0.003180465148
    4         33.100000000000         0.013417231106
    5         14.031000000000         0.037945191116
    6          6.298500000000         0.139599808720
    7          2.923400000000         0.147131122581
    8          1.353700000000         0.057056464073
    9          0.613620000000        -1.728102314475
   10          0.263620000000         2.923122075909
   11          0.107550000000        -1.881255461524
 P 11
    1       1169.900000000000         0.000206163951
    2        277.110000000000         0.001806235872
    3         89.264000000000         0.010137820813
    4         33.100000000000         0.042767796048
    5         14.031000000000         0.120951348438
    6          6.298500000000         0.048350653661
    7          2.923400000000         1.693709002963
    8          1.353700000000        -4.432837774866
    9          0.613620000000         4.645018876818
   10          0.263620000000        -2.726278774748
   11          0.107550000000         0.876572284130
 P 11
    1       1169.900000000000         0.000186017919
    2        277.110000000000         0.001629733213
    3         89.264000000000         0.009147168175
    4         33.100000000000         0.038588591191
    5         14.031000000000         0.109132164156
    6          6.298500000000         2.311760024655
    7          2.923400000000        -4.961897190161
    8          1.353700000000         4.733907729004
    9          0.613620000000        -2.872780925317
   10          0.263620000000         1.260003392587
   11          0.107550000000        -0.356466128588
 P 11
    1       1169.900000000000         0.002409908360
    2        277.110000000000         0.021113598663
    3         89.264000000000         0.118503836210
    4         33.100000000000         0.499924785733
    5         14.031000000000         1.413834299160
    6          6.298500000000        -3.641511222530
    7          2.923400000000         3.760001619968
    8          1.353700000000        -2.590465781918
    9          0.613620000000         1.389395113764
   10          0.263620000000        -0.590711786444
   11          0.107550000000         0.166806835701
 D 6
    1         32.000000000000         0.002635915570
    2         10.100000000000         0.022265249451
    3          4.000000000000         0.099194757852
    4          1.850000000000         0.293576793544
    5          0.800000000000         0.594570251989
    6          0.300000000000         0.168964798137
 D 6
    1         32.000000000000         0.002449685449
    2         10.100000000000         0.018394726053
    3          4.000000000000         0.095401359028
    4          1.850000000000         0.266912838599
    5          0.800000000000         0.494662856356
    6          0.300000000000        -1.167341668448
 D 6
    1         32.000000000000        -0.002305458146
    2         10.100000000000         0.096046391597
    3          4.000000000000        -0.048453941784
    4          1.850000000000         1.541576917174
    5          0.800000000000        -2.018143253064
    6          0.300000000000         0.932233744220
 D 6
    1         32.000000000000         0.041772783796
    2         10.100000000000        -0.100401363863
    3          4.000000000000         2.031030589764
    4          1.850000000000        -2.588096009586
    5          0.800000000000         1.437381549107
    6          0.300000000000        -0.428688969354
 D 6
    1         32.000000000000        -0.071069412503
    2         10.100000000000         1.751816514185
    3          4.000000000000        -2.270779385183
    4          1.850000000000         1.641861136732
    5          0.800000000000        -0.718568122389
    6          0.300000000000         0.200054905941
 D 6
    1         32.000000000000         1.351892531666
    2         10.100000000000        -1.324788567506
    3          4.000000000000         1.084184877362
    4          1.850000000000        -0.702081795560
    5          0.800000000000         0.303118292199
    6          0.300000000000        -0.085459683240
 F 3
    1          3.600000000000         0.061242839631
    2          1.550000000000        -0.010114306489
    3          0.700000000000         0.990041370903
 F 3
    1          3.600000000000        -0.063857846942
    2          1.550000000000         1.475844090189
    3          0.700000000000        -1.061621173817
 F 3
    1          3.600000000000         1.506267301695
    2          1.550000000000        -1.441895469271
    3          0.700000000000         0.592967764994
 G 2
    1          4.200000000000         0.143975495558
    2          1.800000000000        -1.082724359821
 G 2
    1          4.200000000000         1.265226721027
    2          1.800000000000        -0.670250370811
 H 1
    1          2.250000000000         1.000000000000
 end
  // -----------------------------------------------
  // The basis set
  // -----------------------------------------------
  BAS[ATNO] = new BFNGauss[NSH];
  // Basis function   1 L = s
  InitBFNGauss(BAS[ATNO][  0]);
  BAS[ATNO][  0].l  = 0;
  BAS[ATNO][  0].ng = 26;
  BAS[ATNO][  0].a[  0] =   2522600.000000000000;     BAS[ATNO][  0].d[  0] =         0.000001529187;
  BAS[ATNO][  0].a[  1] =    377060.000000000000;     BAS[ATNO][  0].d[  1] =         0.000011934973;
  BAS[ATNO][  0].a[  2] =     85713.000000000000;     BAS[ATNO][  0].d[  2] =         0.000062723146;
  BAS[ATNO][  0].a[  3] =     24261.000000000000;     BAS[ATNO][  0].d[  3] =         0.000265846712;
  BAS[ATNO][  0].a[  4] =      7911.700000000000;     BAS[ATNO][  0].d[  4] =         0.000964198056;
  BAS[ATNO][  0].a[  5] =      2855.500000000000;     BAS[ATNO][  0].d[  5] =         0.003144635842;
  BAS[ATNO][  0].a[  6] =      1113.600000000000;     BAS[ATNO][  0].d[  6] =         0.009201296640;
  BAS[ATNO][  0].a[  7] =       461.890000000000;     BAS[ATNO][  0].d[  7] =         0.024615657967;
  BAS[ATNO][  0].a[  8] =       201.350000000000;     BAS[ATNO][  0].d[  8] =         0.056712369292;
  BAS[ATNO][  0].a[  9] =        91.198000000000;     BAS[ATNO][  0].d[  9] =         0.108862293510;
  BAS[ATNO][  0].a[ 10] =        42.680000000000;     BAS[ATNO][  0].d[ 10] =         0.115988246201;
  BAS[ATNO][  0].a[ 11] =     24261.000000000000;     BAS[ATNO][  0].d[ 11] =        -0.000000359459;
  BAS[ATNO][  0].a[ 12] =      7911.700000000000;     BAS[ATNO][  0].d[ 12] =         0.000003753089;
  BAS[ATNO][  0].a[ 13] =      2855.500000000000;     BAS[ATNO][  0].d[ 13] =         0.000013415133;
  BAS[ATNO][  0].a[ 14] =      1113.600000000000;     BAS[ATNO][  0].d[ 14] =         0.000195561811;
  BAS[ATNO][  0].a[ 15] =       461.890000000000;     BAS[ATNO][  0].d[ 15] =         0.001031020267;
  BAS[ATNO][  0].a[ 16] =       201.350000000000;     BAS[ATNO][  0].d[ 16] =         0.006855365783;
  BAS[ATNO][  0].a[ 17] =        91.198000000000;     BAS[ATNO][  0].d[ 17] =         0.030224958009;
  BAS[ATNO][  0].a[ 18] =        42.680000000000;     BAS[ATNO][  0].d[ 18] =         0.132635309706;
  BAS[ATNO][  0].a[ 19] =        20.742000000000;     BAS[ATNO][  0].d[ 19] =         0.325334895676;
  BAS[ATNO][  0].a[ 20] =        10.249000000000;     BAS[ATNO][  0].d[ 20] =         0.260511035823;
  BAS[ATNO][  0].a[ 21] =         5.101300000000;     BAS[ATNO][  0].d[ 21] =         0.071392877638;
  BAS[ATNO][  0].a[ 22] =         2.303100000000;     BAS[ATNO][  0].d[ 22] =         0.003559289833;
  BAS[ATNO][  0].a[ 23] =         1.053100000000;     BAS[ATNO][  0].d[ 23] =        -0.000833423939;
  BAS[ATNO][  0].a[ 24] =         0.472220000000;     BAS[ATNO][  0].d[ 24] =         0.000363881786;
  BAS[ATNO][  0].a[ 25] =         0.204660000000;     BAS[ATNO][  0].d[ 25] =        -0.000096280498;

  // Basis function   2 L = s
  InitBFNGauss(BAS[ATNO][  1]);
  BAS[ATNO][  1].l  = 0;
  BAS[ATNO][  1].ng = 26;
  BAS[ATNO][  1].a[  0] =   2522600.000000000000;     BAS[ATNO][  1].d[  0] =        -0.000000495382;
  BAS[ATNO][  1].a[  1] =    377060.000000000000;     BAS[ATNO][  1].d[  1] =        -0.000003866352;
  BAS[ATNO][  1].a[  2] =     85713.000000000000;     BAS[ATNO][  1].d[  2] =        -0.000020319255;
  BAS[ATNO][  1].a[  3] =     24261.000000000000;     BAS[ATNO][  1].d[  3] =        -0.000086121431;
  BAS[ATNO][  1].a[  4] =      7911.700000000000;     BAS[ATNO][  1].d[  4] =        -0.000312353371;
  BAS[ATNO][  1].a[  5] =      2855.500000000000;     BAS[ATNO][  1].d[  5] =        -0.001018709384;
  BAS[ATNO][  1].a[  6] =      1113.600000000000;     BAS[ATNO][  1].d[  6] =        -0.002980773514;
  BAS[ATNO][  1].a[  7] =       461.890000000000;     BAS[ATNO][  1].d[  7] =        -0.007974278427;
  BAS[ATNO][  1].a[  8] =       201.350000000000;     BAS[ATNO][  1].d[  8] =        -0.018372055039;
  BAS[ATNO][  1].a[  9] =        91.198000000000;     BAS[ATNO][  1].d[  9] =        -0.035266099318;
  BAS[ATNO][  1].a[ 10] =        42.680000000000;     BAS[ATNO][  1].d[ 10] =        -0.037574562122;
  BAS[ATNO][  1].a[ 11] =     24261.000000000000;     BAS[ATNO][  1].d[ 11] =         0.000000183301;
  BAS[ATNO][  1].a[ 12] =      7911.700000000000;     BAS[ATNO][  1].d[ 12] =        -0.000001913838;
  BAS[ATNO][  1].a[ 13] =      2855.500000000000;     BAS[ATNO][  1].d[ 13] =        -0.000006840871;
  BAS[ATNO][  1].a[ 14] =      1113.600000000000;     BAS[ATNO][  1].d[ 14] =        -0.000099724169;
  BAS[ATNO][  1].a[ 15] =       461.890000000000;     BAS[ATNO][  1].d[ 15] =        -0.000525755201;
  BAS[ATNO][  1].a[ 16] =       201.350000000000;     BAS[ATNO][  1].d[ 16] =        -0.003495803462;
  BAS[ATNO][  1].a[ 17] =        91.198000000000;     BAS[ATNO][  1].d[ 17] =        -0.015412819126;
  BAS[ATNO][  1].a[ 18] =        42.680000000000;     BAS[ATNO][  1].d[ 18] =        -0.067635628726;
  BAS[ATNO][  1].a[ 19] =        20.742000000000;     BAS[ATNO][  1].d[ 19] =        -0.165900243792;
  BAS[ATNO][  1].a[ 20] =        10.249000000000;     BAS[ATNO][  1].d[ 20] =        -0.207319209503;
  BAS[ATNO][  1].a[ 21] =         5.101300000000;     BAS[ATNO][  1].d[ 21] =         0.047200102192;
  BAS[ATNO][  1].a[ 22] =         2.303100000000;     BAS[ATNO][  1].d[ 22] =         0.637069323601;
  BAS[ATNO][  1].a[ 23] =         1.053100000000;     BAS[ATNO][  1].d[ 23] =         0.472266219650;
  BAS[ATNO][  1].a[ 24] =         0.472220000000;     BAS[ATNO][  1].d[ 24] =         0.006941992171;
  BAS[ATNO][  1].a[ 25] =         0.204660000000;     BAS[ATNO][  1].d[ 25] =         0.003528843420;

  // Basis function   3 L = s
  InitBFNGauss(BAS[ATNO][  2]);
  BAS[ATNO][  2].l  = 0;
  BAS[ATNO][  2].ng = 26;
  BAS[ATNO][  2].a[  0] =   2522600.000000000000;     BAS[ATNO][  2].d[  0] =         0.000000257257;
  BAS[ATNO][  2].a[  1] =    377060.000000000000;     BAS[ATNO][  2].d[  1] =         0.000002007835;
  BAS[ATNO][  2].a[  2] =     85713.000000000000;     BAS[ATNO][  2].d[  2] =         0.000010551991;
  BAS[ATNO][  2].a[  3] =     24261.000000000000;     BAS[ATNO][  2].d[  3] =         0.000044723716;
  BAS[ATNO][  2].a[  4] =      7911.700000000000;     BAS[ATNO][  2].d[  4] =         0.000162208212;
  BAS[ATNO][  2].a[  5] =      2855.500000000000;     BAS[ATNO][  2].d[  5] =         0.000529025914;
  BAS[ATNO][  2].a[  6] =      1113.600000000000;     BAS[ATNO][  2].d[  6] =         0.001547945330;
  BAS[ATNO][  2].a[  7] =       461.890000000000;     BAS[ATNO][  2].d[  7] =         0.004141122091;
  BAS[ATNO][  2].a[  8] =       201.350000000000;     BAS[ATNO][  2].d[  8] =         0.009540790892;
  BAS[ATNO][  2].a[  9] =        91.198000000000;     BAS[ATNO][  2].d[  9] =         0.018314036097;
  BAS[ATNO][  2].a[ 10] =        42.680000000000;     BAS[ATNO][  2].d[ 10] =         0.019512843789;
  BAS[ATNO][  2].a[ 11] =     24261.000000000000;     BAS[ATNO][  2].d[ 11] =        -0.000000102854;
  BAS[ATNO][  2].a[ 12] =      7911.700000000000;     BAS[ATNO][  2].d[ 12] =         0.000001073890;
  BAS[ATNO][  2].a[ 13] =      2855.500000000000;     BAS[ATNO][  2].d[ 13] =         0.000003838538;
  BAS[ATNO][  2].a[ 14] =      1113.600000000000;     BAS[ATNO][  2].d[ 14] =         0.000055957055;
  BAS[ATNO][  2].a[ 15] =       461.890000000000;     BAS[ATNO][  2].d[ 15] =         0.000295010857;
  BAS[ATNO][  2].a[ 16] =       201.350000000000;     BAS[ATNO][  2].d[ 16] =         0.001961559246;
  BAS[ATNO][  2].a[ 17] =        91.198000000000;     BAS[ATNO][  2].d[ 17] =         0.008648414644;
  BAS[ATNO][  2].a[ 18] =        42.680000000000;     BAS[ATNO][  2].d[ 18] =         0.037951588035;
  BAS[ATNO][  2].a[ 19] =        20.742000000000;     BAS[ATNO][  2].d[ 19] =         0.093089660373;
  BAS[ATNO][  2].a[ 20] =        10.249000000000;     BAS[ATNO][  2].d[ 20] =         0.127420095167;
  BAS[ATNO][  2].a[ 21] =         5.101300000000;     BAS[ATNO][  2].d[ 21] =        -0.033415211716;
  BAS[ATNO][  2].a[ 22] =         2.303100000000;     BAS[ATNO][  2].d[ 22] =        -0.682325245451;
  BAS[ATNO][  2].a[ 23] =         1.053100000000;     BAS[ATNO][  2].d[ 23] =        -0.627342185961;
  BAS[ATNO][  2].a[ 24] =         0.472220000000;     BAS[ATNO][  2].d[ 24] =         1.329465948673;
  BAS[ATNO][  2].a[ 25] =         0.204660000000;     BAS[ATNO][  2].d[ 25] =         0.269234981722;

  // Basis function   4 L = s
  InitBFNGauss(BAS[ATNO][  3]);
  BAS[ATNO][  3].l  = 0;
  BAS[ATNO][  3].ng = 26;
  BAS[ATNO][  3].a[  0] =   2522600.000000000000;     BAS[ATNO][  3].d[  0] =         0.000000186689;
  BAS[ATNO][  3].a[  1] =    377060.000000000000;     BAS[ATNO][  3].d[  1] =         0.000001457064;
  BAS[ATNO][  3].a[  2] =     85713.000000000000;     BAS[ATNO][  3].d[  2] =         0.000007657464;
  BAS[ATNO][  3].a[  3] =     24261.000000000000;     BAS[ATNO][  3].d[  3] =         0.000032455510;
  BAS[ATNO][  3].a[  4] =      7911.700000000000;     BAS[ATNO][  3].d[  4] =         0.000117712721;
  BAS[ATNO][  3].a[  5] =      2855.500000000000;     BAS[ATNO][  3].d[  5] =         0.000383908305;
  BAS[ATNO][  3].a[  6] =      1113.600000000000;     BAS[ATNO][  3].d[  6] =         0.001123326953;
  BAS[ATNO][  3].a[  7] =       461.890000000000;     BAS[ATNO][  3].d[  7] =         0.003005166895;
  BAS[ATNO][  3].a[  8] =       201.350000000000;     BAS[ATNO][  3].d[  8] =         0.006923647336;
  BAS[ATNO][  3].a[  9] =        91.198000000000;     BAS[ATNO][  3].d[  9] =         0.013290295183;
  BAS[ATNO][  3].a[ 10] =        42.680000000000;     BAS[ATNO][  3].d[ 10] =         0.014160256781;
  BAS[ATNO][  3].a[ 11] =     24261.000000000000;     BAS[ATNO][  3].d[ 11] =        -0.000000070462;
  BAS[ATNO][  3].a[ 12] =      7911.700000000000;     BAS[ATNO][  3].d[ 12] =         0.000000735694;
  BAS[ATNO][  3].a[ 13] =      2855.500000000000;     BAS[ATNO][  3].d[ 13] =         0.000002629683;
  BAS[ATNO][  3].a[ 14] =      1113.600000000000;     BAS[ATNO][  3].d[ 14] =         0.000038334736;
  BAS[ATNO][  3].a[ 15] =       461.890000000000;     BAS[ATNO][  3].d[ 15] =         0.000202104334;
  BAS[ATNO][  3].a[ 16] =       201.350000000000;     BAS[ATNO][  3].d[ 16] =         0.001343813679;
  BAS[ATNO][  3].a[ 17] =        91.198000000000;     BAS[ATNO][  3].d[ 17] =         0.005924805956;
  BAS[ATNO][  3].a[ 18] =        42.680000000000;     BAS[ATNO][  3].d[ 18] =         0.025999654744;
  BAS[ATNO][  3].a[ 19] =        20.742000000000;     BAS[ATNO][  3].d[ 19] =         0.063773326897;
  BAS[ATNO][  3].a[ 20] =        10.249000000000;     BAS[ATNO][  3].d[ 20] =         0.127194802207;
  BAS[ATNO][  3].a[ 21] =         5.101300000000;     BAS[ATNO][  3].d[ 21] =        -0.119881678622;
  BAS[ATNO][  3].a[ 22] =         2.303100000000;     BAS[ATNO][  3].d[ 22] =        -0.389315679281;
  BAS[ATNO][  3].a[ 23] =         1.053100000000;     BAS[ATNO][  3].d[ 23] =        -1.179204797419;
  BAS[ATNO][  3].a[ 24] =         0.472220000000;     BAS[ATNO][  3].d[ 24] =         3.740941979321;
  BAS[ATNO][  3].a[ 25] =         0.204660000000;     BAS[ATNO][  3].d[ 25] =        -2.687867385021;

  // Basis function   5 L = s
  InitBFNGauss(BAS[ATNO][  4]);
  BAS[ATNO][  4].l  = 0;
  BAS[ATNO][  4].ng = 26;
  BAS[ATNO][  4].a[  0] =   2522600.000000000000;     BAS[ATNO][  4].d[  0] =         0.000000280683;
  BAS[ATNO][  4].a[  1] =    377060.000000000000;     BAS[ATNO][  4].d[  1] =         0.000002190667;
  BAS[ATNO][  4].a[  2] =     85713.000000000000;     BAS[ATNO][  4].d[  2] =         0.000011512847;
  BAS[ATNO][  4].a[  3] =     24261.000000000000;     BAS[ATNO][  4].d[  3] =         0.000048796221;
  BAS[ATNO][  4].a[  4] =      7911.700000000000;     BAS[ATNO][  4].d[  4] =         0.000176978761;
  BAS[ATNO][  4].a[  5] =      2855.500000000000;     BAS[ATNO][  4].d[  5] =         0.000577198587;
  BAS[ATNO][  4].a[  6] =      1113.600000000000;     BAS[ATNO][  4].d[  6] =         0.001688899983;
  BAS[ATNO][  4].a[  7] =       461.890000000000;     BAS[ATNO][  4].d[  7] =         0.004518209330;
  BAS[ATNO][  4].a[  8] =       201.350000000000;     BAS[ATNO][  4].d[  8] =         0.010409567617;
  BAS[ATNO][  4].a[  9] =        91.198000000000;     BAS[ATNO][  4].d[  9] =         0.019981697457;
  BAS[ATNO][  4].a[ 10] =        42.680000000000;     BAS[ATNO][  4].d[ 10] =         0.021289667611;
  BAS[ATNO][  4].a[ 11] =     24261.000000000000;     BAS[ATNO][  4].d[ 11] =        -0.000000210869;
  BAS[ATNO][  4].a[ 12] =      7911.700000000000;     BAS[ATNO][  4].d[ 12] =         0.000002201674;
  BAS[ATNO][  4].a[ 13] =      2855.500000000000;     BAS[ATNO][  4].d[ 13] =         0.000007869720;
  BAS[ATNO][  4].a[ 14] =      1113.600000000000;     BAS[ATNO][  4].d[ 14] =         0.000114722431;
  BAS[ATNO][  4].a[ 15] =       461.890000000000;     BAS[ATNO][  4].d[ 15] =         0.000604827448;
  BAS[ATNO][  4].a[ 16] =       201.350000000000;     BAS[ATNO][  4].d[ 16] =         0.004021563423;
  BAS[ATNO][  4].a[ 17] =        91.198000000000;     BAS[ATNO][  4].d[ 17] =         0.017730867970;
  BAS[ATNO][  4].a[ 18] =        42.680000000000;     BAS[ATNO][  4].d[ 18] =         0.077807855477;
  BAS[ATNO][  4].a[ 19] =        20.742000000000;     BAS[ATNO][  4].d[ 19] =         0.190851219033;
  BAS[ATNO][  4].a[ 20] =        10.249000000000;     BAS[ATNO][  4].d[ 20] =        -0.281776238499;
  BAS[ATNO][  4].a[ 21] =         5.101300000000;     BAS[ATNO][  4].d[ 21] =         1.466434903872;
  BAS[ATNO][  4].a[ 22] =         2.303100000000;     BAS[ATNO][  4].d[ 22] =        -5.978136187542;
  BAS[ATNO][  4].a[ 23] =         1.053100000000;     BAS[ATNO][  4].d[ 23] =         9.115584007387;
  BAS[ATNO][  4].a[ 24] =         0.472220000000;     BAS[ATNO][  4].d[ 24] =        -6.737500009094;
  BAS[ATNO][  4].a[ 25] =         0.204660000000;     BAS[ATNO][  4].d[ 25] =         2.228308203585;

  // Basis function   6 L = s
  InitBFNGauss(BAS[ATNO][  5]);
  BAS[ATNO][  5].l  = 0;
  BAS[ATNO][  5].ng = 26;
  BAS[ATNO][  5].a[  0] =   2522600.000000000000;     BAS[ATNO][  5].d[  0] =         0.000000955605;
  BAS[ATNO][  5].a[  1] =    377060.000000000000;     BAS[ATNO][  5].d[  1] =         0.000007458287;
  BAS[ATNO][  5].a[  2] =     85713.000000000000;     BAS[ATNO][  5].d[  2] =         0.000039196336;
  BAS[ATNO][  5].a[  3] =     24261.000000000000;     BAS[ATNO][  5].d[  3] =         0.000166130330;
  BAS[ATNO][  5].a[  4] =      7911.700000000000;     BAS[ATNO][  5].d[  4] =         0.000602537229;
  BAS[ATNO][  5].a[  5] =      2855.500000000000;     BAS[ATNO][  5].d[  5] =         0.001965115109;
  BAS[ATNO][  5].a[  6] =      1113.600000000000;     BAS[ATNO][  5].d[  6] =         0.005749984404;
  BAS[ATNO][  5].a[  7] =       461.890000000000;     BAS[ATNO][  5].d[  7] =         0.015382576492;
  BAS[ATNO][  5].a[  8] =       201.350000000000;     BAS[ATNO][  5].d[  8] =         0.035440139762;
  BAS[ATNO][  5].a[  9] =        91.198000000000;     BAS[ATNO][  5].d[  9] =         0.068029160922;
  BAS[ATNO][  5].a[ 10] =        42.680000000000;     BAS[ATNO][  5].d[ 10] =         0.072482241660;
  BAS[ATNO][  5].a[ 11] =     24261.000000000000;     BAS[ATNO][  5].d[ 11] =        -0.000000046415;
  BAS[ATNO][  5].a[ 12] =      7911.700000000000;     BAS[ATNO][  5].d[ 12] =         0.000000484615;
  BAS[ATNO][  5].a[ 13] =      2855.500000000000;     BAS[ATNO][  5].d[ 13] =         0.000001732220;
  BAS[ATNO][  5].a[ 14] =      1113.600000000000;     BAS[ATNO][  5].d[ 14] =         0.000025251791;
  BAS[ATNO][  5].a[ 15] =       461.890000000000;     BAS[ATNO][  5].d[ 15] =         0.000133129820;
  BAS[ATNO][  5].a[ 16] =       201.350000000000;     BAS[ATNO][  5].d[ 16] =         0.000885194640;
  BAS[ATNO][  5].a[ 17] =        91.198000000000;     BAS[ATNO][  5].d[ 17] =         0.003902778008;
  BAS[ATNO][  5].a[ 18] =        42.680000000000;     BAS[ATNO][  5].d[ 18] =         0.017126447940;
  BAS[ATNO][  5].a[ 19] =        20.742000000000;     BAS[ATNO][  5].d[ 19] =         0.042008656416;
  BAS[ATNO][  5].a[ 20] =        10.249000000000;     BAS[ATNO][  5].d[ 20] =         2.976166897415;
  BAS[ATNO][  5].a[ 21] =         5.101300000000;     BAS[ATNO][  5].d[ 21] =        -8.781097115662;
  BAS[ATNO][  5].a[ 22] =         2.303100000000;     BAS[ATNO][  5].d[ 22] =        10.805449759971;
  BAS[ATNO][  5].a[ 23] =         1.053100000000;     BAS[ATNO][  5].d[ 23] =        -8.051631815320;
  BAS[ATNO][  5].a[ 24] =         0.472220000000;     BAS[ATNO][  5].d[ 24] =         3.854018936432;
  BAS[ATNO][  5].a[ 25] =         0.204660000000;     BAS[ATNO][  5].d[ 25] =        -1.010598821405;

  // Basis function   7 L = s
  InitBFNGauss(BAS[ATNO][  6]);
  BAS[ATNO][  6].l  = 0;
  BAS[ATNO][  6].ng = 26;
  BAS[ATNO][  6].a[  0] =   2522600.000000000000;     BAS[ATNO][  6].d[  0] =        -0.000000051109;
  BAS[ATNO][  6].a[  1] =    377060.000000000000;     BAS[ATNO][  6].d[  1] =        -0.000000398893;
  BAS[ATNO][  6].a[  2] =     85713.000000000000;     BAS[ATNO][  6].d[  2] =        -0.000002096343;
  BAS[ATNO][  6].a[  3] =     24261.000000000000;     BAS[ATNO][  6].d[  3] =        -0.000008885170;
  BAS[ATNO][  6].a[  4] =      7911.700000000000;     BAS[ATNO][  6].d[  4] =        -0.000032225577;
  BAS[ATNO][  6].a[  5] =      2855.500000000000;     BAS[ATNO][  6].d[  5] =        -0.000105100508;
  BAS[ATNO][  6].a[  6] =      1113.600000000000;     BAS[ATNO][  6].d[  6] =        -0.000307527167;
  BAS[ATNO][  6].a[  7] =       461.890000000000;     BAS[ATNO][  6].d[  7] =        -0.000822708347;
  BAS[ATNO][  6].a[  8] =       201.350000000000;     BAS[ATNO][  6].d[  8] =        -0.001895449622;
  BAS[ATNO][  6].a[  9] =        91.198000000000;     BAS[ATNO][  6].d[  9] =        -0.003638412495;
  BAS[ATNO][  6].a[ 10] =        42.680000000000;     BAS[ATNO][  6].d[ 10] =        -0.003876577194;
  BAS[ATNO][  6].a[ 11] =     24261.000000000000;     BAS[ATNO][  6].d[ 11] =        -0.000002096350;
  BAS[ATNO][  6].a[ 12] =      7911.700000000000;     BAS[ATNO][  6].d[ 12] =         0.000021887871;
  BAS[ATNO][  6].a[ 13] =      2855.500000000000;     BAS[ATNO][  6].d[ 13] =         0.000078236554;
  BAS[ATNO][  6].a[ 14] =      1113.600000000000;     BAS[ATNO][  6].d[ 14] =         0.001140509134;
  BAS[ATNO][  6].a[ 15] =       461.890000000000;     BAS[ATNO][  6].d[ 15] =         0.006012871448;
  BAS[ATNO][  6].a[ 16] =       201.350000000000;     BAS[ATNO][  6].d[ 16] =         0.039980235613;
  BAS[ATNO][  6].a[ 17] =        91.198000000000;     BAS[ATNO][  6].d[ 17] =         0.176270819212;
  BAS[ATNO][  6].a[ 18] =        42.680000000000;     BAS[ATNO][  6].d[ 18] =         0.773524141570;
  BAS[ATNO][  6].a[ 19] =        20.742000000000;     BAS[ATNO][  6].d[ 19] =         1.897340885008;
  BAS[ATNO][  6].a[ 20] =        10.249000000000;     BAS[ATNO][  6].d[ 20] =        -8.600923664839;
  BAS[ATNO][  6].a[ 21] =         5.101300000000;     BAS[ATNO][  6].d[ 21] =        10.618325719572;
  BAS[ATNO][  6].a[ 22] =         2.303100000000;     BAS[ATNO][  6].d[ 22] =        -7.718214111021;
  BAS[ATNO][  6].a[ 23] =         1.053100000000;     BAS[ATNO][  6].d[ 23] =         4.499613775857;
  BAS[ATNO][  6].a[ 24] =         0.472220000000;     BAS[ATNO][  6].d[ 24] =        -1.962585281997;
  BAS[ATNO][  6].a[ 25] =         0.204660000000;     BAS[ATNO][  6].d[ 25] =         0.502448870755;

  // Basis function   8 L = s
  InitBFNGauss(BAS[ATNO][  7]);
  BAS[ATNO][  7].l  = 0;
  BAS[ATNO][  7].ng = 26;
  BAS[ATNO][  7].a[  0] =   2522600.000000000000;     BAS[ATNO][  7].d[  0] =         0.000015375852;
  BAS[ATNO][  7].a[  1] =    377060.000000000000;     BAS[ATNO][  7].d[  1] =         0.000120005185;
  BAS[ATNO][  7].a[  2] =     85713.000000000000;     BAS[ATNO][  7].d[  2] =         0.000630676131;
  BAS[ATNO][  7].a[  3] =     24261.000000000000;     BAS[ATNO][  7].d[  3] =         0.002673067053;
  BAS[ATNO][  7].a[  4] =      7911.700000000000;     BAS[ATNO][  7].d[  4] =         0.009694932974;
  BAS[ATNO][  7].a[  5] =      2855.500000000000;     BAS[ATNO][  7].d[  5] =         0.031619057451;
  BAS[ATNO][  7].a[  6] =      1113.600000000000;     BAS[ATNO][  7].d[  6] =         0.092518288829;
  BAS[ATNO][  7].a[  7] =       461.890000000000;     BAS[ATNO][  7].d[  7] =         0.247508437410;
  BAS[ATNO][  7].a[  8] =       201.350000000000;     BAS[ATNO][  7].d[  8] =         0.570238257450;
  BAS[ATNO][  7].a[  9] =        91.198000000000;     BAS[ATNO][  7].d[  9] =         1.094601501014;
  BAS[ATNO][  7].a[ 10] =        42.680000000000;     BAS[ATNO][  7].d[ 10] =         1.166252375349;
  BAS[ATNO][  7].a[ 11] =     24261.000000000000;     BAS[ATNO][  7].d[ 11] =         0.000004430380;
  BAS[ATNO][  7].a[ 12] =      7911.700000000000;     BAS[ATNO][  7].d[ 12] =        -0.000046257352;
  BAS[ATNO][  7].a[ 13] =      2855.500000000000;     BAS[ATNO][  7].d[ 13] =        -0.000165343434;
  BAS[ATNO][  7].a[ 14] =      1113.600000000000;     BAS[ATNO][  7].d[ 14] =        -0.002410327246;
  BAS[ATNO][  7].a[ 15] =       461.890000000000;     BAS[ATNO][  7].d[ 15] =        -0.012707471991;
  BAS[ATNO][  7].a[ 16] =       201.350000000000;     BAS[ATNO][  7].d[ 16] =        -0.084493362053;
  BAS[ATNO][  7].a[ 17] =        91.198000000000;     BAS[ATNO][  7].d[ 17] =        -0.372526922828;
  BAS[ATNO][  7].a[ 18] =        42.680000000000;     BAS[ATNO][  7].d[ 18] =        -1.634749129101;
  BAS[ATNO][  7].a[ 19] =        20.742000000000;     BAS[ATNO][  7].d[ 19] =        -4.009799038824;
  BAS[ATNO][  7].a[ 20] =        10.249000000000;     BAS[ATNO][  7].d[ 20] =         7.491458438180;
  BAS[ATNO][  7].a[ 21] =         5.101300000000;     BAS[ATNO][  7].d[ 21] =        -6.767498154680;
  BAS[ATNO][  7].a[ 22] =         2.303100000000;     BAS[ATNO][  7].d[ 22] =         4.342704697121;
  BAS[ATNO][  7].a[ 23] =         1.053100000000;     BAS[ATNO][  7].d[ 23] =        -2.478176740776;
  BAS[ATNO][  7].a[ 24] =         0.472220000000;     BAS[ATNO][  7].d[ 24] =         1.089611901368;
  BAS[ATNO][  7].a[ 25] =         0.204660000000;     BAS[ATNO][  7].d[ 25] =        -0.282030599867;

  // Basis function   9 L = p
  InitBFNGauss(BAS[ATNO][  8]);
  BAS[ATNO][  8].l  = 1;
  BAS[ATNO][  8].ng = 11;
  BAS[ATNO][  8].a[  0] =      1169.900000000000;     BAS[ATNO][  8].d[  0] =         0.000183702881;
  BAS[ATNO][  8].a[  1] =       277.110000000000;     BAS[ATNO][  8].d[  1] =         0.001609450784;
  BAS[ATNO][  8].a[  2] =        89.264000000000;     BAS[ATNO][  8].d[  2] =         0.009033329426;
  BAS[ATNO][  8].a[  3] =        33.100000000000;     BAS[ATNO][  8].d[  3] =         0.038108346718;
  BAS[ATNO][  8].a[  4] =        14.031000000000;     BAS[ATNO][  8].d[  4] =         0.107773987632;
  BAS[ATNO][  8].a[  5] =         6.298500000000;     BAS[ATNO][  8].d[  5] =         0.286280333677;
  BAS[ATNO][  8].a[  6] =         2.923400000000;     BAS[ATNO][  8].d[  6] =         0.419922027383;
  BAS[ATNO][  8].a[  7] =         1.353700000000;     BAS[ATNO][  8].d[  7] =         0.286733025034;
  BAS[ATNO][  8].a[  8] =         0.613620000000;     BAS[ATNO][  8].d[  8] =         0.018640681113;
  BAS[ATNO][  8].a[  9] =         0.263620000000;     BAS[ATNO][  8].d[  9] =         0.003200688682;
  BAS[ATNO][  8].a[ 10] =         0.107550000000;     BAS[ATNO][  8].d[ 10] =        -0.001070458998;

  // Basis function  10 L = p
  InitBFNGauss(BAS[ATNO][  9]);
  BAS[ATNO][  9].l  = 1;
  BAS[ATNO][  9].ng = 11;
  BAS[ATNO][  9].a[  0] =      1169.900000000000;     BAS[ATNO][  9].d[  0] =        -0.000109255764;
  BAS[ATNO][  9].a[  1] =       277.110000000000;     BAS[ATNO][  9].d[  1] =        -0.000957207501;
  BAS[ATNO][  9].a[  2] =        89.264000000000;     BAS[ATNO][  9].d[  2] =        -0.005372497732;
  BAS[ATNO][  9].a[  3] =        33.100000000000;     BAS[ATNO][  9].d[  3] =        -0.022664623049;
  BAS[ATNO][  9].a[  4] =        14.031000000000;     BAS[ATNO][  9].d[  4] =        -0.064097685009;
  BAS[ATNO][  9].a[  5] =         6.298500000000;     BAS[ATNO][  9].d[  5] =        -0.191312095814;
  BAS[ATNO][  9].a[  6] =         2.923400000000;     BAS[ATNO][  9].d[  6] =        -0.297378904789;
  BAS[ATNO][  9].a[  7] =         1.353700000000;     BAS[ATNO][  9].d[  7] =        -0.026849074591;
  BAS[ATNO][  9].a[  8] =         0.613620000000;     BAS[ATNO][  9].d[  8] =         0.829555288517;
  BAS[ATNO][  9].a[  9] =         0.263620000000;     BAS[ATNO][  9].d[  9] =         0.287227493008;
  BAS[ATNO][  9].a[ 10] =         0.107550000000;     BAS[ATNO][  9].d[ 10] =        -0.016881372239;

  // Basis function  11 L = p
  InitBFNGauss(BAS[ATNO][ 10]);
  BAS[ATNO][ 10].l  = 1;
  BAS[ATNO][ 10].ng = 11;
  BAS[ATNO][ 10].a[  0] =      1169.900000000000;     BAS[ATNO][ 10].d[  0] =        -0.000072933191;
  BAS[ATNO][ 10].a[  1] =       277.110000000000;     BAS[ATNO][ 10].d[  1] =        -0.000638979533;
  BAS[ATNO][ 10].a[  2] =        89.264000000000;     BAS[ATNO][ 10].d[  2] =        -0.003586386533;
  BAS[ATNO][ 10].a[  3] =        33.100000000000;     BAS[ATNO][ 10].d[  3] =        -0.015129666486;
  BAS[ATNO][ 10].a[  4] =        14.031000000000;     BAS[ATNO][ 10].d[  4] =        -0.042788119378;
  BAS[ATNO][ 10].a[  5] =         6.298500000000;     BAS[ATNO][ 10].d[  5] =        -0.140224179159;
  BAS[ATNO][ 10].a[  6] =         2.923400000000;     BAS[ATNO][ 10].d[  6] =        -0.195071458722;
  BAS[ATNO][ 10].a[  7] =         1.353700000000;     BAS[ATNO][ 10].d[  7] =         0.001989246750;
  BAS[ATNO][ 10].a[  8] =         0.613620000000;     BAS[ATNO][ 10].d[  8] =         1.215953831422;
  BAS[ATNO][ 10].a[  9] =         0.263620000000;     BAS[ATNO][ 10].d[  9] =        -0.923359619263;
  BAS[ATNO][ 10].a[ 10] =         0.107550000000;     BAS[ATNO][ 10].d[ 10] =        -0.563094270653;

  // Basis function  12 L = p
  InitBFNGauss(BAS[ATNO][ 11]);
  BAS[ATNO][ 11].l  = 1;
  BAS[ATNO][ 11].ng = 11;
  BAS[ATNO][ 11].a[  0] =      1169.900000000000;     BAS[ATNO][ 11].d[  0] =         0.000064678324;
  BAS[ATNO][ 11].a[  1] =       277.110000000000;     BAS[ATNO][ 11].d[  1] =         0.000566657307;
  BAS[ATNO][ 11].a[  2] =        89.264000000000;     BAS[ATNO][ 11].d[  2] =         0.003180465148;
  BAS[ATNO][ 11].a[  3] =        33.100000000000;     BAS[ATNO][ 11].d[  3] =         0.013417231106;
  BAS[ATNO][ 11].a[  4] =        14.031000000000;     BAS[ATNO][ 11].d[  4] =         0.037945191116;
  BAS[ATNO][ 11].a[  5] =         6.298500000000;     BAS[ATNO][ 11].d[  5] =         0.139599808720;
  BAS[ATNO][ 11].a[  6] =         2.923400000000;     BAS[ATNO][ 11].d[  6] =         0.147131122581;
  BAS[ATNO][ 11].a[  7] =         1.353700000000;     BAS[ATNO][ 11].d[  7] =         0.057056464073;
  BAS[ATNO][ 11].a[  8] =         0.613620000000;     BAS[ATNO][ 11].d[  8] =        -1.728102314475;
  BAS[ATNO][ 11].a[  9] =         0.263620000000;     BAS[ATNO][ 11].d[  9] =         2.923122075909;
  BAS[ATNO][ 11].a[ 10] =         0.107550000000;     BAS[ATNO][ 11].d[ 10] =        -1.881255461524;

  // Basis function  13 L = p
  InitBFNGauss(BAS[ATNO][ 12]);
  BAS[ATNO][ 12].l  = 1;
  BAS[ATNO][ 12].ng = 11;
  BAS[ATNO][ 12].a[  0] =      1169.900000000000;     BAS[ATNO][ 12].d[  0] =         0.000206163951;
  BAS[ATNO][ 12].a[  1] =       277.110000000000;     BAS[ATNO][ 12].d[  1] =         0.001806235872;
  BAS[ATNO][ 12].a[  2] =        89.264000000000;     BAS[ATNO][ 12].d[  2] =         0.010137820813;
  BAS[ATNO][ 12].a[  3] =        33.100000000000;     BAS[ATNO][ 12].d[  3] =         0.042767796048;
  BAS[ATNO][ 12].a[  4] =        14.031000000000;     BAS[ATNO][ 12].d[  4] =         0.120951348438;
  BAS[ATNO][ 12].a[  5] =         6.298500000000;     BAS[ATNO][ 12].d[  5] =         0.048350653661;
  BAS[ATNO][ 12].a[  6] =         2.923400000000;     BAS[ATNO][ 12].d[  6] =         1.693709002963;
  BAS[ATNO][ 12].a[  7] =         1.353700000000;     BAS[ATNO][ 12].d[  7] =        -4.432837774866;
  BAS[ATNO][ 12].a[  8] =         0.613620000000;     BAS[ATNO][ 12].d[  8] =         4.645018876818;
  BAS[ATNO][ 12].a[  9] =         0.263620000000;     BAS[ATNO][ 12].d[  9] =        -2.726278774748;
  BAS[ATNO][ 12].a[ 10] =         0.107550000000;     BAS[ATNO][ 12].d[ 10] =         0.876572284130;

  // Basis function  14 L = p
  InitBFNGauss(BAS[ATNO][ 13]);
  BAS[ATNO][ 13].l  = 1;
  BAS[ATNO][ 13].ng = 11;
  BAS[ATNO][ 13].a[  0] =      1169.900000000000;     BAS[ATNO][ 13].d[  0] =        -0.000186017919;
  BAS[ATNO][ 13].a[  1] =       277.110000000000;     BAS[ATNO][ 13].d[  1] =        -0.001629733213;
  BAS[ATNO][ 13].a[  2] =        89.264000000000;     BAS[ATNO][ 13].d[  2] =        -0.009147168175;
  BAS[ATNO][ 13].a[  3] =        33.100000000000;     BAS[ATNO][ 13].d[  3] =        -0.038588591191;
  BAS[ATNO][ 13].a[  4] =        14.031000000000;     BAS[ATNO][ 13].d[  4] =        -0.109132164156;
  BAS[ATNO][ 13].a[  5] =         6.298500000000;     BAS[ATNO][ 13].d[  5] =        -2.311760024655;
  BAS[ATNO][ 13].a[  6] =         2.923400000000;     BAS[ATNO][ 13].d[  6] =         4.961897190161;
  BAS[ATNO][ 13].a[  7] =         1.353700000000;     BAS[ATNO][ 13].d[  7] =        -4.733907729004;
  BAS[ATNO][ 13].a[  8] =         0.613620000000;     BAS[ATNO][ 13].d[  8] =         2.872780925317;
  BAS[ATNO][ 13].a[  9] =         0.263620000000;     BAS[ATNO][ 13].d[  9] =        -1.260003392587;
  BAS[ATNO][ 13].a[ 10] =         0.107550000000;     BAS[ATNO][ 13].d[ 10] =         0.356466128588;

  // Basis function  15 L = p
  InitBFNGauss(BAS[ATNO][ 14]);
  BAS[ATNO][ 14].l  = 1;
  BAS[ATNO][ 14].ng = 11;
  BAS[ATNO][ 14].a[  0] =      1169.900000000000;     BAS[ATNO][ 14].d[  0] =         0.002409908360;
  BAS[ATNO][ 14].a[  1] =       277.110000000000;     BAS[ATNO][ 14].d[  1] =         0.021113598663;
  BAS[ATNO][ 14].a[  2] =        89.264000000000;     BAS[ATNO][ 14].d[  2] =         0.118503836210;
  BAS[ATNO][ 14].a[  3] =        33.100000000000;     BAS[ATNO][ 14].d[  3] =         0.499924785733;
  BAS[ATNO][ 14].a[  4] =        14.031000000000;     BAS[ATNO][ 14].d[  4] =         1.413834299160;
  BAS[ATNO][ 14].a[  5] =         6.298500000000;     BAS[ATNO][ 14].d[  5] =        -3.641511222530;
  BAS[ATNO][ 14].a[  6] =         2.923400000000;     BAS[ATNO][ 14].d[  6] =         3.760001619968;
  BAS[ATNO][ 14].a[  7] =         1.353700000000;     BAS[ATNO][ 14].d[  7] =        -2.590465781918;
  BAS[ATNO][ 14].a[  8] =         0.613620000000;     BAS[ATNO][ 14].d[  8] =         1.389395113764;
  BAS[ATNO][ 14].a[  9] =         0.263620000000;     BAS[ATNO][ 14].d[  9] =        -0.590711786444;
  BAS[ATNO][ 14].a[ 10] =         0.107550000000;     BAS[ATNO][ 14].d[ 10] =         0.166806835701;

  // Basis function  16 L = d
  InitBFNGauss(BAS[ATNO][ 15]);
  BAS[ATNO][ 15].l  = 2;
  BAS[ATNO][ 15].ng = 6;
  BAS[ATNO][ 15].a[  0] =        32.000000000000;     BAS[ATNO][ 15].d[  0] =         0.002635915570;
  BAS[ATNO][ 15].a[  1] =        10.100000000000;     BAS[ATNO][ 15].d[  1] =         0.022265249451;
  BAS[ATNO][ 15].a[  2] =         4.000000000000;     BAS[ATNO][ 15].d[  2] =         0.099194757852;
  BAS[ATNO][ 15].a[  3] =         1.850000000000;     BAS[ATNO][ 15].d[  3] =         0.293576793544;
  BAS[ATNO][ 15].a[  4] =         0.800000000000;     BAS[ATNO][ 15].d[  4] =         0.594570251989;
  BAS[ATNO][ 15].a[  5] =         0.300000000000;     BAS[ATNO][ 15].d[  5] =         0.168964798137;

  // Basis function  17 L = d
  InitBFNGauss(BAS[ATNO][ 16]);
  BAS[ATNO][ 16].l  = 2;
  BAS[ATNO][ 16].ng = 6;
  BAS[ATNO][ 16].a[  0] =        32.000000000000;     BAS[ATNO][ 16].d[  0] =        -0.002449685449;
  BAS[ATNO][ 16].a[  1] =        10.100000000000;     BAS[ATNO][ 16].d[  1] =        -0.018394726053;
  BAS[ATNO][ 16].a[  2] =         4.000000000000;     BAS[ATNO][ 16].d[  2] =        -0.095401359028;
  BAS[ATNO][ 16].a[  3] =         1.850000000000;     BAS[ATNO][ 16].d[  3] =        -0.266912838599;
  BAS[ATNO][ 16].a[  4] =         0.800000000000;     BAS[ATNO][ 16].d[  4] =        -0.494662856356;
  BAS[ATNO][ 16].a[  5] =         0.300000000000;     BAS[ATNO][ 16].d[  5] =         1.167341668448;

  // Basis function  18 L = d
  InitBFNGauss(BAS[ATNO][ 17]);
  BAS[ATNO][ 17].l  = 2;
  BAS[ATNO][ 17].ng = 6;
  BAS[ATNO][ 17].a[  0] =        32.000000000000;     BAS[ATNO][ 17].d[  0] =         0.002305458146;
  BAS[ATNO][ 17].a[  1] =        10.100000000000;     BAS[ATNO][ 17].d[  1] =        -0.096046391597;
  BAS[ATNO][ 17].a[  2] =         4.000000000000;     BAS[ATNO][ 17].d[  2] =         0.048453941784;
  BAS[ATNO][ 17].a[  3] =         1.850000000000;     BAS[ATNO][ 17].d[  3] =        -1.541576917174;
  BAS[ATNO][ 17].a[  4] =         0.800000000000;     BAS[ATNO][ 17].d[  4] =         2.018143253064;
  BAS[ATNO][ 17].a[  5] =         0.300000000000;     BAS[ATNO][ 17].d[  5] =        -0.932233744220;

  // Basis function  19 L = d
  InitBFNGauss(BAS[ATNO][ 18]);
  BAS[ATNO][ 18].l  = 2;
  BAS[ATNO][ 18].ng = 6;
  BAS[ATNO][ 18].a[  0] =        32.000000000000;     BAS[ATNO][ 18].d[  0] =        -0.041772783796;
  BAS[ATNO][ 18].a[  1] =        10.100000000000;     BAS[ATNO][ 18].d[  1] =         0.100401363863;
  BAS[ATNO][ 18].a[  2] =         4.000000000000;     BAS[ATNO][ 18].d[  2] =        -2.031030589764;
  BAS[ATNO][ 18].a[  3] =         1.850000000000;     BAS[ATNO][ 18].d[  3] =         2.588096009586;
  BAS[ATNO][ 18].a[  4] =         0.800000000000;     BAS[ATNO][ 18].d[  4] =        -1.437381549107;
  BAS[ATNO][ 18].a[  5] =         0.300000000000;     BAS[ATNO][ 18].d[  5] =         0.428688969354;

  // Basis function  20 L = d
  InitBFNGauss(BAS[ATNO][ 19]);
  BAS[ATNO][ 19].l  = 2;
  BAS[ATNO][ 19].ng = 6;
  BAS[ATNO][ 19].a[  0] =        32.000000000000;     BAS[ATNO][ 19].d[  0] =         0.071069412503;
  BAS[ATNO][ 19].a[  1] =        10.100000000000;     BAS[ATNO][ 19].d[  1] =        -1.751816514185;
  BAS[ATNO][ 19].a[  2] =         4.000000000000;     BAS[ATNO][ 19].d[  2] =         2.270779385183;
  BAS[ATNO][ 19].a[  3] =         1.850000000000;     BAS[ATNO][ 19].d[  3] =        -1.641861136732;
  BAS[ATNO][ 19].a[  4] =         0.800000000000;     BAS[ATNO][ 19].d[  4] =         0.718568122389;
  BAS[ATNO][ 19].a[  5] =         0.300000000000;     BAS[ATNO][ 19].d[  5] =        -0.200054905941;

  // Basis function  21 L = d
  InitBFNGauss(BAS[ATNO][ 20]);
  BAS[ATNO][ 20].l  = 2;
  BAS[ATNO][ 20].ng = 6;
  BAS[ATNO][ 20].a[  0] =        32.000000000000;     BAS[ATNO][ 20].d[  0] =         1.351892531666;
  BAS[ATNO][ 20].a[  1] =        10.100000000000;     BAS[ATNO][ 20].d[  1] =        -1.324788567506;
  BAS[ATNO][ 20].a[  2] =         4.000000000000;     BAS[ATNO][ 20].d[  2] =         1.084184877362;
  BAS[ATNO][ 20].a[  3] =         1.850000000000;     BAS[ATNO][ 20].d[  3] =        -0.702081795560;
  BAS[ATNO][ 20].a[  4] =         0.800000000000;     BAS[ATNO][ 20].d[  4] =         0.303118292199;
  BAS[ATNO][ 20].a[  5] =         0.300000000000;     BAS[ATNO][ 20].d[  5] =        -0.085459683240;

  // Basis function  22 L = f
  InitBFNGauss(BAS[ATNO][ 21]);
  BAS[ATNO][ 21].l  = 3;
  BAS[ATNO][ 21].ng = 3;
  BAS[ATNO][ 21].a[  0] =         3.600000000000;     BAS[ATNO][ 21].d[  0] =         0.061242839631;
  BAS[ATNO][ 21].a[  1] =         1.550000000000;     BAS[ATNO][ 21].d[  1] =        -0.010114306489;
  BAS[ATNO][ 21].a[  2] =         0.700000000000;     BAS[ATNO][ 21].d[  2] =         0.990041370903;

  // Basis function  23 L = f
  InitBFNGauss(BAS[ATNO][ 22]);
  BAS[ATNO][ 22].l  = 3;
  BAS[ATNO][ 22].ng = 3;
  BAS[ATNO][ 22].a[  0] =         3.600000000000;     BAS[ATNO][ 22].d[  0] =        -0.063857846942;
  BAS[ATNO][ 22].a[  1] =         1.550000000000;     BAS[ATNO][ 22].d[  1] =         1.475844090189;
  BAS[ATNO][ 22].a[  2] =         0.700000000000;     BAS[ATNO][ 22].d[  2] =        -1.061621173817;

  // Basis function  24 L = f
  InitBFNGauss(BAS[ATNO][ 23]);
  BAS[ATNO][ 23].l  = 3;
  BAS[ATNO][ 23].ng = 3;
  BAS[ATNO][ 23].a[  0] =         3.600000000000;     BAS[ATNO][ 23].d[  0] =         1.506267301695;
  BAS[ATNO][ 23].a[  1] =         1.550000000000;     BAS[ATNO][ 23].d[  1] =        -1.441895469271;
  BAS[ATNO][ 23].a[  2] =         0.700000000000;     BAS[ATNO][ 23].d[  2] =         0.592967764994;

  // Basis function  25 L = g
  InitBFNGauss(BAS[ATNO][ 24]);
  BAS[ATNO][ 24].l  = 4;
  BAS[ATNO][ 24].ng = 2;
  BAS[ATNO][ 24].a[  0] =         4.200000000000;     BAS[ATNO][ 24].d[  0] =        -0.143975495558;
  BAS[ATNO][ 24].a[  1] =         1.800000000000;     BAS[ATNO][ 24].d[  1] =         1.082724359821;

  // Basis function  26 L = g
  InitBFNGauss(BAS[ATNO][ 25]);
  BAS[ATNO][ 25].l  = 4;
  BAS[ATNO][ 25].ng = 2;
  BAS[ATNO][ 25].a[  0] =         4.200000000000;     BAS[ATNO][ 25].d[  0] =         1.265226721027;
  BAS[ATNO][ 25].a[  1] =         1.800000000000;     BAS[ATNO][ 25].d[  1] =        -0.670250370811;

  // Basis function  27 L = h
  InitBFNGauss(BAS[ATNO][ 26]);
  BAS[ATNO][ 26].l  = 5;
  BAS[ATNO][ 26].ng = 1;
  BAS[ATNO][ 26].a[  0] =         2.250000000000;     BAS[ATNO][ 26].d[  0] =         1.000000000000;

-------
TIMINGS
-------

Total SCF time: 0 days 0 hours 0 min 1 sec 

Total time                  ....       1.764 sec
Sum of individual times     ....       1.562 sec  ( 88.6%)

Fock matrix formation       ....       1.092 sec  ( 61.9%)
  XC integration            ....       0.032 sec  (  2.9% of F)
    Basis function eval.    ....       0.005 sec  ( 14.6% of XC)
    Density eval.           ....       0.003 sec  (  9.7% of XC)
    XC-Functional eval.     ....       0.001 sec  (  4.4% of XC)
    XC-Potential eval.      ....       0.007 sec  ( 20.8% of XC)
Diagonalization             ....       0.005 sec  (  0.3%)
Density matrix formation    ....       0.002 sec  (  0.1%)
Population analysis         ....       0.002 sec  (  0.1%)
Initial guess               ....       0.086 sec  (  4.9%)
Orbital Transformation      ....       0.000 sec  (  0.0%)
Orbital Orthonormalization  ....       0.000 sec  (  0.0%)
DIIS solution               ....       0.001 sec  (  0.0%)
SOSCF solution              ....       0.002 sec  (  0.1%)
Grid generation             ....       0.372 sec  ( 21.1%)

-------------------------   --------------------
FINAL SINGLE POINT ENERGY       -93.212758162715
-------------------------   --------------------


                            ***************************************
                            *     ORCA property calculations      *
                            ***************************************

                                    ---------------------
                                    Active property flags
                                    ---------------------
   (+) Dipole Moment


------------------------------------------------------------------------------
                       ORCA ELECTRIC PROPERTIES CALCULATION
------------------------------------------------------------------------------

Dipole Moment Calculation                       ... on
Quadrupole Moment Calculation                   ... off
Polarizability Calculation                      ... off
GBWName                                         ... Ne_pc-4_.gbw
Electron density file                           ... Ne_pc-4_.scfp
The origin for moment calculation is the CENTER OF MASS  = ( 0.000000,  0.000000  0.000000)

-------------
DIPOLE MOMENT
-------------
                                X             Y             Z
Electronic contribution:     -0.00000       0.00000      -0.00000
Nuclear contribution   :      0.00000       0.00000       0.00000
                        -----------------------------------------
Total Dipole Moment    :     -0.00000       0.00000      -0.00000
                        -----------------------------------------
Magnitude (a.u.)       :      0.00000
Magnitude (Debye)      :      0.00000



--------------------
Rotational spectrum 
--------------------
 
Rotational constants in cm-1:     0.000000     0.000000     0.000000 
Rotational constants in MHz :     0.000000     0.000000     0.000000 

 Dipole components along the rotational axes: 
x,y,z [a.u.] :    -0.000000     0.000000    -0.000000 
x,y,z [Debye]:    -0.000000     0.000000    -0.000000 

 

Timings for individual modules:

Sum of individual times         ...        2.602 sec (=   0.043 min)
GTO integral calculation        ...        0.581 sec (=   0.010 min)  22.3 %
SCF iterations                  ...        2.021 sec (=   0.034 min)  77.7 %
                             ****ORCA TERMINATED NORMALLY****
TOTAL RUN TIME: 0 days 0 hours 0 minutes 2 seconds 940 msec
