
                                 *****************
                                 * O   R   C   A *
                                 *****************

           --- An Ab Initio, DFT and Semiempirical electronic structure package ---

                  #######################################################
                  #                        -***-                        #
                  #          Department of theory and spectroscopy      #
                  #               Directorship: Frank Neese             #
                  #        Max Planck Institute fuer Kohlenforschung    #
                  #                Kaiser Wilhelm Platz 1               #
                  #                 D-45470 Muelheim/Ruhr               #
                  #                      Germany                        #
                  #                                                     #
                  #                  All rights reserved                #
                  #                        -***-                        #
                  #######################################################


                         Program Version 4.2.1 -  RELEASE  -


 With contributions from (in alphabetic order):
   Daniel Aravena         : Magnetic Suceptibility
   Michael Atanasov       : Ab Initio Ligand Field Theory (pilot matlab implementation)
   Alexander A. Auer      : GIAO ZORA, VPT2
   Ute Becker             : Parallelization
   Giovanni Bistoni       : ED, misc. LED, open-shell LED, HFLD
   Martin Brehm           : Molecular dynamics
   Dmytro Bykov           : SCF Hessian
   Vijay G. Chilkuri      : MRCI spin determinant printing, contributions to CSF-ICE
   Dipayan Datta          : RHF DLPNO-CCSD density
   Achintya Kumar Dutta   : EOM-CC, STEOM-CC
   Dmitry Ganyushin       : Spin-Orbit,Spin-Spin,Magnetic field MRCI
   Miquel Garcia          : C-PCM Hessian, Gaussian charge scheme
   Yang Guo               : DLPNO-NEVPT2, CIM, IAO-localization
   Andreas Hansen         : Spin unrestricted coupled pair/coupled cluster methods
   Benjamin Helmich-Paris : CASSCF linear response (MC-RPA)
   Lee Huntington         : MR-EOM, pCC
   Robert Izsak           : Overlap fitted RIJCOSX, COSX-SCS-MP3, EOM
   Christian Kollmar      : KDIIS, OOCD, Brueckner-CCSD(T), CCSD density
   Simone Kossmann        : Meta GGA functionals, TD-DFT gradient, OOMP2, MP2 Hessian
   Martin Krupicka        : AUTO-CI
   Lucas Lang             : DCDCAS
   Dagmar Lenk            : GEPOL surface, SMD
   Dimitrios Liakos       : Extrapolation schemes; Compound Job, initial MDCI parallelization
   Dimitrios Manganas     : Further ROCIS development; embedding schemes
   Dimitrios Pantazis     : SARC Basis sets
   Taras Petrenko         : DFT Hessian,TD-DFT gradient, ASA, ECA, R-Raman, ABS, FL, XAS/XES, NRVS
   Peter Pinski           : DLPNO-MP2, DLPNO-MP2 Gradient
   Christoph Reimann      : Effective Core Potentials
   Marius Retegan         : Local ZFS, SOC
   Christoph Riplinger    : Optimizer, TS searches, QM/MM, DLPNO-CCSD(T), (RO)-DLPNO pert. Triples
   Tobias Risthaus        : Range-separated hybrids, TD-DFT gradient, RPA, STAB
   Michael Roemelt        : Original ROCIS implementation
   Masaaki Saitow         : Open-shell DLPNO-CCSD energy and density
   Barbara Sandhoefer     : DKH picture change effects
   Avijit Sen             : IP-ROCIS
   Kantharuban Sivalingam : CASSCF convergence, NEVPT2, FIC-MRCI
   Bernardo de Souza      : ESD, SOC TD-DFT
   Georgi Stoychev        : AutoAux, RI-MP2 NMR
   Willem Van den Heuvel  : Paramagnetic NMR
   Boris Wezisla          : Elementary symmetry handling
   Frank Wennmohs         : Technical directorship


 We gratefully acknowledge several colleagues who have allowed us to
 interface, adapt or use parts of their codes:
   Stefan Grimme, W. Hujo, H. Kruse,             : VdW corrections, initial TS optimization,
                  C. Bannwarth                     DFT functionals, gCP, sTDA/sTD-DF
   Ed Valeev, F. Pavosevic, A. Kumar             : LibInt (2-el integral package), F12 methods
   Garnet Chan, S. Sharma, J. Yang, R. Olivares  : DMRG
   Ulf Ekstrom                                   : XCFun DFT Library
   Mihaly Kallay                                 : mrcc  (arbitrary order and MRCC methods)
   Andreas Klamt, Michael Diedenhofen            : otool_cosmo (COSMO solvation model)
   Jiri Pittner, Ondrej Demel                    : Mk-CCSD
   Frank Weinhold                                : gennbo (NPA and NBO analysis)
   Christopher J. Cramer and Donald G. Truhlar   : smd solvation model
   Lars Goerigk                                  : TD-DFT with DH, B97 family of functionals
   V. Asgeirsson, H. Jonsson                     : NEB implementation
   FAccTs GmbH                                   : IRC, NEB, NEB-TS, Multilevel, MM, QM/MM, CI optimization
   S Lehtola, MJT Oliveira, MAL Marques          : LibXC Library


 Your calculation uses the libint2 library for the computation of 2-el integrals
 For citations please refer to: http://libint.valeyev.net

 Your ORCA version has been built with support for libXC version: 4.2.3
 For citations please refer to: https://tddft.org/programs/libxc/

 This ORCA versions uses:
   CBLAS   interface :  Fast vector & matrix operations
   LAPACKE interface :  Fast linear algebra routines
   SCALAPACK package :  Parallel linear algebra routines


----- Orbital basis set information -----
Your calculation utilizes the basis: pc-3
   H, C-F              : F. Jensen, J. Chem. Phys. 115, 9113 (2001).
                         F. Jensen, J. Chem. Phys. 116, 7372 (2002).
                         F. Jensen, J. Chem. Phys. 117, 9234 (2002).
   Si-Cl               : F. Jensen, T. Helgaker, J. Chem. Phys. 121, 3463 (2004).
   He-B, Ne-Mg, Al, Ar : F. Jensen, J. Phys. Chem. A 111, 11198 (2007).
   K, Ca, Ga-Kr        : F. Jensen, J. Chem. Phys. 136, 094110 (2012).
   Sc-Zn               : F. Jensen, J. Chem. Phys. 138, 014107 (2013).

================================================================================
                                        WARNINGS
                       Please study these warnings very carefully!
================================================================================


INFO   : the flag for use of LIBINT has been found!

================================================================================
                                       INPUT FILE
================================================================================
NAME = Ne_pc-3_.inp
|  1> ! LDA pc-3 nori grid5 finalgrid6 verytightscf
|  2> %Pal NProcs 18 End
|  3> 
|  4> *xyz 8 1
|  5> Ne 0.0 0.0 0.0
|  6> **                         ****END OF INPUT****
================================================================================

                       ****************************
                       * Single Point Calculation *
                       ****************************

---------------------------------
CARTESIAN COORDINATES (ANGSTROEM)
---------------------------------
  Ne     0.000000    0.000000    0.000000

----------------------------
CARTESIAN COORDINATES (A.U.)
----------------------------
  NO LB      ZA    FRAG     MASS         X           Y           Z
   0 Ne   10.0000    0    20.179    0.000000    0.000000    0.000000

--------------------------------
INTERNAL COORDINATES (ANGSTROEM)
--------------------------------
 Ne     0   0   0     0.000000000000     0.00000000     0.00000000

---------------------------
INTERNAL COORDINATES (A.U.)
---------------------------
 Ne     0   0   0     0.000000000000     0.00000000     0.00000000

---------------------
BASIS SET INFORMATION
---------------------
There are 1 groups of distinct atoms

 Group   1 Type Ne  : 21s9p4d2f1g contracted to 6s5p4d2f1g pattern {981111/51111/1111/11/1}

Atom   0Ne   basis set group =>   1


           ************************************************************
           *        Program running with 18 parallel MPI-processes    *
           *              working on a common directory               *
           ************************************************************
------------------------------------------------------------------------------
                           ORCA GTO INTEGRAL CALCULATION
------------------------------------------------------------------------------

                         BASIS SET STATISTICS AND STARTUP INFO

 # of primitive gaussian shells          ...   37
 # of primitive gaussian functions       ...   91
 # of contracted shells                  ...   18
 # of contracted basis functions         ...   64
 Highest angular momentum                ...    4
 Maximum contraction depth               ...    9
 Integral package used                   ... LIBINT
 Integral threshhold            Thresh   ...  1.000e-12
 Primitive cut-off              TCut     ...  1.000e-14


------------------------------ INTEGRAL EVALUATION ----------------------------


 * One electron integrals 
 Pre-screening matrix                    ... done
 Shell pair data                         ... done (   0.000 sec)



           ************************************************************
           *        Program running with 18 parallel MPI-processes    *
           *              working on a common directory               *
           ************************************************************
-------------------------------------------------------------------------------
                                 ORCA SCF
-------------------------------------------------------------------------------

------------
SCF SETTINGS
------------
Hamiltonian:
 Density Functional     Method          .... DFT(GTOs)
 Exchange Functional    Exchange        .... Slater
   X-Alpha parameter    XAlpha          ....  0.666667
 Correlation Functional Correlation     .... VWN-5
 Gradients option       PostSCFGGA      .... off
   Density functional embedding theory  .... OFF


General Settings:
 Integral files         IntName         .... Ne_pc-3_
 Hartree-Fock type      HFTyp           .... RHF
 Total Charge           Charge          ....    8
 Multiplicity           Mult            ....    1
 Number of Electrons    NEL             ....    2
 Basis Dimension        Dim             ....   64
 Nuclear Repulsion      ENuc            ....      0.0000000000 Eh

Convergence Acceleration:
 DIIS                   CNVDIIS         .... on
   Start iteration      DIISMaxIt       ....    12
   Startup error        DIISStart       ....  0.200000
   # of expansion vecs  DIISMaxEq       ....     5
   Bias factor          DIISBfac        ....   1.050
   Max. coefficient     DIISMaxC        ....  10.000
 Newton-Raphson         CNVNR           .... off
 SOSCF                  CNVSOSCF        .... on
   Start iteration      SOSCFMaxIt      ....   150
   Startup grad/error   SOSCFStart      ....  0.003300
 Level Shifting         CNVShift        .... on
   Level shift para.    LevelShift      ....    0.2500
   Turn off err/grad.   ShiftErr        ....    0.0010
 Zerner damping         CNVZerner       .... off
 Static damping         CNVDamp         .... on
   Fraction old density DampFac         ....    0.7000
   Max. Damping (<1)    DampMax         ....    0.9800
   Min. Damping (>=0)   DampMin         ....    0.0000
   Turn off err/grad.   DampErr         ....    0.1000
 Fernandez-Rico         CNVRico         .... off

SCF Procedure:
 Maximum # iterations   MaxIter         ....   125
 SCF integral mode      SCFMode         .... Direct
   Integral package                     .... LIBINT
 Reset frequency        DirectResetFreq ....    20
 Integral Threshold     Thresh          ....  1.000e-12 Eh
 Primitive CutOff       TCut            ....  1.000e-14 Eh

Convergence Tolerance:
 Convergence Check Mode ConvCheckMode   .... Total+1el-Energy
 Convergence forced     ConvForced      .... 0
 Energy Change          TolE            ....  1.000e-09 Eh
 1-El. energy change                    ....  1.000e-06 Eh
 Orbital Gradient       TolG            ....  2.000e-06
 Orbital Rotation angle TolX            ....  2.000e-06
 DIIS Error             TolErr          ....  1.000e-08


Diagonalization of the overlap matrix:
Smallest eigenvalue                        ... 8.016e-03
Time for diagonalization                   ...    0.001 sec
Threshold for overlap eigenvalues          ... 1.000e-08
Number of eigenvalues below threshold      ... 0
Time for construction of square roots      ...    0.001 sec
Total time needed                          ...    0.002 sec

-------------------
DFT GRID GENERATION
-------------------

General Integration Accuracy     IntAcc      ...  5.010
Radial Grid Type                 RadialGrid  ... Gauss-Chebyshev
Angular Grid (max. acc.)         AngularGrid ... Lebedev-434
Angular grid pruning method      GridPruning ... 3 (G Style)
Weight generation scheme         WeightScheme... Becke
Basis function cutoff            BFCut       ...    1.0000e-12
Integration weight cutoff        WCut        ...    1.0000e-14
Grids for H and He will be reduced by one unit

# of grid points (after initial pruning)     ...  10818 (   0.0 sec)
# of grid points (after weights+screening)   ...  10818 (   0.0 sec)
Grid point division into batches done        ...    0.1 sec
Reduced shell lists constructed in    0.1 sec

Total number of grid points                  ...    10818
Total number of batches                      ...      170
Average number of points per batch           ...       63
Average number of grid points per atom       ...    10818
Average number of shells per batch           ...     0.36 ( 2.02%)
Average number of basis functions per batch  ...     1.09 ( 1.70%)
Average number of large shells per batch     ...     0.36 (100.00%)
Average number of large basis fcns per batch ...     1.09 (100.00%)
Maximum spatial batch extension              ...  16.29, 16.29, 16.29 au
Average spatial batch extension              ...   0.85,  0.86,  0.85 au

Time for grid setup =    0.133 sec

------------------------------
INITIAL GUESS: MODEL POTENTIAL
------------------------------
Loading Hartree-Fock densities                     ... done
Calculating cut-offs                               ... done
Setting up the integral package                    ... done
Initializing the effective Hamiltonian             ... done
Starting the Coulomb interaction                   ... done (   0.0 sec)
Reading the grid                                   ... done
Mapping shells                                     ... done
Starting the XC term evaluation                    ... done (   0.0 sec)
  promolecular density results
     # of electrons  =     10.000000232
     EX              =    -11.033501327
     EC              =     -0.746381123
     EX+EC           =    -11.779882450
Transforming the Hamiltonian                       ... done (   0.0 sec)
Diagonalizing the Hamiltonian                      ... done (   0.0 sec)
Back transforming the eigenvectors                 ... done (   0.0 sec)
Now organizing SCF variables                       ... done
                      ------------------
                      INITIAL GUESS DONE (   0.2 sec)
                      ------------------
--------------
SCF ITERATIONS
--------------
ITER       Energy         Delta-E        Max-DP      RMS-DP      [F,P]     Damp
               ***  Starting incremental Fock matrix formation  ***
  0    -93.2004486953   0.000000000000 0.00686179  0.00017734  0.8572399 0.7000
  1    -93.2041918201  -0.003743124810 0.00480755  0.00012389  0.5902943 0.7000
  2    -93.2067577224  -0.002565902264 0.00333689  0.00008579  0.4053151 0.7000
  3    -93.2085284411  -0.001770718689 0.00231631  0.00005944  0.2783392 0.7000
                               ***Turning on DIIS***
  4    -93.2097560840  -0.001227642905 0.00160813  0.00004120  0.1911689 0.7000
  5    -93.2106098970  -0.000853813023 0.00110366  0.00002820  0.1313153 0.7000
  6    -93.2112049752  -0.000595078153 0.00255831  0.00006532  0.0913547 0.0000
                      *** Initiating the SOSCF procedure ***
                           *** Shutting down DIIS ***
                      *** Re-Reading the Fockian *** 
                      *** Removing any level shift *** 
ITER      Energy       Delta-E        Grad      Rot      Max-DP    RMS-DP
  7    -93.21258595  -0.0013809751  0.000281  0.000281  0.000017  0.000000
               *** Restarting incremental Fock matrix formation ***
  8    -93.21258595  -0.0000000034  0.000005  0.000000  0.000000  0.000000
                 **** Energy Check signals convergence ****
              ***Rediagonalizing the Fockian in SOSCF/NRSCF***

               *****************************************************
               *                     SUCCESS                       *
               *           SCF CONVERGED AFTER   9 CYCLES          *
               *****************************************************

Setting up the final grid:

General Integration Accuracy     IntAcc      ...  5.340
Radial Grid Type                 RadialGrid  ... Gauss-Chebyshev
Angular Grid (max. acc.)         AngularGrid ... Lebedev-590
Angular grid pruning method      GridPruning ... 3 (G Style)
Weight generation scheme         WeightScheme... Becke
Basis function cutoff            BFCut       ...    1.0000e-12
Integration weight cutoff        WCut        ...    1.0000e-14
Grids for H and He will be reduced by one unit

# of grid points (after initial pruning)     ...  16840 (   0.0 sec)
# of grid points (after weights+screening)   ...  16840 (   0.0 sec)
Grid point division into batches done        ...    0.2 sec
Reduced shell lists constructed in    0.2 sec

Total number of grid points                  ...    16840
Total number of batches                      ...      264
Average number of points per batch           ...       63
Average number of grid points per atom       ...    16840
Average number of shells per batch           ...     0.00 ( 0.00%)
Average number of basis functions per batch  ...     0.00 ( 0.00%)
Average number of large shells per batch     ...     0.00 ( -nan%)
Average number of large basis fcns per batch ...     0.00 ( -nan%)
Maximum spatial batch extension              ...  16.63, 16.63, 16.63 au
Average spatial batch extension              ...   0.74,  0.74,  0.69 au

Final grid set up in    0.2 sec
Final integration                            ... done (   0.0 sec)
Change in XC energy                          ...     0.000000130
Integrated number of electrons               ...     1.999999996
Previous integrated no of electrons          ...     2.000000016

----------------
TOTAL SCF ENERGY
----------------

Total Energy       :          -93.21258582 Eh           -2536.44341 eV

Components:
Nuclear Repulsion  :            0.00000000 Eh               0.00000 eV
Electronic Energy  :          -93.21258582 Eh           -2536.44341 eV
One Electron Energy:          -99.85130113 Eh           -2717.09204 eV
Two Electron Energy:            6.63871530 Eh             180.64863 eV

Virial components:
Potential Energy   :         -186.28376524 Eh           -5069.03896 eV
Kinetic Energy     :           93.07117942 Eh            2532.59555 eV
Virial Ratio       :            2.00151934


DFT components:
N(Alpha)           :        0.999999997849 electrons
N(Beta)            :        0.999999997849 electrons
N(Total)           :        1.999999995697 electrons
E(X)               :       -5.145301742623 Eh       
E(C)               :       -0.202670900160 Eh       
E(XC)              :       -5.347972642783 Eh       
DFET-embed. en.    :        0.000000000000 Eh       

---------------
SCF CONVERGENCE
---------------

  Last Energy change         ...   -1.1795e-12  Tolerance :   1.0000e-09
  Last MAX-Density change    ...    1.5742e-08  Tolerance :   1.0000e-08
  Last RMS-Density change    ...    2.9900e-10  Tolerance :   1.0000e-09
  Last Orbital Gradient      ...    2.7929e-07  Tolerance :   2.0000e-06
  Last Orbital Rotation      ...    3.6078e-09  Tolerance :   2.0000e-06

             **** THE GBW FILE WAS UPDATED (Ne_pc-3_.gbw) ****
             **** DENSITY FILE WAS UPDATED (Ne_pc-3_.scfp) ****
             **** ENERGY FILE WAS UPDATED (Ne_pc-3_.en.tmp) ****
             **** THE GBW FILE WAS UPDATED (Ne_pc-3_.gbw) ****
             **** DENSITY FILE WAS UPDATED (Ne_pc-3_.scfp) ****
----------------
ORBITAL ENERGIES
----------------

  NO   OCC          E(Eh)            E(eV) 
   0   2.0000     -41.479706     -1128.7202 
   1   0.0000      -9.049572      -246.2514 
   2   0.0000      -8.613517      -234.3857 
   3   0.0000      -8.613517      -234.3857 
   4   0.0000      -8.613517      -234.3857 
   5   0.0000      -3.830898      -104.2440 
   6   0.0000      -3.701846      -100.7323 
   7   0.0000      -3.701846      -100.7323 
   8   0.0000      -3.701846      -100.7323 
   9   0.0000      -3.598059       -97.9082 
  10   0.0000      -3.598059       -97.9082 
  11   0.0000      -3.598059       -97.9082 
  12   0.0000      -3.598059       -97.9082 
  13   0.0000      -3.598059       -97.9082 
  14   0.0000      -2.045971       -55.6737 
  15   0.0000      -2.045971       -55.6737 
  16   0.0000      -2.045971       -55.6737 
  17   0.0000      -1.833903       -49.9030 
  18   0.0000      -1.822254       -49.5861 
  19   0.0000      -1.822254       -49.5861 
  20   0.0000      -1.822254       -49.5861 
  21   0.0000      -1.822254       -49.5861 
  22   0.0000      -1.822254       -49.5861 
  23   0.0000      -1.101743       -29.9800 
  24   0.0000      -1.101743       -29.9800 
  25   0.0000      -1.101743       -29.9800 
  26   0.0000      -1.101743       -29.9800 
  27   0.0000      -1.101743       -29.9800 
  28   0.0000      -1.101743       -29.9800 
  29   0.0000      -1.101743       -29.9800 
  30   0.0000      -0.965426       -26.2706 
  31   0.0000      -0.965426       -26.2706 
  32   0.0000      -0.965426       -26.2706 
  33   0.0000       2.461050        66.9686 
  34   0.0000       2.461050        66.9686 
  35   0.0000       2.461050        66.9686 
  36   0.0000       2.461050        66.9686 
  37   0.0000       2.461050        66.9686 
  38   0.0000       2.919633        79.4473 
  39   0.0000       2.919633        79.4473 
  40   0.0000       2.919633        79.4473 
  41   0.0000       2.919633        79.4473 
  42   0.0000       2.919633        79.4473 
  43   0.0000       2.919633        79.4473 
  44   0.0000       2.919633        79.4473 
  45   0.0000       2.919633        79.4473 
  46   0.0000       2.919633        79.4473 
  47   0.0000       5.196040       141.3914 
  48   0.0000       5.276953       143.5932 
  49   0.0000       5.276953       143.5932 
  50   0.0000       5.276953       143.5932 
  51   0.0000       5.276953       143.5932 
  52   0.0000       5.276953       143.5932 
  53   0.0000       5.276953       143.5932 
  54   0.0000       5.276953       143.5932 
  55   0.0000       5.783765       157.3842 
  56   0.0000       5.783765       157.3842 
  57   0.0000       5.783765       157.3842 
  58   0.0000      21.564119       586.7895 
  59   0.0000      21.564119       586.7895 
  60   0.0000      21.564119       586.7895 
  61   0.0000      21.564119       586.7895 
  62   0.0000      21.564119       586.7895 
  63   0.0000      77.706679      2114.5062 

                    ********************************
                    * MULLIKEN POPULATION ANALYSIS *
                    ********************************

-----------------------
MULLIKEN ATOMIC CHARGES
-----------------------
   0 Ne:    8.000000
Sum of atomic charges:    8.0000000

--------------------------------
MULLIKEN REDUCED ORBITAL CHARGES
--------------------------------
  0 Nes       :     2.000000  s :     2.000000
      pz      :     0.000000  p :     0.000000
      px      :     0.000000
      py      :     0.000000
      dz2     :     0.000000  d :     0.000000
      dxz     :     0.000000
      dyz     :     0.000000
      dx2y2   :     0.000000
      dxy     :     0.000000
      f0      :     0.000000  f :     0.000000
      f+1     :     0.000000
      f-1     :     0.000000
      f+2     :     0.000000
      f-2     :     0.000000
      f+3     :     0.000000
      f-3     :     0.000000
      g0      :     0.000000  g :     0.000000
      g+1     :     0.000000
      g-1     :     0.000000
      g+2     :     0.000000
      g-2     :     0.000000
      g+3     :     0.000000
      g-3     :     0.000000
      g+4     :     0.000000
      g-4     :     0.000000


                     *******************************
                     * LOEWDIN POPULATION ANALYSIS *
                     *******************************

----------------------
LOEWDIN ATOMIC CHARGES
----------------------
   0 Ne:    8.000000

-------------------------------
LOEWDIN REDUCED ORBITAL CHARGES
-------------------------------
  0 Nes       :     2.000000  s :     2.000000
      pz      :     0.000000  p :     0.000000
      px      :     0.000000
      py      :     0.000000
      dz2     :     0.000000  d :     0.000000
      dxz     :     0.000000
      dyz     :     0.000000
      dx2y2   :     0.000000
      dxy     :     0.000000
      f0      :     0.000000  f :     0.000000
      f+1     :     0.000000
      f-1     :     0.000000
      f+2     :     0.000000
      f-2     :     0.000000
      f+3     :     0.000000
      f-3     :     0.000000
      g0      :     0.000000  g :     0.000000
      g+1     :     0.000000
      g-1     :     0.000000
      g+2     :     0.000000
      g-2     :     0.000000
      g+3     :     0.000000
      g-3     :     0.000000
      g+4     :     0.000000
      g-4     :     0.000000


                      *****************************
                      * MAYER POPULATION ANALYSIS *
                      *****************************

  NA   - Mulliken gross atomic population
  ZA   - Total nuclear charge
  QA   - Mulliken gross atomic charge
  VA   - Mayer's total valence
  BVA  - Mayer's bonded valence
  FA   - Mayer's free valence

  ATOM       NA         ZA         QA         VA         BVA        FA
  0 Ne     2.0000    10.0000     8.0000     0.0000     0.0000     0.0000

  Mayer bond orders larger than 0.100000


--------------------------
ATOM BASIS FOR ELEMENT Ne
--------------------------
 NewGTO Ne
 S 21
    1     270660.000000000000         0.000024926270
    2      40541.000000000000         0.000193531041
    3       9226.500000000000         0.001017107803
    4       2613.200000000000         0.004256563062
    5        852.390000000000         0.015182128195
    6        307.610000000000         0.046225083026
    7        119.760000000000         0.117210461001
    8         49.437000000000         0.216107662340
    9         21.369000000000         0.233165109918
   10       9226.500000000000         0.000000428194
   11       2613.200000000000         0.000018150875
   12        852.390000000000         0.000123577468
   13        307.610000000000         0.001290805423
   14        119.760000000000         0.007796353503
   15         49.437000000000         0.043803414491
   16         21.369000000000         0.142093227820
   17          9.392100000000         0.284669878562
   18          3.983200000000         0.035925752014
   19          1.688700000000         0.003479627680
   20          0.680300000000        -0.002109762621
   21          0.260240000000         0.000641396485
 S 21
    1     270660.000000000000         0.000008087600
    2      40541.000000000000         0.000062793253
    3       9226.500000000000         0.000330011702
    4       2613.200000000000         0.001381088233
    5        852.390000000000         0.004926006805
    6        307.610000000000         0.014998231513
    7        119.760000000000         0.038030210327
    8         49.437000000000         0.070118484152
    9         21.369000000000         0.075652958750
   10       9226.500000000000         0.000000347969
   11       2613.200000000000         0.000014750223
   12        852.390000000000         0.000100424645
   13        307.610000000000         0.001048966929
   14        119.760000000000         0.006335669842
   15         49.437000000000         0.035596637847
   16         21.369000000000         0.115471390302
   17          9.392100000000         0.231335631958
   18          3.983200000000        -0.236781096490
   19          1.688700000000        -0.786119895514
   20          0.680300000000        -0.185686684747
   21          0.260240000000         0.010805614525
 S 21
    1     270660.000000000000        -0.000004242354
    2      40541.000000000000        -0.000032938230
    3       9226.500000000000        -0.000173107792
    4       2613.200000000000        -0.000724450476
    5        852.390000000000        -0.002583939162
    6        307.610000000000        -0.007867329321
    7        119.760000000000        -0.019948764527
    8         49.437000000000        -0.036780683496
    9         21.369000000000        -0.039683794723
   10       9226.500000000000        -0.000000203530
   11       2613.200000000000        -0.000008627537
   12        852.390000000000        -0.000058739272
   13        307.610000000000        -0.000613550123
   14        119.760000000000        -0.003705789863
   15         49.437000000000        -0.020820791324
   16         21.369000000000        -0.067540247246
   17          9.392100000000        -0.135310276757
   18          3.983200000000         0.139035507901
   19          1.688700000000         1.151043301855
   20          0.680300000000        -0.762395146955
   21          0.260240000000        -0.781334403210
 S 21
    1     270660.000000000000        -0.000004338611
    2      40541.000000000000        -0.000033685583
    3       9226.500000000000        -0.000177035525
    4       2613.200000000000        -0.000740887910
    5        852.390000000000        -0.002642567506
    6        307.610000000000        -0.008045835260
    7        119.760000000000        -0.020401392453
    8         49.437000000000        -0.037615219612
    9         21.369000000000        -0.040584201044
   10       9226.500000000000        -0.000000174256
   11       2613.200000000000        -0.000007386621
   12        852.390000000000        -0.000050290686
   13        307.610000000000        -0.000525301991
   14        119.760000000000        -0.003172778752
   15         49.437000000000        -0.017826095588
   16         21.369000000000        -0.057825799449
   17          9.392100000000        -0.115848331123
   18          3.983200000000        -0.055964103612
   19          1.688700000000         2.332786727612
   20          0.680300000000        -4.025264493512
   21          0.260240000000         2.323055191270
 S 21
    1     270660.000000000000        -0.000005868110
    2      40541.000000000000        -0.000045560823
    3       9226.500000000000        -0.000239446184
    4       2613.200000000000        -0.001002074487
    5        852.390000000000        -0.003574156686
    6        307.610000000000        -0.010882248355
    7        119.760000000000        -0.027593532837
    8         49.437000000000        -0.050875782129
    9         21.369000000000        -0.054891424042
   10       9226.500000000000        -0.000001077993
   11       2613.200000000000        -0.000045695487
   12        852.390000000000        -0.000311110759
   13        307.610000000000        -0.003249649491
   14        119.760000000000        -0.019627602840
   15         49.437000000000        -0.110276685423
   16         21.369000000000        -0.357724857000
   17          9.392100000000        -0.716666748747
   18          3.983200000000         4.560623443970
   19          1.688700000000        -5.909320935241
   20          0.680300000000         3.664854275724
   21          0.260240000000        -1.117401590298
 S 21
    1     270660.000000000000         0.000112233796
    2      40541.000000000000         0.000871398857
    3       9226.500000000000         0.004579661092
    4       2613.200000000000         0.019165732653
    5        852.390000000000         0.068359520553
    6        307.610000000000         0.208134490280
    7        119.760000000000         0.527755451345
    8         49.437000000000         0.973053052629
    9         21.369000000000         1.049856444310
   10       9226.500000000000        -0.000004093872
   11       2613.200000000000        -0.000173536883
   12        852.390000000000        -0.001181499426
   13        307.610000000000        -0.012341132210
   14        119.760000000000        -0.074539374874
   15         49.437000000000        -0.418795675734
   16         21.369000000000        -1.358524901615
   17          9.392100000000        -2.721671712995
   18          3.983200000000         4.175630836547
   19          1.688700000000        -3.171538589765
   20          0.680300000000         1.540407320748
   21          0.260240000000        -0.432144697931
 P 9
    1        443.450000000000         0.001037077589
    2        104.820000000000         0.008714426909
    3         33.255000000000         0.045042724764
    4         12.548000000000         0.146730545892
    5          5.142100000000         0.361663252735
    6          2.178300000000         0.478862470513
    7          0.906450000000         0.131523737118
    8          0.359940000000        -0.001808334405
    9          0.135150000000         0.000485319073
 P 9
    1        443.450000000000         0.000652345720
    2        104.820000000000         0.005481575493
    3         33.255000000000         0.028332912628
    4         12.548000000000         0.092296897187
    5          5.142100000000         0.227494526454
    6          2.178300000000         0.367395931495
    7          0.906450000000        -0.568556256509
    8          0.359940000000        -0.659334020462
    9          0.135150000000         0.017798228651
 P 9
    1        443.450000000000         0.000432768902
    2        104.820000000000         0.003636500302
    3         33.255000000000         0.018796173737
    4         12.548000000000         0.061230150875
    5          5.142100000000         0.150920828355
    6          2.178300000000         0.308832358049
    7          0.906450000000        -0.882841721054
    8          0.359940000000        -0.066881340686
    9          0.135150000000         1.084229592574
 P 9
    1        443.450000000000        -0.000603512151
    2        104.820000000000        -0.005071233418
    3         33.255000000000        -0.026211955580
    4         12.548000000000        -0.085387697376
    5          5.142100000000        -0.210464645850
    6          2.178300000000        -0.613040836315
    7          0.906450000000         2.396400099369
    8          0.359940000000        -2.795319631315
    9          0.135150000000         1.440384430537
 P 9
    1        443.450000000000         0.003012224191
    2        104.820000000000         0.025311324654
    3         33.255000000000         0.130827998406
    4         12.548000000000         0.426183445267
    5          5.142100000000         1.050462193401
    6          2.178300000000        -2.878032632867
    7          0.906450000000         2.636110812540
    8          0.359940000000        -1.404308804808
    9          0.135150000000         0.442016046273
 D 4
    1         10.000000000000         0.033388909219
    2          3.000000000000         0.186156260500
    3          1.150000000000         0.599506699692
    4          0.400000000000         0.366165910713
 D 4
    1         10.000000000000         0.040177907776
    2          3.000000000000         0.193402649301
    3          1.150000000000         0.801252592343
    4          0.400000000000        -1.166810378361
 D 4
    1         10.000000000000         0.041316573070
    2          3.000000000000         1.393381528617
    3          1.150000000000        -1.534953877961
    4          0.400000000000         0.643044334849
 D 4
    1         10.000000000000         1.278959216309
    2          3.000000000000        -1.167413670781
    3          1.150000000000         0.680795636761
    4          0.400000000000        -0.221573130895
 F 2
    1          2.800000000000        -0.032763551245
    2          1.150000000000         1.020971803153
 F 2
    1          2.800000000000         1.314854191961
    2          1.150000000000        -0.829175236953
 G 1
    1          1.800000000000         1.000000000000
 end
  // -----------------------------------------------
  // The basis set
  // -----------------------------------------------
  BAS[ATNO] = new BFNGauss[NSH];
  // Basis function   1 L = s
  InitBFNGauss(BAS[ATNO][  0]);
  BAS[ATNO][  0].l  = 0;
  BAS[ATNO][  0].ng = 21;
  BAS[ATNO][  0].a[  0] =    270660.000000000000;     BAS[ATNO][  0].d[  0] =         0.000024926270;
  BAS[ATNO][  0].a[  1] =     40541.000000000000;     BAS[ATNO][  0].d[  1] =         0.000193531041;
  BAS[ATNO][  0].a[  2] =      9226.500000000000;     BAS[ATNO][  0].d[  2] =         0.001017107803;
  BAS[ATNO][  0].a[  3] =      2613.200000000000;     BAS[ATNO][  0].d[  3] =         0.004256563062;
  BAS[ATNO][  0].a[  4] =       852.390000000000;     BAS[ATNO][  0].d[  4] =         0.015182128195;
  BAS[ATNO][  0].a[  5] =       307.610000000000;     BAS[ATNO][  0].d[  5] =         0.046225083026;
  BAS[ATNO][  0].a[  6] =       119.760000000000;     BAS[ATNO][  0].d[  6] =         0.117210461001;
  BAS[ATNO][  0].a[  7] =        49.437000000000;     BAS[ATNO][  0].d[  7] =         0.216107662340;
  BAS[ATNO][  0].a[  8] =        21.369000000000;     BAS[ATNO][  0].d[  8] =         0.233165109918;
  BAS[ATNO][  0].a[  9] =      9226.500000000000;     BAS[ATNO][  0].d[  9] =         0.000000428194;
  BAS[ATNO][  0].a[ 10] =      2613.200000000000;     BAS[ATNO][  0].d[ 10] =         0.000018150875;
  BAS[ATNO][  0].a[ 11] =       852.390000000000;     BAS[ATNO][  0].d[ 11] =         0.000123577468;
  BAS[ATNO][  0].a[ 12] =       307.610000000000;     BAS[ATNO][  0].d[ 12] =         0.001290805423;
  BAS[ATNO][  0].a[ 13] =       119.760000000000;     BAS[ATNO][  0].d[ 13] =         0.007796353503;
  BAS[ATNO][  0].a[ 14] =        49.437000000000;     BAS[ATNO][  0].d[ 14] =         0.043803414491;
  BAS[ATNO][  0].a[ 15] =        21.369000000000;     BAS[ATNO][  0].d[ 15] =         0.142093227820;
  BAS[ATNO][  0].a[ 16] =         9.392100000000;     BAS[ATNO][  0].d[ 16] =         0.284669878562;
  BAS[ATNO][  0].a[ 17] =         3.983200000000;     BAS[ATNO][  0].d[ 17] =         0.035925752014;
  BAS[ATNO][  0].a[ 18] =         1.688700000000;     BAS[ATNO][  0].d[ 18] =         0.003479627680;
  BAS[ATNO][  0].a[ 19] =         0.680300000000;     BAS[ATNO][  0].d[ 19] =        -0.002109762621;
  BAS[ATNO][  0].a[ 20] =         0.260240000000;     BAS[ATNO][  0].d[ 20] =         0.000641396485;

  // Basis function   2 L = s
  InitBFNGauss(BAS[ATNO][  1]);
  BAS[ATNO][  1].l  = 0;
  BAS[ATNO][  1].ng = 21;
  BAS[ATNO][  1].a[  0] =    270660.000000000000;     BAS[ATNO][  1].d[  0] =        -0.000008087600;
  BAS[ATNO][  1].a[  1] =     40541.000000000000;     BAS[ATNO][  1].d[  1] =        -0.000062793253;
  BAS[ATNO][  1].a[  2] =      9226.500000000000;     BAS[ATNO][  1].d[  2] =        -0.000330011702;
  BAS[ATNO][  1].a[  3] =      2613.200000000000;     BAS[ATNO][  1].d[  3] =        -0.001381088233;
  BAS[ATNO][  1].a[  4] =       852.390000000000;     BAS[ATNO][  1].d[  4] =        -0.004926006805;
  BAS[ATNO][  1].a[  5] =       307.610000000000;     BAS[ATNO][  1].d[  5] =        -0.014998231513;
  BAS[ATNO][  1].a[  6] =       119.760000000000;     BAS[ATNO][  1].d[  6] =        -0.038030210327;
  BAS[ATNO][  1].a[  7] =        49.437000000000;     BAS[ATNO][  1].d[  7] =        -0.070118484152;
  BAS[ATNO][  1].a[  8] =        21.369000000000;     BAS[ATNO][  1].d[  8] =        -0.075652958750;
  BAS[ATNO][  1].a[  9] =      9226.500000000000;     BAS[ATNO][  1].d[  9] =        -0.000000347969;
  BAS[ATNO][  1].a[ 10] =      2613.200000000000;     BAS[ATNO][  1].d[ 10] =        -0.000014750223;
  BAS[ATNO][  1].a[ 11] =       852.390000000000;     BAS[ATNO][  1].d[ 11] =        -0.000100424645;
  BAS[ATNO][  1].a[ 12] =       307.610000000000;     BAS[ATNO][  1].d[ 12] =        -0.001048966929;
  BAS[ATNO][  1].a[ 13] =       119.760000000000;     BAS[ATNO][  1].d[ 13] =        -0.006335669842;
  BAS[ATNO][  1].a[ 14] =        49.437000000000;     BAS[ATNO][  1].d[ 14] =        -0.035596637847;
  BAS[ATNO][  1].a[ 15] =        21.369000000000;     BAS[ATNO][  1].d[ 15] =        -0.115471390302;
  BAS[ATNO][  1].a[ 16] =         9.392100000000;     BAS[ATNO][  1].d[ 16] =        -0.231335631958;
  BAS[ATNO][  1].a[ 17] =         3.983200000000;     BAS[ATNO][  1].d[ 17] =         0.236781096490;
  BAS[ATNO][  1].a[ 18] =         1.688700000000;     BAS[ATNO][  1].d[ 18] =         0.786119895514;
  BAS[ATNO][  1].a[ 19] =         0.680300000000;     BAS[ATNO][  1].d[ 19] =         0.185686684747;
  BAS[ATNO][  1].a[ 20] =         0.260240000000;     BAS[ATNO][  1].d[ 20] =        -0.010805614525;

  // Basis function   3 L = s
  InitBFNGauss(BAS[ATNO][  2]);
  BAS[ATNO][  2].l  = 0;
  BAS[ATNO][  2].ng = 21;
  BAS[ATNO][  2].a[  0] =    270660.000000000000;     BAS[ATNO][  2].d[  0] =        -0.000004242354;
  BAS[ATNO][  2].a[  1] =     40541.000000000000;     BAS[ATNO][  2].d[  1] =        -0.000032938230;
  BAS[ATNO][  2].a[  2] =      9226.500000000000;     BAS[ATNO][  2].d[  2] =        -0.000173107792;
  BAS[ATNO][  2].a[  3] =      2613.200000000000;     BAS[ATNO][  2].d[  3] =        -0.000724450476;
  BAS[ATNO][  2].a[  4] =       852.390000000000;     BAS[ATNO][  2].d[  4] =        -0.002583939162;
  BAS[ATNO][  2].a[  5] =       307.610000000000;     BAS[ATNO][  2].d[  5] =        -0.007867329321;
  BAS[ATNO][  2].a[  6] =       119.760000000000;     BAS[ATNO][  2].d[  6] =        -0.019948764527;
  BAS[ATNO][  2].a[  7] =        49.437000000000;     BAS[ATNO][  2].d[  7] =        -0.036780683496;
  BAS[ATNO][  2].a[  8] =        21.369000000000;     BAS[ATNO][  2].d[  8] =        -0.039683794723;
  BAS[ATNO][  2].a[  9] =      9226.500000000000;     BAS[ATNO][  2].d[  9] =        -0.000000203530;
  BAS[ATNO][  2].a[ 10] =      2613.200000000000;     BAS[ATNO][  2].d[ 10] =        -0.000008627537;
  BAS[ATNO][  2].a[ 11] =       852.390000000000;     BAS[ATNO][  2].d[ 11] =        -0.000058739272;
  BAS[ATNO][  2].a[ 12] =       307.610000000000;     BAS[ATNO][  2].d[ 12] =        -0.000613550123;
  BAS[ATNO][  2].a[ 13] =       119.760000000000;     BAS[ATNO][  2].d[ 13] =        -0.003705789863;
  BAS[ATNO][  2].a[ 14] =        49.437000000000;     BAS[ATNO][  2].d[ 14] =        -0.020820791324;
  BAS[ATNO][  2].a[ 15] =        21.369000000000;     BAS[ATNO][  2].d[ 15] =        -0.067540247246;
  BAS[ATNO][  2].a[ 16] =         9.392100000000;     BAS[ATNO][  2].d[ 16] =        -0.135310276757;
  BAS[ATNO][  2].a[ 17] =         3.983200000000;     BAS[ATNO][  2].d[ 17] =         0.139035507901;
  BAS[ATNO][  2].a[ 18] =         1.688700000000;     BAS[ATNO][  2].d[ 18] =         1.151043301855;
  BAS[ATNO][  2].a[ 19] =         0.680300000000;     BAS[ATNO][  2].d[ 19] =        -0.762395146955;
  BAS[ATNO][  2].a[ 20] =         0.260240000000;     BAS[ATNO][  2].d[ 20] =        -0.781334403210;

  // Basis function   4 L = s
  InitBFNGauss(BAS[ATNO][  3]);
  BAS[ATNO][  3].l  = 0;
  BAS[ATNO][  3].ng = 21;
  BAS[ATNO][  3].a[  0] =    270660.000000000000;     BAS[ATNO][  3].d[  0] =         0.000004338611;
  BAS[ATNO][  3].a[  1] =     40541.000000000000;     BAS[ATNO][  3].d[  1] =         0.000033685583;
  BAS[ATNO][  3].a[  2] =      9226.500000000000;     BAS[ATNO][  3].d[  2] =         0.000177035525;
  BAS[ATNO][  3].a[  3] =      2613.200000000000;     BAS[ATNO][  3].d[  3] =         0.000740887910;
  BAS[ATNO][  3].a[  4] =       852.390000000000;     BAS[ATNO][  3].d[  4] =         0.002642567506;
  BAS[ATNO][  3].a[  5] =       307.610000000000;     BAS[ATNO][  3].d[  5] =         0.008045835260;
  BAS[ATNO][  3].a[  6] =       119.760000000000;     BAS[ATNO][  3].d[  6] =         0.020401392453;
  BAS[ATNO][  3].a[  7] =        49.437000000000;     BAS[ATNO][  3].d[  7] =         0.037615219612;
  BAS[ATNO][  3].a[  8] =        21.369000000000;     BAS[ATNO][  3].d[  8] =         0.040584201044;
  BAS[ATNO][  3].a[  9] =      9226.500000000000;     BAS[ATNO][  3].d[  9] =         0.000000174256;
  BAS[ATNO][  3].a[ 10] =      2613.200000000000;     BAS[ATNO][  3].d[ 10] =         0.000007386621;
  BAS[ATNO][  3].a[ 11] =       852.390000000000;     BAS[ATNO][  3].d[ 11] =         0.000050290686;
  BAS[ATNO][  3].a[ 12] =       307.610000000000;     BAS[ATNO][  3].d[ 12] =         0.000525301991;
  BAS[ATNO][  3].a[ 13] =       119.760000000000;     BAS[ATNO][  3].d[ 13] =         0.003172778752;
  BAS[ATNO][  3].a[ 14] =        49.437000000000;     BAS[ATNO][  3].d[ 14] =         0.017826095588;
  BAS[ATNO][  3].a[ 15] =        21.369000000000;     BAS[ATNO][  3].d[ 15] =         0.057825799449;
  BAS[ATNO][  3].a[ 16] =         9.392100000000;     BAS[ATNO][  3].d[ 16] =         0.115848331123;
  BAS[ATNO][  3].a[ 17] =         3.983200000000;     BAS[ATNO][  3].d[ 17] =         0.055964103612;
  BAS[ATNO][  3].a[ 18] =         1.688700000000;     BAS[ATNO][  3].d[ 18] =        -2.332786727612;
  BAS[ATNO][  3].a[ 19] =         0.680300000000;     BAS[ATNO][  3].d[ 19] =         4.025264493512;
  BAS[ATNO][  3].a[ 20] =         0.260240000000;     BAS[ATNO][  3].d[ 20] =        -2.323055191270;

  // Basis function   5 L = s
  InitBFNGauss(BAS[ATNO][  4]);
  BAS[ATNO][  4].l  = 0;
  BAS[ATNO][  4].ng = 21;
  BAS[ATNO][  4].a[  0] =    270660.000000000000;     BAS[ATNO][  4].d[  0] =         0.000005868110;
  BAS[ATNO][  4].a[  1] =     40541.000000000000;     BAS[ATNO][  4].d[  1] =         0.000045560823;
  BAS[ATNO][  4].a[  2] =      9226.500000000000;     BAS[ATNO][  4].d[  2] =         0.000239446184;
  BAS[ATNO][  4].a[  3] =      2613.200000000000;     BAS[ATNO][  4].d[  3] =         0.001002074487;
  BAS[ATNO][  4].a[  4] =       852.390000000000;     BAS[ATNO][  4].d[  4] =         0.003574156686;
  BAS[ATNO][  4].a[  5] =       307.610000000000;     BAS[ATNO][  4].d[  5] =         0.010882248355;
  BAS[ATNO][  4].a[  6] =       119.760000000000;     BAS[ATNO][  4].d[  6] =         0.027593532837;
  BAS[ATNO][  4].a[  7] =        49.437000000000;     BAS[ATNO][  4].d[  7] =         0.050875782129;
  BAS[ATNO][  4].a[  8] =        21.369000000000;     BAS[ATNO][  4].d[  8] =         0.054891424042;
  BAS[ATNO][  4].a[  9] =      9226.500000000000;     BAS[ATNO][  4].d[  9] =         0.000001077993;
  BAS[ATNO][  4].a[ 10] =      2613.200000000000;     BAS[ATNO][  4].d[ 10] =         0.000045695487;
  BAS[ATNO][  4].a[ 11] =       852.390000000000;     BAS[ATNO][  4].d[ 11] =         0.000311110759;
  BAS[ATNO][  4].a[ 12] =       307.610000000000;     BAS[ATNO][  4].d[ 12] =         0.003249649491;
  BAS[ATNO][  4].a[ 13] =       119.760000000000;     BAS[ATNO][  4].d[ 13] =         0.019627602840;
  BAS[ATNO][  4].a[ 14] =        49.437000000000;     BAS[ATNO][  4].d[ 14] =         0.110276685423;
  BAS[ATNO][  4].a[ 15] =        21.369000000000;     BAS[ATNO][  4].d[ 15] =         0.357724857000;
  BAS[ATNO][  4].a[ 16] =         9.392100000000;     BAS[ATNO][  4].d[ 16] =         0.716666748747;
  BAS[ATNO][  4].a[ 17] =         3.983200000000;     BAS[ATNO][  4].d[ 17] =        -4.560623443970;
  BAS[ATNO][  4].a[ 18] =         1.688700000000;     BAS[ATNO][  4].d[ 18] =         5.909320935241;
  BAS[ATNO][  4].a[ 19] =         0.680300000000;     BAS[ATNO][  4].d[ 19] =        -3.664854275724;
  BAS[ATNO][  4].a[ 20] =         0.260240000000;     BAS[ATNO][  4].d[ 20] =         1.117401590298;

  // Basis function   6 L = s
  InitBFNGauss(BAS[ATNO][  5]);
  BAS[ATNO][  5].l  = 0;
  BAS[ATNO][  5].ng = 21;
  BAS[ATNO][  5].a[  0] =    270660.000000000000;     BAS[ATNO][  5].d[  0] =         0.000112233796;
  BAS[ATNO][  5].a[  1] =     40541.000000000000;     BAS[ATNO][  5].d[  1] =         0.000871398857;
  BAS[ATNO][  5].a[  2] =      9226.500000000000;     BAS[ATNO][  5].d[  2] =         0.004579661092;
  BAS[ATNO][  5].a[  3] =      2613.200000000000;     BAS[ATNO][  5].d[  3] =         0.019165732653;
  BAS[ATNO][  5].a[  4] =       852.390000000000;     BAS[ATNO][  5].d[  4] =         0.068359520553;
  BAS[ATNO][  5].a[  5] =       307.610000000000;     BAS[ATNO][  5].d[  5] =         0.208134490280;
  BAS[ATNO][  5].a[  6] =       119.760000000000;     BAS[ATNO][  5].d[  6] =         0.527755451345;
  BAS[ATNO][  5].a[  7] =        49.437000000000;     BAS[ATNO][  5].d[  7] =         0.973053052629;
  BAS[ATNO][  5].a[  8] =        21.369000000000;     BAS[ATNO][  5].d[  8] =         1.049856444310;
  BAS[ATNO][  5].a[  9] =      9226.500000000000;     BAS[ATNO][  5].d[  9] =        -0.000004093872;
  BAS[ATNO][  5].a[ 10] =      2613.200000000000;     BAS[ATNO][  5].d[ 10] =        -0.000173536883;
  BAS[ATNO][  5].a[ 11] =       852.390000000000;     BAS[ATNO][  5].d[ 11] =        -0.001181499426;
  BAS[ATNO][  5].a[ 12] =       307.610000000000;     BAS[ATNO][  5].d[ 12] =        -0.012341132210;
  BAS[ATNO][  5].a[ 13] =       119.760000000000;     BAS[ATNO][  5].d[ 13] =        -0.074539374874;
  BAS[ATNO][  5].a[ 14] =        49.437000000000;     BAS[ATNO][  5].d[ 14] =        -0.418795675734;
  BAS[ATNO][  5].a[ 15] =        21.369000000000;     BAS[ATNO][  5].d[ 15] =        -1.358524901615;
  BAS[ATNO][  5].a[ 16] =         9.392100000000;     BAS[ATNO][  5].d[ 16] =        -2.721671712995;
  BAS[ATNO][  5].a[ 17] =         3.983200000000;     BAS[ATNO][  5].d[ 17] =         4.175630836547;
  BAS[ATNO][  5].a[ 18] =         1.688700000000;     BAS[ATNO][  5].d[ 18] =        -3.171538589765;
  BAS[ATNO][  5].a[ 19] =         0.680300000000;     BAS[ATNO][  5].d[ 19] =         1.540407320748;
  BAS[ATNO][  5].a[ 20] =         0.260240000000;     BAS[ATNO][  5].d[ 20] =        -0.432144697931;

  // Basis function   7 L = p
  InitBFNGauss(BAS[ATNO][  6]);
  BAS[ATNO][  6].l  = 1;
  BAS[ATNO][  6].ng = 9;
  BAS[ATNO][  6].a[  0] =       443.450000000000;     BAS[ATNO][  6].d[  0] =         0.001037077589;
  BAS[ATNO][  6].a[  1] =       104.820000000000;     BAS[ATNO][  6].d[  1] =         0.008714426909;
  BAS[ATNO][  6].a[  2] =        33.255000000000;     BAS[ATNO][  6].d[  2] =         0.045042724764;
  BAS[ATNO][  6].a[  3] =        12.548000000000;     BAS[ATNO][  6].d[  3] =         0.146730545892;
  BAS[ATNO][  6].a[  4] =         5.142100000000;     BAS[ATNO][  6].d[  4] =         0.361663252735;
  BAS[ATNO][  6].a[  5] =         2.178300000000;     BAS[ATNO][  6].d[  5] =         0.478862470513;
  BAS[ATNO][  6].a[  6] =         0.906450000000;     BAS[ATNO][  6].d[  6] =         0.131523737118;
  BAS[ATNO][  6].a[  7] =         0.359940000000;     BAS[ATNO][  6].d[  7] =        -0.001808334405;
  BAS[ATNO][  6].a[  8] =         0.135150000000;     BAS[ATNO][  6].d[  8] =         0.000485319073;

  // Basis function   8 L = p
  InitBFNGauss(BAS[ATNO][  7]);
  BAS[ATNO][  7].l  = 1;
  BAS[ATNO][  7].ng = 9;
  BAS[ATNO][  7].a[  0] =       443.450000000000;     BAS[ATNO][  7].d[  0] =        -0.000652345720;
  BAS[ATNO][  7].a[  1] =       104.820000000000;     BAS[ATNO][  7].d[  1] =        -0.005481575493;
  BAS[ATNO][  7].a[  2] =        33.255000000000;     BAS[ATNO][  7].d[  2] =        -0.028332912628;
  BAS[ATNO][  7].a[  3] =        12.548000000000;     BAS[ATNO][  7].d[  3] =        -0.092296897187;
  BAS[ATNO][  7].a[  4] =         5.142100000000;     BAS[ATNO][  7].d[  4] =        -0.227494526454;
  BAS[ATNO][  7].a[  5] =         2.178300000000;     BAS[ATNO][  7].d[  5] =        -0.367395931495;
  BAS[ATNO][  7].a[  6] =         0.906450000000;     BAS[ATNO][  7].d[  6] =         0.568556256509;
  BAS[ATNO][  7].a[  7] =         0.359940000000;     BAS[ATNO][  7].d[  7] =         0.659334020462;
  BAS[ATNO][  7].a[  8] =         0.135150000000;     BAS[ATNO][  7].d[  8] =        -0.017798228651;

  // Basis function   9 L = p
  InitBFNGauss(BAS[ATNO][  8]);
  BAS[ATNO][  8].l  = 1;
  BAS[ATNO][  8].ng = 9;
  BAS[ATNO][  8].a[  0] =       443.450000000000;     BAS[ATNO][  8].d[  0] =         0.000432768902;
  BAS[ATNO][  8].a[  1] =       104.820000000000;     BAS[ATNO][  8].d[  1] =         0.003636500302;
  BAS[ATNO][  8].a[  2] =        33.255000000000;     BAS[ATNO][  8].d[  2] =         0.018796173737;
  BAS[ATNO][  8].a[  3] =        12.548000000000;     BAS[ATNO][  8].d[  3] =         0.061230150875;
  BAS[ATNO][  8].a[  4] =         5.142100000000;     BAS[ATNO][  8].d[  4] =         0.150920828355;
  BAS[ATNO][  8].a[  5] =         2.178300000000;     BAS[ATNO][  8].d[  5] =         0.308832358049;
  BAS[ATNO][  8].a[  6] =         0.906450000000;     BAS[ATNO][  8].d[  6] =        -0.882841721054;
  BAS[ATNO][  8].a[  7] =         0.359940000000;     BAS[ATNO][  8].d[  7] =        -0.066881340686;
  BAS[ATNO][  8].a[  8] =         0.135150000000;     BAS[ATNO][  8].d[  8] =         1.084229592574;

  // Basis function  10 L = p
  InitBFNGauss(BAS[ATNO][  9]);
  BAS[ATNO][  9].l  = 1;
  BAS[ATNO][  9].ng = 9;
  BAS[ATNO][  9].a[  0] =       443.450000000000;     BAS[ATNO][  9].d[  0] =         0.000603512151;
  BAS[ATNO][  9].a[  1] =       104.820000000000;     BAS[ATNO][  9].d[  1] =         0.005071233418;
  BAS[ATNO][  9].a[  2] =        33.255000000000;     BAS[ATNO][  9].d[  2] =         0.026211955580;
  BAS[ATNO][  9].a[  3] =        12.548000000000;     BAS[ATNO][  9].d[  3] =         0.085387697376;
  BAS[ATNO][  9].a[  4] =         5.142100000000;     BAS[ATNO][  9].d[  4] =         0.210464645850;
  BAS[ATNO][  9].a[  5] =         2.178300000000;     BAS[ATNO][  9].d[  5] =         0.613040836315;
  BAS[ATNO][  9].a[  6] =         0.906450000000;     BAS[ATNO][  9].d[  6] =        -2.396400099369;
  BAS[ATNO][  9].a[  7] =         0.359940000000;     BAS[ATNO][  9].d[  7] =         2.795319631315;
  BAS[ATNO][  9].a[  8] =         0.135150000000;     BAS[ATNO][  9].d[  8] =        -1.440384430537;

  // Basis function  11 L = p
  InitBFNGauss(BAS[ATNO][ 10]);
  BAS[ATNO][ 10].l  = 1;
  BAS[ATNO][ 10].ng = 9;
  BAS[ATNO][ 10].a[  0] =       443.450000000000;     BAS[ATNO][ 10].d[  0] =        -0.003012224191;
  BAS[ATNO][ 10].a[  1] =       104.820000000000;     BAS[ATNO][ 10].d[  1] =        -0.025311324654;
  BAS[ATNO][ 10].a[  2] =        33.255000000000;     BAS[ATNO][ 10].d[  2] =        -0.130827998406;
  BAS[ATNO][ 10].a[  3] =        12.548000000000;     BAS[ATNO][ 10].d[  3] =        -0.426183445267;
  BAS[ATNO][ 10].a[  4] =         5.142100000000;     BAS[ATNO][ 10].d[  4] =        -1.050462193401;
  BAS[ATNO][ 10].a[  5] =         2.178300000000;     BAS[ATNO][ 10].d[  5] =         2.878032632867;
  BAS[ATNO][ 10].a[  6] =         0.906450000000;     BAS[ATNO][ 10].d[  6] =        -2.636110812540;
  BAS[ATNO][ 10].a[  7] =         0.359940000000;     BAS[ATNO][ 10].d[  7] =         1.404308804808;
  BAS[ATNO][ 10].a[  8] =         0.135150000000;     BAS[ATNO][ 10].d[  8] =        -0.442016046273;

  // Basis function  12 L = d
  InitBFNGauss(BAS[ATNO][ 11]);
  BAS[ATNO][ 11].l  = 2;
  BAS[ATNO][ 11].ng = 4;
  BAS[ATNO][ 11].a[  0] =        10.000000000000;     BAS[ATNO][ 11].d[  0] =         0.033388909219;
  BAS[ATNO][ 11].a[  1] =         3.000000000000;     BAS[ATNO][ 11].d[  1] =         0.186156260500;
  BAS[ATNO][ 11].a[  2] =         1.150000000000;     BAS[ATNO][ 11].d[  2] =         0.599506699692;
  BAS[ATNO][ 11].a[  3] =         0.400000000000;     BAS[ATNO][ 11].d[  3] =         0.366165910713;

  // Basis function  13 L = d
  InitBFNGauss(BAS[ATNO][ 12]);
  BAS[ATNO][ 12].l  = 2;
  BAS[ATNO][ 12].ng = 4;
  BAS[ATNO][ 12].a[  0] =        10.000000000000;     BAS[ATNO][ 12].d[  0] =        -0.040177907776;
  BAS[ATNO][ 12].a[  1] =         3.000000000000;     BAS[ATNO][ 12].d[  1] =        -0.193402649301;
  BAS[ATNO][ 12].a[  2] =         1.150000000000;     BAS[ATNO][ 12].d[  2] =        -0.801252592343;
  BAS[ATNO][ 12].a[  3] =         0.400000000000;     BAS[ATNO][ 12].d[  3] =         1.166810378361;

  // Basis function  14 L = d
  InitBFNGauss(BAS[ATNO][ 13]);
  BAS[ATNO][ 13].l  = 2;
  BAS[ATNO][ 13].ng = 4;
  BAS[ATNO][ 13].a[  0] =        10.000000000000;     BAS[ATNO][ 13].d[  0] =        -0.041316573070;
  BAS[ATNO][ 13].a[  1] =         3.000000000000;     BAS[ATNO][ 13].d[  1] =        -1.393381528617;
  BAS[ATNO][ 13].a[  2] =         1.150000000000;     BAS[ATNO][ 13].d[  2] =         1.534953877961;
  BAS[ATNO][ 13].a[  3] =         0.400000000000;     BAS[ATNO][ 13].d[  3] =        -0.643044334849;

  // Basis function  15 L = d
  InitBFNGauss(BAS[ATNO][ 14]);
  BAS[ATNO][ 14].l  = 2;
  BAS[ATNO][ 14].ng = 4;
  BAS[ATNO][ 14].a[  0] =        10.000000000000;     BAS[ATNO][ 14].d[  0] =         1.278959216309;
  BAS[ATNO][ 14].a[  1] =         3.000000000000;     BAS[ATNO][ 14].d[  1] =        -1.167413670781;
  BAS[ATNO][ 14].a[  2] =         1.150000000000;     BAS[ATNO][ 14].d[  2] =         0.680795636761;
  BAS[ATNO][ 14].a[  3] =         0.400000000000;     BAS[ATNO][ 14].d[  3] =        -0.221573130895;

  // Basis function  16 L = f
  InitBFNGauss(BAS[ATNO][ 15]);
  BAS[ATNO][ 15].l  = 3;
  BAS[ATNO][ 15].ng = 2;
  BAS[ATNO][ 15].a[  0] =         2.800000000000;     BAS[ATNO][ 15].d[  0] =        -0.032763551245;
  BAS[ATNO][ 15].a[  1] =         1.150000000000;     BAS[ATNO][ 15].d[  1] =         1.020971803153;

  // Basis function  17 L = f
  InitBFNGauss(BAS[ATNO][ 16]);
  BAS[ATNO][ 16].l  = 3;
  BAS[ATNO][ 16].ng = 2;
  BAS[ATNO][ 16].a[  0] =         2.800000000000;     BAS[ATNO][ 16].d[  0] =         1.314854191961;
  BAS[ATNO][ 16].a[  1] =         1.150000000000;     BAS[ATNO][ 16].d[  1] =        -0.829175236953;

  // Basis function  18 L = g
  InitBFNGauss(BAS[ATNO][ 17]);
  BAS[ATNO][ 17].l  = 4;
  BAS[ATNO][ 17].ng = 1;
  BAS[ATNO][ 17].a[  0] =         1.800000000000;     BAS[ATNO][ 17].d[  0] =         1.000000000000;

-------
TIMINGS
-------

Total SCF time: 0 days 0 hours 0 min 1 sec 

Total time                  ....       1.924 sec
Sum of individual times     ....       1.748 sec  ( 90.9%)

Fock matrix formation       ....       1.321 sec  ( 68.7%)
  XC integration            ....       0.032 sec  (  2.4% of F)
    Basis function eval.    ....       0.005 sec  ( 15.8% of XC)
    Density eval.           ....       0.002 sec  (  7.5% of XC)
    XC-Functional eval.     ....       0.002 sec  (  7.0% of XC)
    XC-Potential eval.      ....       0.004 sec  ( 11.7% of XC)
Diagonalization             ....       0.005 sec  (  0.2%)
Density matrix formation    ....       0.001 sec  (  0.0%)
Population analysis         ....       0.001 sec  (  0.0%)
Initial guess               ....       0.093 sec  (  4.9%)
Orbital Transformation      ....       0.000 sec  (  0.0%)
Orbital Orthonormalization  ....       0.000 sec  (  0.0%)
DIIS solution               ....       0.001 sec  (  0.1%)
SOSCF solution              ....       0.001 sec  (  0.0%)
Grid generation             ....       0.326 sec  ( 16.9%)

-------------------------   --------------------
FINAL SINGLE POINT ENERGY       -93.212585823279
-------------------------   --------------------


                            ***************************************
                            *     ORCA property calculations      *
                            ***************************************

                                    ---------------------
                                    Active property flags
                                    ---------------------
   (+) Dipole Moment


------------------------------------------------------------------------------
                       ORCA ELECTRIC PROPERTIES CALCULATION
------------------------------------------------------------------------------

Dipole Moment Calculation                       ... on
Quadrupole Moment Calculation                   ... off
Polarizability Calculation                      ... off
GBWName                                         ... Ne_pc-3_.gbw
Electron density file                           ... Ne_pc-3_.scfp
The origin for moment calculation is the CENTER OF MASS  = ( 0.000000,  0.000000  0.000000)

-------------
DIPOLE MOMENT
-------------
                                X             Y             Z
Electronic contribution:      0.00000       0.00000       0.00000
Nuclear contribution   :      0.00000       0.00000       0.00000
                        -----------------------------------------
Total Dipole Moment    :      0.00000       0.00000       0.00000
                        -----------------------------------------
Magnitude (a.u.)       :      0.00000
Magnitude (Debye)      :      0.00000



--------------------
Rotational spectrum 
--------------------
 
Rotational constants in cm-1:     0.000000     0.000000     0.000000 
Rotational constants in MHz :     0.000000     0.000000     0.000000 

 Dipole components along the rotational axes: 
x,y,z [a.u.] :     0.000000     0.000000     0.000000 
x,y,z [Debye]:     0.000000     0.000000     0.000000 

 

Timings for individual modules:

Sum of individual times         ...        2.704 sec (=   0.045 min)
GTO integral calculation        ...        0.494 sec (=   0.008 min)  18.3 %
SCF iterations                  ...        2.210 sec (=   0.037 min)  81.7 %
                             ****ORCA TERMINATED NORMALLY****
TOTAL RUN TIME: 0 days 0 hours 0 minutes 3 seconds 8 msec
