
                                 *****************
                                 * O   R   C   A *
                                 *****************

           --- An Ab Initio, DFT and Semiempirical electronic structure package ---

                  #######################################################
                  #                        -***-                        #
                  #          Department of theory and spectroscopy      #
                  #               Directorship: Frank Neese             #
                  #        Max Planck Institute fuer Kohlenforschung    #
                  #                Kaiser Wilhelm Platz 1               #
                  #                 D-45470 Muelheim/Ruhr               #
                  #                      Germany                        #
                  #                                                     #
                  #                  All rights reserved                #
                  #                        -***-                        #
                  #######################################################


                         Program Version 4.2.1 -  RELEASE  -


 With contributions from (in alphabetic order):
   Daniel Aravena         : Magnetic Suceptibility
   Michael Atanasov       : Ab Initio Ligand Field Theory (pilot matlab implementation)
   Alexander A. Auer      : GIAO ZORA, VPT2
   Ute Becker             : Parallelization
   Giovanni Bistoni       : ED, misc. LED, open-shell LED, HFLD
   Martin Brehm           : Molecular dynamics
   Dmytro Bykov           : SCF Hessian
   Vijay G. Chilkuri      : MRCI spin determinant printing, contributions to CSF-ICE
   Dipayan Datta          : RHF DLPNO-CCSD density
   Achintya Kumar Dutta   : EOM-CC, STEOM-CC
   Dmitry Ganyushin       : Spin-Orbit,Spin-Spin,Magnetic field MRCI
   Miquel Garcia          : C-PCM Hessian, Gaussian charge scheme
   Yang Guo               : DLPNO-NEVPT2, CIM, IAO-localization
   Andreas Hansen         : Spin unrestricted coupled pair/coupled cluster methods
   Benjamin Helmich-Paris : CASSCF linear response (MC-RPA)
   Lee Huntington         : MR-EOM, pCC
   Robert Izsak           : Overlap fitted RIJCOSX, COSX-SCS-MP3, EOM
   Christian Kollmar      : KDIIS, OOCD, Brueckner-CCSD(T), CCSD density
   Simone Kossmann        : Meta GGA functionals, TD-DFT gradient, OOMP2, MP2 Hessian
   Martin Krupicka        : AUTO-CI
   Lucas Lang             : DCDCAS
   Dagmar Lenk            : GEPOL surface, SMD
   Dimitrios Liakos       : Extrapolation schemes; Compound Job, initial MDCI parallelization
   Dimitrios Manganas     : Further ROCIS development; embedding schemes
   Dimitrios Pantazis     : SARC Basis sets
   Taras Petrenko         : DFT Hessian,TD-DFT gradient, ASA, ECA, R-Raman, ABS, FL, XAS/XES, NRVS
   Peter Pinski           : DLPNO-MP2, DLPNO-MP2 Gradient
   Christoph Reimann      : Effective Core Potentials
   Marius Retegan         : Local ZFS, SOC
   Christoph Riplinger    : Optimizer, TS searches, QM/MM, DLPNO-CCSD(T), (RO)-DLPNO pert. Triples
   Tobias Risthaus        : Range-separated hybrids, TD-DFT gradient, RPA, STAB
   Michael Roemelt        : Original ROCIS implementation
   Masaaki Saitow         : Open-shell DLPNO-CCSD energy and density
   Barbara Sandhoefer     : DKH picture change effects
   Avijit Sen             : IP-ROCIS
   Kantharuban Sivalingam : CASSCF convergence, NEVPT2, FIC-MRCI
   Bernardo de Souza      : ESD, SOC TD-DFT
   Georgi Stoychev        : AutoAux, RI-MP2 NMR
   Willem Van den Heuvel  : Paramagnetic NMR
   Boris Wezisla          : Elementary symmetry handling
   Frank Wennmohs         : Technical directorship


 We gratefully acknowledge several colleagues who have allowed us to
 interface, adapt or use parts of their codes:
   Stefan Grimme, W. Hujo, H. Kruse,             : VdW corrections, initial TS optimization,
                  C. Bannwarth                     DFT functionals, gCP, sTDA/sTD-DF
   Ed Valeev, F. Pavosevic, A. Kumar             : LibInt (2-el integral package), F12 methods
   Garnet Chan, S. Sharma, J. Yang, R. Olivares  : DMRG
   Ulf Ekstrom                                   : XCFun DFT Library
   Mihaly Kallay                                 : mrcc  (arbitrary order and MRCC methods)
   Andreas Klamt, Michael Diedenhofen            : otool_cosmo (COSMO solvation model)
   Jiri Pittner, Ondrej Demel                    : Mk-CCSD
   Frank Weinhold                                : gennbo (NPA and NBO analysis)
   Christopher J. Cramer and Donald G. Truhlar   : smd solvation model
   Lars Goerigk                                  : TD-DFT with DH, B97 family of functionals
   V. Asgeirsson, H. Jonsson                     : NEB implementation
   FAccTs GmbH                                   : IRC, NEB, NEB-TS, Multilevel, MM, QM/MM, CI optimization
   S Lehtola, MJT Oliveira, MAL Marques          : LibXC Library


 Your calculation uses the libint2 library for the computation of 2-el integrals
 For citations please refer to: http://libint.valeyev.net

 Your ORCA version has been built with support for libXC version: 4.2.3
 For citations please refer to: https://tddft.org/programs/libxc/

 This ORCA versions uses:
   CBLAS   interface :  Fast vector & matrix operations
   LAPACKE interface :  Fast linear algebra routines
   SCALAPACK package :  Parallel linear algebra routines


----- Orbital basis set information -----
Your calculation utilizes the basis: ZORA-def2-QZVPP 
   Exponents from def2-QZVPP [F. Weigend and R. Ahlrichs, Phys. Chem. Chem. Phys. 7, 3297 (2005)],
   recontracted for ZORA by D. A. Pantazis.

================================================================================
                                        WARNINGS
                       Please study these warnings very carefully!
================================================================================


INFO   : the flag for use of LIBINT has been found!

================================================================================
                                       INPUT FILE
================================================================================
NAME = Ne_zora-def2-qzvpp_.inp
|  1> ! LDA zora-def2-qzvpp nori grid5 finalgrid6 verytightscf
|  2> %Pal NProcs 18 End
|  3> 
|  4> *xyz 8 1
|  5> Ne 0.0 0.0 0.0
|  6> **                         ****END OF INPUT****
================================================================================

                       ****************************
                       * Single Point Calculation *
                       ****************************

---------------------------------
CARTESIAN COORDINATES (ANGSTROEM)
---------------------------------
  Ne     0.000000    0.000000    0.000000

----------------------------
CARTESIAN COORDINATES (A.U.)
----------------------------
  NO LB      ZA    FRAG     MASS         X           Y           Z
   0 Ne   10.0000    0    20.179    0.000000    0.000000    0.000000

--------------------------------
INTERNAL COORDINATES (ANGSTROEM)
--------------------------------
 Ne     0   0   0     0.000000000000     0.00000000     0.00000000

---------------------------
INTERNAL COORDINATES (A.U.)
---------------------------
 Ne     0   0   0     0.000000000000     0.00000000     0.00000000

---------------------
BASIS SET INFORMATION
---------------------
There are 1 groups of distinct atoms

 Group   1 Type Ne  : 15s9p3d2f1g contracted to 8s4p3d2f1g pattern {81111111/6111/111/11/1}

Atom   0Ne   basis set group =>   1


           ************************************************************
           *        Program running with 18 parallel MPI-processes    *
           *              working on a common directory               *
           ************************************************************
------------------------------------------------------------------------------
                           ORCA GTO INTEGRAL CALCULATION
------------------------------------------------------------------------------

                         BASIS SET STATISTICS AND STARTUP INFO

 # of primitive gaussian shells          ...   30
 # of primitive gaussian functions       ...   80
 # of contracted shells                  ...   18
 # of contracted basis functions         ...   58
 Highest angular momentum                ...    4
 Maximum contraction depth               ...    8
 Integral package used                   ... LIBINT
 Integral threshhold            Thresh   ...  1.000e-12
 Primitive cut-off              TCut     ...  1.000e-14


------------------------------ INTEGRAL EVALUATION ----------------------------


 * One electron integrals 
 Pre-screening matrix                    ... done
 Shell pair data                         ... done (   0.000 sec)



           ************************************************************
           *        Program running with 18 parallel MPI-processes    *
           *              working on a common directory               *
           ************************************************************
-------------------------------------------------------------------------------
                                 ORCA SCF
-------------------------------------------------------------------------------

------------
SCF SETTINGS
------------
Hamiltonian:
 Density Functional     Method          .... DFT(GTOs)
 Exchange Functional    Exchange        .... Slater
   X-Alpha parameter    XAlpha          ....  0.666667
 Correlation Functional Correlation     .... VWN-5
 Gradients option       PostSCFGGA      .... off
   Density functional embedding theory  .... OFF


General Settings:
 Integral files         IntName         .... Ne_zora-def2-qzvpp_
 Hartree-Fock type      HFTyp           .... RHF
 Total Charge           Charge          ....    8
 Multiplicity           Mult            ....    1
 Number of Electrons    NEL             ....    2
 Basis Dimension        Dim             ....   58
 Nuclear Repulsion      ENuc            ....      0.0000000000 Eh

Convergence Acceleration:
 DIIS                   CNVDIIS         .... on
   Start iteration      DIISMaxIt       ....    12
   Startup error        DIISStart       ....  0.200000
   # of expansion vecs  DIISMaxEq       ....     5
   Bias factor          DIISBfac        ....   1.050
   Max. coefficient     DIISMaxC        ....  10.000
 Newton-Raphson         CNVNR           .... off
 SOSCF                  CNVSOSCF        .... on
   Start iteration      SOSCFMaxIt      ....   150
   Startup grad/error   SOSCFStart      ....  0.003300
 Level Shifting         CNVShift        .... on
   Level shift para.    LevelShift      ....    0.2500
   Turn off err/grad.   ShiftErr        ....    0.0010
 Zerner damping         CNVZerner       .... off
 Static damping         CNVDamp         .... on
   Fraction old density DampFac         ....    0.7000
   Max. Damping (<1)    DampMax         ....    0.9800
   Min. Damping (>=0)   DampMin         ....    0.0000
   Turn off err/grad.   DampErr         ....    0.1000
 Fernandez-Rico         CNVRico         .... off

SCF Procedure:
 Maximum # iterations   MaxIter         ....   125
 SCF integral mode      SCFMode         .... Direct
   Integral package                     .... LIBINT
 Reset frequency        DirectResetFreq ....    20
 Integral Threshold     Thresh          ....  1.000e-12 Eh
 Primitive CutOff       TCut            ....  1.000e-14 Eh

Convergence Tolerance:
 Convergence Check Mode ConvCheckMode   .... Total+1el-Energy
 Convergence forced     ConvForced      .... 0
 Energy Change          TolE            ....  1.000e-09 Eh
 1-El. energy change                    ....  1.000e-06 Eh
 Orbital Gradient       TolG            ....  2.000e-06
 Orbital Rotation angle TolX            ....  2.000e-06
 DIIS Error             TolErr          ....  1.000e-08


Diagonalization of the overlap matrix:
Smallest eigenvalue                        ... 1.609e-03
Time for diagonalization                   ...    0.001 sec
Threshold for overlap eigenvalues          ... 1.000e-08
Number of eigenvalues below threshold      ... 0
Time for construction of square roots      ...    0.001 sec
Total time needed                          ...    0.002 sec

-------------------
DFT GRID GENERATION
-------------------

General Integration Accuracy     IntAcc      ...  5.010
Radial Grid Type                 RadialGrid  ... Gauss-Chebyshev
Angular Grid (max. acc.)         AngularGrid ... Lebedev-434
Angular grid pruning method      GridPruning ... 3 (G Style)
Weight generation scheme         WeightScheme... Becke
Basis function cutoff            BFCut       ...    1.0000e-12
Integration weight cutoff        WCut        ...    1.0000e-14
Grids for H and He will be reduced by one unit

# of grid points (after initial pruning)     ...  10818 (   0.0 sec)
# of grid points (after weights+screening)   ...  10818 (   0.0 sec)
Grid point division into batches done        ...    0.1 sec
Reduced shell lists constructed in    0.1 sec

Total number of grid points                  ...    10818
Total number of batches                      ...      170
Average number of points per batch           ...       63
Average number of grid points per atom       ...    10818
Average number of shells per batch           ...     0.00 ( 0.00%)
Average number of basis functions per batch  ...     0.00 ( 0.00%)
Average number of large shells per batch     ...     0.00 ( -nan%)
Average number of large basis fcns per batch ...     0.00 ( -nan%)
Maximum spatial batch extension              ...  16.29, 16.29, 16.29 au
Average spatial batch extension              ...   0.85,  0.86,  0.85 au

Time for grid setup =    0.127 sec

------------------------------
INITIAL GUESS: MODEL POTENTIAL
------------------------------
Loading Hartree-Fock densities                     ... done
Calculating cut-offs                               ... done
Setting up the integral package                    ... done
Initializing the effective Hamiltonian             ... done
Starting the Coulomb interaction                   ... done (   0.0 sec)
Reading the grid                                   ... done
Mapping shells                                     ... done
Starting the XC term evaluation                    ... done (   0.0 sec)
  promolecular density results
     # of electrons  =     10.000000232
     EX              =    -11.033501327
     EC              =     -0.746381123
     EX+EC           =    -11.779882450
Transforming the Hamiltonian                       ... done (   0.0 sec)
Diagonalizing the Hamiltonian                      ... done (   0.0 sec)
Back transforming the eigenvectors                 ... done (   0.0 sec)
Now organizing SCF variables                       ... done
                      ------------------
                      INITIAL GUESS DONE (   0.2 sec)
                      ------------------
--------------
SCF ITERATIONS
--------------
ITER       Energy         Delta-E        Max-DP      RMS-DP      [F,P]     Damp
               ***  Starting incremental Fock matrix formation  ***
  0    -93.2001591558   0.000000000000 0.00517018  0.00015266  0.8466480 0.7000
  1    -93.2039420960  -0.003782940185 0.00362245  0.00010689  0.5813327 0.7000
  2    -93.2065341112  -0.002592015219 0.00251698  0.00007417  0.3980421 0.7000
                      *** Initiating the SOSCF procedure ***
                      *** Re-Reading the Fockian *** 
                      *** Removing any level shift *** 
ITER      Energy       Delta-E        Grad      Rot      Max-DP    RMS-DP
  3    -93.20832233  -0.0017882164  0.002873  0.002873  0.005830  0.000172
               *** Restarting incremental Fock matrix formation ***
  4    -93.21241567  -0.0040933403  0.006542  0.000110  0.000316  0.000007
  5    -93.21241860  -0.0000029304  0.000351  0.000006  0.000017  0.000000
                  ***Gradient check signals convergence***
              ***Rediagonalizing the Fockian in SOSCF/NRSCF***

               *****************************************************
               *                     SUCCESS                       *
               *           SCF CONVERGED AFTER   6 CYCLES          *
               *****************************************************

Setting up the final grid:

General Integration Accuracy     IntAcc      ...  5.340
Radial Grid Type                 RadialGrid  ... Gauss-Chebyshev
Angular Grid (max. acc.)         AngularGrid ... Lebedev-590
Angular grid pruning method      GridPruning ... 3 (G Style)
Weight generation scheme         WeightScheme... Becke
Basis function cutoff            BFCut       ...    1.0000e-12
Integration weight cutoff        WCut        ...    1.0000e-14
Grids for H and He will be reduced by one unit

# of grid points (after initial pruning)     ...  16840 (   0.0 sec)
# of grid points (after weights+screening)   ...  16840 (   0.0 sec)
Grid point division into batches done        ...    0.2 sec
Reduced shell lists constructed in    0.2 sec

Total number of grid points                  ...    16840
Total number of batches                      ...      264
Average number of points per batch           ...       63
Average number of grid points per atom       ...    16840
Average number of shells per batch           ...     0.00 ( 0.00%)
Average number of basis functions per batch  ...     0.00 ( 0.00%)
Average number of large shells per batch     ...     0.00 ( -nan%)
Average number of large basis fcns per batch ...     0.00 ( -nan%)
Maximum spatial batch extension              ...  16.63, 16.63, 16.63 au
Average spatial batch extension              ...   0.74,  0.74,  0.69 au

Final grid set up in    0.2 sec
Final integration                            ... done (   0.0 sec)
Change in XC energy                          ...    -0.000000126
Integrated number of electrons               ...     2.000000000
Previous integrated no of electrons          ...     1.999999998

----------------
TOTAL SCF ENERGY
----------------

Total Energy       :          -93.21241873 Eh           -2536.43886 eV

Components:
Nuclear Repulsion  :            0.00000000 Eh               0.00000 eV
Electronic Energy  :          -93.21241873 Eh           -2536.43886 eV
One Electron Energy:          -99.85241041 Eh           -2717.12222 eV
Two Electron Energy:            6.63999167 Eh             180.68336 eV

Virial components:
Potential Energy   :         -186.27738176 Eh           -5068.86525 eV
Kinetic Energy     :           93.06496303 Eh            2532.42639 eV
Virial Ratio       :            2.00158444


DFT components:
N(Alpha)           :        0.999999999779 electrons
N(Beta)            :        0.999999999779 electrons
N(Total)           :        1.999999999559 electrons
E(X)               :       -5.146012023550 Eh       
E(C)               :       -0.202679672849 Eh       
E(XC)              :       -5.348691696399 Eh       
DFET-embed. en.    :        0.000000000000 Eh       

---------------
SCF CONVERGENCE
---------------

  Last Energy change         ...   -9.0261e-09  Tolerance :   1.0000e-09
  Last MAX-Density change    ...    4.2608e-09  Tolerance :   1.0000e-08
  Last RMS-Density change    ...    1.1893e-10  Tolerance :   1.0000e-09
  Last Orbital Gradient      ...    4.1009e-08  Tolerance :   2.0000e-06
  Last Orbital Rotation      ...    4.4302e-10  Tolerance :   2.0000e-06

             **** THE GBW FILE WAS UPDATED (Ne_zora-def2-qzvpp_.gbw) ****
             **** DENSITY FILE WAS UPDATED (Ne_zora-def2-qzvpp_.scfp) ****
             **** ENERGY FILE WAS UPDATED (Ne_zora-def2-qzvpp_.en.tmp) ****
             **** THE GBW FILE WAS UPDATED (Ne_zora-def2-qzvpp_.gbw) ****
             **** DENSITY FILE WAS UPDATED (Ne_zora-def2-qzvpp_.scfp) ****
----------------
ORBITAL ENERGIES
----------------

  NO   OCC          E(Eh)            E(eV) 
   0   2.0000     -41.478743     -1128.6940 
   1   0.0000      -9.049263      -246.2430 
   2   0.0000      -8.609264      -234.2700 
   3   0.0000      -8.609264      -234.2700 
   4   0.0000      -8.609264      -234.2700 
   5   0.0000      -3.829443      -104.2044 
   6   0.0000      -3.701954      -100.7353 
   7   0.0000      -3.701954      -100.7353 
   8   0.0000      -3.701954      -100.7353 
   9   0.0000      -3.584869       -97.5492 
  10   0.0000      -3.584869       -97.5492 
  11   0.0000      -3.584869       -97.5492 
  12   0.0000      -3.584869       -97.5492 
  13   0.0000      -3.584869       -97.5492 
  14   0.0000      -2.054370       -55.9023 
  15   0.0000      -2.054370       -55.9023 
  16   0.0000      -2.054370       -55.9023 
  17   0.0000      -1.494712       -40.6732 
  18   0.0000      -0.492226       -13.3942 
  19   0.0000      -0.492226       -13.3942 
  20   0.0000      -0.492226       -13.3942 
  21   0.0000      -0.424834       -11.5603 
  22   0.0000      -0.424834       -11.5603 
  23   0.0000      -0.424834       -11.5603 
  24   0.0000      -0.424834       -11.5603 
  25   0.0000      -0.424834       -11.5603 
  26   0.0000      -0.376076       -10.2336 
  27   0.0000      -0.376076       -10.2336 
  28   0.0000      -0.376076       -10.2336 
  29   0.0000      -0.376076       -10.2336 
  30   0.0000      -0.376076       -10.2336 
  31   0.0000      -0.376076       -10.2336 
  32   0.0000      -0.376076       -10.2336 
  33   0.0000       7.385631       200.9732 
  34   0.0000       7.385631       200.9732 
  35   0.0000       7.385631       200.9732 
  36   0.0000       7.385631       200.9732 
  37   0.0000       7.385631       200.9732 
  38   0.0000       7.385631       200.9732 
  39   0.0000       7.385631       200.9732 
  40   0.0000       7.385631       200.9732 
  41   0.0000       7.385631       200.9732 
  42   0.0000       8.821544       240.0464 
  43   0.0000      10.941572       297.7353 
  44   0.0000      10.941572       297.7353 
  45   0.0000      10.941572       297.7353 
  46   0.0000      10.941572       297.7353 
  47   0.0000      10.941572       297.7353 
  48   0.0000      10.941572       297.7353 
  49   0.0000      10.941572       297.7353 
  50   0.0000      11.304182       307.6024 
  51   0.0000      11.304182       307.6024 
  52   0.0000      11.304182       307.6024 
  53   0.0000      11.304182       307.6024 
  54   0.0000      11.304182       307.6024 
  55   0.0000      50.856081      1383.8643 
  56   0.0000     215.111713      5853.4873 
  57   0.0000    1151.785708     31341.6825 

                    ********************************
                    * MULLIKEN POPULATION ANALYSIS *
                    ********************************

-----------------------
MULLIKEN ATOMIC CHARGES
-----------------------
   0 Ne:    8.000000
Sum of atomic charges:    8.0000000

--------------------------------
MULLIKEN REDUCED ORBITAL CHARGES
--------------------------------
  0 Nes       :     2.000000  s :     2.000000
      pz      :     0.000000  p :     0.000000
      px      :     0.000000
      py      :     0.000000
      dz2     :     0.000000  d :     0.000000
      dxz     :     0.000000
      dyz     :     0.000000
      dx2y2   :     0.000000
      dxy     :     0.000000
      f0      :     0.000000  f :     0.000000
      f+1     :     0.000000
      f-1     :     0.000000
      f+2     :     0.000000
      f-2     :     0.000000
      f+3     :     0.000000
      f-3     :     0.000000
      g0      :     0.000000  g :     0.000000
      g+1     :     0.000000
      g-1     :     0.000000
      g+2     :     0.000000
      g-2     :     0.000000
      g+3     :     0.000000
      g-3     :     0.000000
      g+4     :     0.000000
      g-4     :     0.000000


                     *******************************
                     * LOEWDIN POPULATION ANALYSIS *
                     *******************************

----------------------
LOEWDIN ATOMIC CHARGES
----------------------
   0 Ne:    8.000000

-------------------------------
LOEWDIN REDUCED ORBITAL CHARGES
-------------------------------
  0 Nes       :     2.000000  s :     2.000000
      pz      :     0.000000  p :     0.000000
      px      :     0.000000
      py      :     0.000000
      dz2     :     0.000000  d :     0.000000
      dxz     :     0.000000
      dyz     :     0.000000
      dx2y2   :     0.000000
      dxy     :     0.000000
      f0      :     0.000000  f :     0.000000
      f+1     :     0.000000
      f-1     :     0.000000
      f+2     :     0.000000
      f-2     :     0.000000
      f+3     :     0.000000
      f-3     :     0.000000
      g0      :     0.000000  g :     0.000000
      g+1     :     0.000000
      g-1     :     0.000000
      g+2     :     0.000000
      g-2     :     0.000000
      g+3     :     0.000000
      g-3     :     0.000000
      g+4     :     0.000000
      g-4     :     0.000000


                      *****************************
                      * MAYER POPULATION ANALYSIS *
                      *****************************

  NA   - Mulliken gross atomic population
  ZA   - Total nuclear charge
  QA   - Mulliken gross atomic charge
  VA   - Mayer's total valence
  BVA  - Mayer's bonded valence
  FA   - Mayer's free valence

  ATOM       NA         ZA         QA         VA         BVA        FA
  0 Ne     2.0000    10.0000     8.0000     0.0000     0.0000     0.0000

  Mayer bond orders larger than 0.100000


--------------------------
ATOM BASIS FOR ELEMENT Ne
--------------------------
 NewGTO Ne
 S 15
    1     160676.279550000007         0.000056933067
    2      23953.195038999998         0.000397440972
    3       5437.506371100000         0.002010239945
    4       1544.274102400000         0.008173204272
    5        507.888142690000         0.028161433587
    6        184.948477500000         0.082663731711
    7         72.522952039000         0.198317442323
    8         30.088713575000         0.349183577627
    9        120.684349400000         0.002533901237
   10         36.074294857000         0.001838733216
   11         13.052091210000         0.354780285143
   12          5.797478335300         0.120645459989
   13          2.047862689500         0.002281837257
   14          0.802145719900         0.000048558536
   15          0.305486722000        -0.000043657518
 S 15
    1     160676.279550000007         0.000018838965
    2      23953.195038999998         0.000131511913
    3       5437.506371100000         0.000665181797
    4       1544.274102400000         0.002704486456
    5        507.888142690000         0.009318525902
    6        184.948477500000         0.027353157385
    7         72.522952039000         0.065622590461
    8         30.088713575000         0.115543699242
    9        120.684349400000         0.005625039009
   10         36.074294857000         0.041027616166
   11         13.052091210000         0.263222626404
   12          5.797478335300        -0.018920970174
   13          2.047862689500        -0.815675774567
   14          0.802145719900        -0.314261757175
   15          0.305486722000         0.015630510028
 S 15
    1     160676.279550000007        -0.000009937259
    2      23953.195038999998        -0.000069370473
    3       5437.506371100000        -0.000350872976
    4       1544.274102400000        -0.001426574233
    5        507.888142690000        -0.004915376416
    6        184.948477500000        -0.014428361968
    7         72.522952039000        -0.034614888333
    8         30.088713575000        -0.060947491081
    9        120.684349400000        -0.002389908642
   10         36.074294857000        -0.029233567099
   11         13.052091210000        -0.137910734950
   12          5.797478335300        -0.033408613812
   13          2.047862689500         1.058563329865
   14          0.802145719900        -0.246228946713
   15          0.305486722000        -1.080057900549
 S 15
    1     160676.279550000007        -0.000012189217
    2      23953.195038999998        -0.000085091047
    3       5437.506371100000        -0.000430386986
    4       1544.274102400000        -0.001749861137
    5        507.888142690000        -0.006029287480
    6        184.948477500000        -0.017698083485
    7         72.522952039000        -0.042459233065
    8         30.088713575000        -0.074759268430
    9        120.684349400000         0.002708551370
   10         36.074294857000        -0.058594539154
   11         13.052091210000        -0.051317578450
   12          5.797478335300        -0.366517957517
   13          2.047862689500         2.786188721807
   14          0.802145719900        -4.173019778381
   15          0.305486722000         2.210117676074
 S 15
    1     160676.279550000007        -0.000021984194
    2      23953.195038999998        -0.000153468276
    3       5437.506371100000        -0.000776236170
    4       1544.274102400000        -0.003156009707
    5        507.888142690000        -0.010874285630
    6        184.948477500000        -0.031919860439
    7         72.522952039000        -0.076578506083
    8         30.088713575000        -0.134834114489
    9        120.684349400000        -0.073324509348
   10         36.074294857000         0.148470998247
   11         13.052091210000        -2.132295590794
   12          5.797478335300         4.957810944186
   13          2.047862689500        -4.919652724135
   14          0.802145719900         3.054590080540
   15          0.305486722000        -0.941297548692
 S 15
    1     160676.279550000007        -0.000076188681
    2      23953.195038999998        -0.000531861450
    3       5437.506371100000        -0.002690133142
    4       1544.274102400000        -0.010937504124
    5        507.888142690000        -0.037686051363
    6        184.948477500000        -0.110621841373
    7         72.522952039000        -0.265391365622
    8         30.088713575000        -0.467282682923
    9        120.684349400000         0.229864872340
   10         36.074294857000        -1.826117986647
   11         13.052091210000         5.695304864175
   12          5.797478335300        -5.224410894596
   13          2.047862689500         2.814781539807
   14          0.802145719900        -1.395863650232
   15          0.305486722000         0.400025888360
 S 15
    1     160676.279550000007         0.000011422120
    2      23953.195038999998         0.000079736063
    3       5437.506371100000         0.000403301696
    4       1544.274102400000         0.001639738157
    5        507.888142690000         0.005649849884
    6        184.948477500000         0.016584300424
    7         72.522952039000         0.039787171166
    8         30.088713575000         0.070054487435
    9        120.684349400000         1.972417110830
   10         36.074294857000        -3.762537633079
   11         13.052091210000         3.876744472148
   12          5.797478335300        -2.681574136017
   13          2.047862689500         1.284426059474
   14          0.802145719900        -0.628876716595
   15          0.305486722000         0.181153522088
 S 15
    1     160676.279550000007        -0.001886853001
    2      23953.195038999998        -0.013171830216
    3       5437.506371100000        -0.066622570640
    4       1544.274102400000        -0.270873076818
    5        507.888142690000        -0.933315002193
    6        184.948477500000        -2.739608433070
    7         72.522952039000        -6.572557591660
    8         30.088713575000       -11.572502887963
    9        120.684349400000         7.828872824026
   10         36.074294857000        11.796604651886
   11         13.052091210000         3.106566557346
   12          5.797478335300        -1.625106855582
   13          2.047862689500         0.725407129858
   14          0.802145719900        -0.351734198052
   15          0.305486722000         0.101240956384
 P 9
    1        498.433974660000         0.000834419567
    2        118.141092170000         0.006777184505
    3         38.032529735000         0.033902546634
    4         14.183731950000         0.120613206091
    5          5.786419072100         0.308933601500
    6          2.459962216000         0.540680560952
    7          1.042199949800         0.128765279294
    8          0.429877489200         0.034563204976
    9          0.168897084500        -0.010760565920
 P 9
    1        498.433974660000         0.000561839183
    2        118.141092170000         0.004563277222
    3         38.032529735000         0.022827579614
    4         14.183731950000         0.081212411394
    5          5.786419072100         0.208014060415
    6          2.459962216000         0.364056089480
    7          1.042199949800        -0.345121434985
    8          0.429877489200        -0.798930160563
    9          0.168897084500        -0.026223554985
 P 9
    1        498.433974660000         0.000397679688
    2        118.141092170000         0.003229968147
    3         38.032529735000         0.016157763694
    4         14.183731950000         0.057483577958
    5          5.786419072100         0.147236022830
    6          2.459962216000         0.257685324709
    7          1.042199949800        -0.514103821320
    8          0.429877489200        -0.681380195906
    9          0.168897084500         1.363298445956
 P 9
    1        498.433974660000         0.000882738037
    2        118.141092170000         0.007169628782
    3         38.032529735000         0.035865730670
    4         14.183731950000         0.127597516837
    5          5.786419072100         0.326822921772
    6          2.459962216000         0.571989579047
    7          1.042199949800        -2.572082960806
    8          0.429877489200         2.843286511875
    9          0.168897084500        -1.311711342655
 D 3
    1          6.471000000000         0.061869827283
    2          2.213000000000         0.329557423040
    3          0.747000000000         0.740284563841
 D 3
    1          6.471000000000         0.068843836560
    2          2.213000000000         1.146188203599
    3          0.747000000000        -1.015497360493
 D 3
    1          6.471000000000         1.341017423438
    2          2.213000000000        -1.171193038394
    3          0.747000000000         0.450675988580
 F 2
    1          4.657000000000        -0.020701232568
    2          1.524000000000         1.010454636929
 F 2
    1          4.657000000000         1.164510528536
    2          1.524000000000        -0.579219076696
 G 1
    1          2.983000000000         1.000000000000
 end
  // -----------------------------------------------
  // The basis set
  // -----------------------------------------------
  BAS[ATNO] = new BFNGauss[NSH];
  // Basis function   1 L = s
  InitBFNGauss(BAS[ATNO][  0]);
  BAS[ATNO][  0].l  = 0;
  BAS[ATNO][  0].ng = 15;
  BAS[ATNO][  0].a[  0] =    160676.279550000007;     BAS[ATNO][  0].d[  0] =         0.000056933067;
  BAS[ATNO][  0].a[  1] =     23953.195038999998;     BAS[ATNO][  0].d[  1] =         0.000397440972;
  BAS[ATNO][  0].a[  2] =      5437.506371100000;     BAS[ATNO][  0].d[  2] =         0.002010239945;
  BAS[ATNO][  0].a[  3] =      1544.274102400000;     BAS[ATNO][  0].d[  3] =         0.008173204272;
  BAS[ATNO][  0].a[  4] =       507.888142690000;     BAS[ATNO][  0].d[  4] =         0.028161433587;
  BAS[ATNO][  0].a[  5] =       184.948477500000;     BAS[ATNO][  0].d[  5] =         0.082663731711;
  BAS[ATNO][  0].a[  6] =        72.522952039000;     BAS[ATNO][  0].d[  6] =         0.198317442323;
  BAS[ATNO][  0].a[  7] =        30.088713575000;     BAS[ATNO][  0].d[  7] =         0.349183577627;
  BAS[ATNO][  0].a[  8] =       120.684349400000;     BAS[ATNO][  0].d[  8] =         0.002533901237;
  BAS[ATNO][  0].a[  9] =        36.074294857000;     BAS[ATNO][  0].d[  9] =         0.001838733216;
  BAS[ATNO][  0].a[ 10] =        13.052091210000;     BAS[ATNO][  0].d[ 10] =         0.354780285143;
  BAS[ATNO][  0].a[ 11] =         5.797478335300;     BAS[ATNO][  0].d[ 11] =         0.120645459989;
  BAS[ATNO][  0].a[ 12] =         2.047862689500;     BAS[ATNO][  0].d[ 12] =         0.002281837257;
  BAS[ATNO][  0].a[ 13] =         0.802145719900;     BAS[ATNO][  0].d[ 13] =         0.000048558536;
  BAS[ATNO][  0].a[ 14] =         0.305486722000;     BAS[ATNO][  0].d[ 14] =        -0.000043657518;

  // Basis function   2 L = s
  InitBFNGauss(BAS[ATNO][  1]);
  BAS[ATNO][  1].l  = 0;
  BAS[ATNO][  1].ng = 15;
  BAS[ATNO][  1].a[  0] =    160676.279550000007;     BAS[ATNO][  1].d[  0] =        -0.000018838965;
  BAS[ATNO][  1].a[  1] =     23953.195038999998;     BAS[ATNO][  1].d[  1] =        -0.000131511913;
  BAS[ATNO][  1].a[  2] =      5437.506371100000;     BAS[ATNO][  1].d[  2] =        -0.000665181797;
  BAS[ATNO][  1].a[  3] =      1544.274102400000;     BAS[ATNO][  1].d[  3] =        -0.002704486456;
  BAS[ATNO][  1].a[  4] =       507.888142690000;     BAS[ATNO][  1].d[  4] =        -0.009318525902;
  BAS[ATNO][  1].a[  5] =       184.948477500000;     BAS[ATNO][  1].d[  5] =        -0.027353157385;
  BAS[ATNO][  1].a[  6] =        72.522952039000;     BAS[ATNO][  1].d[  6] =        -0.065622590461;
  BAS[ATNO][  1].a[  7] =        30.088713575000;     BAS[ATNO][  1].d[  7] =        -0.115543699242;
  BAS[ATNO][  1].a[  8] =       120.684349400000;     BAS[ATNO][  1].d[  8] =        -0.005625039009;
  BAS[ATNO][  1].a[  9] =        36.074294857000;     BAS[ATNO][  1].d[  9] =        -0.041027616166;
  BAS[ATNO][  1].a[ 10] =        13.052091210000;     BAS[ATNO][  1].d[ 10] =        -0.263222626404;
  BAS[ATNO][  1].a[ 11] =         5.797478335300;     BAS[ATNO][  1].d[ 11] =         0.018920970174;
  BAS[ATNO][  1].a[ 12] =         2.047862689500;     BAS[ATNO][  1].d[ 12] =         0.815675774567;
  BAS[ATNO][  1].a[ 13] =         0.802145719900;     BAS[ATNO][  1].d[ 13] =         0.314261757175;
  BAS[ATNO][  1].a[ 14] =         0.305486722000;     BAS[ATNO][  1].d[ 14] =        -0.015630510028;

  // Basis function   3 L = s
  InitBFNGauss(BAS[ATNO][  2]);
  BAS[ATNO][  2].l  = 0;
  BAS[ATNO][  2].ng = 15;
  BAS[ATNO][  2].a[  0] =    160676.279550000007;     BAS[ATNO][  2].d[  0] =         0.000009937259;
  BAS[ATNO][  2].a[  1] =     23953.195038999998;     BAS[ATNO][  2].d[  1] =         0.000069370473;
  BAS[ATNO][  2].a[  2] =      5437.506371100000;     BAS[ATNO][  2].d[  2] =         0.000350872976;
  BAS[ATNO][  2].a[  3] =      1544.274102400000;     BAS[ATNO][  2].d[  3] =         0.001426574233;
  BAS[ATNO][  2].a[  4] =       507.888142690000;     BAS[ATNO][  2].d[  4] =         0.004915376416;
  BAS[ATNO][  2].a[  5] =       184.948477500000;     BAS[ATNO][  2].d[  5] =         0.014428361968;
  BAS[ATNO][  2].a[  6] =        72.522952039000;     BAS[ATNO][  2].d[  6] =         0.034614888333;
  BAS[ATNO][  2].a[  7] =        30.088713575000;     BAS[ATNO][  2].d[  7] =         0.060947491081;
  BAS[ATNO][  2].a[  8] =       120.684349400000;     BAS[ATNO][  2].d[  8] =         0.002389908642;
  BAS[ATNO][  2].a[  9] =        36.074294857000;     BAS[ATNO][  2].d[  9] =         0.029233567099;
  BAS[ATNO][  2].a[ 10] =        13.052091210000;     BAS[ATNO][  2].d[ 10] =         0.137910734950;
  BAS[ATNO][  2].a[ 11] =         5.797478335300;     BAS[ATNO][  2].d[ 11] =         0.033408613812;
  BAS[ATNO][  2].a[ 12] =         2.047862689500;     BAS[ATNO][  2].d[ 12] =        -1.058563329865;
  BAS[ATNO][  2].a[ 13] =         0.802145719900;     BAS[ATNO][  2].d[ 13] =         0.246228946713;
  BAS[ATNO][  2].a[ 14] =         0.305486722000;     BAS[ATNO][  2].d[ 14] =         1.080057900549;

  // Basis function   4 L = s
  InitBFNGauss(BAS[ATNO][  3]);
  BAS[ATNO][  3].l  = 0;
  BAS[ATNO][  3].ng = 15;
  BAS[ATNO][  3].a[  0] =    160676.279550000007;     BAS[ATNO][  3].d[  0] =         0.000012189217;
  BAS[ATNO][  3].a[  1] =     23953.195038999998;     BAS[ATNO][  3].d[  1] =         0.000085091047;
  BAS[ATNO][  3].a[  2] =      5437.506371100000;     BAS[ATNO][  3].d[  2] =         0.000430386986;
  BAS[ATNO][  3].a[  3] =      1544.274102400000;     BAS[ATNO][  3].d[  3] =         0.001749861137;
  BAS[ATNO][  3].a[  4] =       507.888142690000;     BAS[ATNO][  3].d[  4] =         0.006029287480;
  BAS[ATNO][  3].a[  5] =       184.948477500000;     BAS[ATNO][  3].d[  5] =         0.017698083485;
  BAS[ATNO][  3].a[  6] =        72.522952039000;     BAS[ATNO][  3].d[  6] =         0.042459233065;
  BAS[ATNO][  3].a[  7] =        30.088713575000;     BAS[ATNO][  3].d[  7] =         0.074759268430;
  BAS[ATNO][  3].a[  8] =       120.684349400000;     BAS[ATNO][  3].d[  8] =        -0.002708551370;
  BAS[ATNO][  3].a[  9] =        36.074294857000;     BAS[ATNO][  3].d[  9] =         0.058594539154;
  BAS[ATNO][  3].a[ 10] =        13.052091210000;     BAS[ATNO][  3].d[ 10] =         0.051317578450;
  BAS[ATNO][  3].a[ 11] =         5.797478335300;     BAS[ATNO][  3].d[ 11] =         0.366517957517;
  BAS[ATNO][  3].a[ 12] =         2.047862689500;     BAS[ATNO][  3].d[ 12] =        -2.786188721807;
  BAS[ATNO][  3].a[ 13] =         0.802145719900;     BAS[ATNO][  3].d[ 13] =         4.173019778381;
  BAS[ATNO][  3].a[ 14] =         0.305486722000;     BAS[ATNO][  3].d[ 14] =        -2.210117676074;

  // Basis function   5 L = s
  InitBFNGauss(BAS[ATNO][  4]);
  BAS[ATNO][  4].l  = 0;
  BAS[ATNO][  4].ng = 15;
  BAS[ATNO][  4].a[  0] =    160676.279550000007;     BAS[ATNO][  4].d[  0] =        -0.000021984194;
  BAS[ATNO][  4].a[  1] =     23953.195038999998;     BAS[ATNO][  4].d[  1] =        -0.000153468276;
  BAS[ATNO][  4].a[  2] =      5437.506371100000;     BAS[ATNO][  4].d[  2] =        -0.000776236170;
  BAS[ATNO][  4].a[  3] =      1544.274102400000;     BAS[ATNO][  4].d[  3] =        -0.003156009707;
  BAS[ATNO][  4].a[  4] =       507.888142690000;     BAS[ATNO][  4].d[  4] =        -0.010874285630;
  BAS[ATNO][  4].a[  5] =       184.948477500000;     BAS[ATNO][  4].d[  5] =        -0.031919860439;
  BAS[ATNO][  4].a[  6] =        72.522952039000;     BAS[ATNO][  4].d[  6] =        -0.076578506083;
  BAS[ATNO][  4].a[  7] =        30.088713575000;     BAS[ATNO][  4].d[  7] =        -0.134834114489;
  BAS[ATNO][  4].a[  8] =       120.684349400000;     BAS[ATNO][  4].d[  8] =        -0.073324509348;
  BAS[ATNO][  4].a[  9] =        36.074294857000;     BAS[ATNO][  4].d[  9] =         0.148470998247;
  BAS[ATNO][  4].a[ 10] =        13.052091210000;     BAS[ATNO][  4].d[ 10] =        -2.132295590794;
  BAS[ATNO][  4].a[ 11] =         5.797478335300;     BAS[ATNO][  4].d[ 11] =         4.957810944186;
  BAS[ATNO][  4].a[ 12] =         2.047862689500;     BAS[ATNO][  4].d[ 12] =        -4.919652724135;
  BAS[ATNO][  4].a[ 13] =         0.802145719900;     BAS[ATNO][  4].d[ 13] =         3.054590080540;
  BAS[ATNO][  4].a[ 14] =         0.305486722000;     BAS[ATNO][  4].d[ 14] =        -0.941297548692;

  // Basis function   6 L = s
  InitBFNGauss(BAS[ATNO][  5]);
  BAS[ATNO][  5].l  = 0;
  BAS[ATNO][  5].ng = 15;
  BAS[ATNO][  5].a[  0] =    160676.279550000007;     BAS[ATNO][  5].d[  0] =        -0.000076188681;
  BAS[ATNO][  5].a[  1] =     23953.195038999998;     BAS[ATNO][  5].d[  1] =        -0.000531861450;
  BAS[ATNO][  5].a[  2] =      5437.506371100000;     BAS[ATNO][  5].d[  2] =        -0.002690133142;
  BAS[ATNO][  5].a[  3] =      1544.274102400000;     BAS[ATNO][  5].d[  3] =        -0.010937504124;
  BAS[ATNO][  5].a[  4] =       507.888142690000;     BAS[ATNO][  5].d[  4] =        -0.037686051363;
  BAS[ATNO][  5].a[  5] =       184.948477500000;     BAS[ATNO][  5].d[  5] =        -0.110621841373;
  BAS[ATNO][  5].a[  6] =        72.522952039000;     BAS[ATNO][  5].d[  6] =        -0.265391365622;
  BAS[ATNO][  5].a[  7] =        30.088713575000;     BAS[ATNO][  5].d[  7] =        -0.467282682923;
  BAS[ATNO][  5].a[  8] =       120.684349400000;     BAS[ATNO][  5].d[  8] =         0.229864872340;
  BAS[ATNO][  5].a[  9] =        36.074294857000;     BAS[ATNO][  5].d[  9] =        -1.826117986647;
  BAS[ATNO][  5].a[ 10] =        13.052091210000;     BAS[ATNO][  5].d[ 10] =         5.695304864175;
  BAS[ATNO][  5].a[ 11] =         5.797478335300;     BAS[ATNO][  5].d[ 11] =        -5.224410894596;
  BAS[ATNO][  5].a[ 12] =         2.047862689500;     BAS[ATNO][  5].d[ 12] =         2.814781539807;
  BAS[ATNO][  5].a[ 13] =         0.802145719900;     BAS[ATNO][  5].d[ 13] =        -1.395863650232;
  BAS[ATNO][  5].a[ 14] =         0.305486722000;     BAS[ATNO][  5].d[ 14] =         0.400025888360;

  // Basis function   7 L = s
  InitBFNGauss(BAS[ATNO][  6]);
  BAS[ATNO][  6].l  = 0;
  BAS[ATNO][  6].ng = 15;
  BAS[ATNO][  6].a[  0] =    160676.279550000007;     BAS[ATNO][  6].d[  0] =         0.000011422120;
  BAS[ATNO][  6].a[  1] =     23953.195038999998;     BAS[ATNO][  6].d[  1] =         0.000079736063;
  BAS[ATNO][  6].a[  2] =      5437.506371100000;     BAS[ATNO][  6].d[  2] =         0.000403301696;
  BAS[ATNO][  6].a[  3] =      1544.274102400000;     BAS[ATNO][  6].d[  3] =         0.001639738157;
  BAS[ATNO][  6].a[  4] =       507.888142690000;     BAS[ATNO][  6].d[  4] =         0.005649849884;
  BAS[ATNO][  6].a[  5] =       184.948477500000;     BAS[ATNO][  6].d[  5] =         0.016584300424;
  BAS[ATNO][  6].a[  6] =        72.522952039000;     BAS[ATNO][  6].d[  6] =         0.039787171166;
  BAS[ATNO][  6].a[  7] =        30.088713575000;     BAS[ATNO][  6].d[  7] =         0.070054487435;
  BAS[ATNO][  6].a[  8] =       120.684349400000;     BAS[ATNO][  6].d[  8] =         1.972417110830;
  BAS[ATNO][  6].a[  9] =        36.074294857000;     BAS[ATNO][  6].d[  9] =        -3.762537633079;
  BAS[ATNO][  6].a[ 10] =        13.052091210000;     BAS[ATNO][  6].d[ 10] =         3.876744472148;
  BAS[ATNO][  6].a[ 11] =         5.797478335300;     BAS[ATNO][  6].d[ 11] =        -2.681574136017;
  BAS[ATNO][  6].a[ 12] =         2.047862689500;     BAS[ATNO][  6].d[ 12] =         1.284426059474;
  BAS[ATNO][  6].a[ 13] =         0.802145719900;     BAS[ATNO][  6].d[ 13] =        -0.628876716595;
  BAS[ATNO][  6].a[ 14] =         0.305486722000;     BAS[ATNO][  6].d[ 14] =         0.181153522088;

  // Basis function   8 L = s
  InitBFNGauss(BAS[ATNO][  7]);
  BAS[ATNO][  7].l  = 0;
  BAS[ATNO][  7].ng = 15;
  BAS[ATNO][  7].a[  0] =    160676.279550000007;     BAS[ATNO][  7].d[  0] =        -0.001886853001;
  BAS[ATNO][  7].a[  1] =     23953.195038999998;     BAS[ATNO][  7].d[  1] =        -0.013171830216;
  BAS[ATNO][  7].a[  2] =      5437.506371100000;     BAS[ATNO][  7].d[  2] =        -0.066622570640;
  BAS[ATNO][  7].a[  3] =      1544.274102400000;     BAS[ATNO][  7].d[  3] =        -0.270873076818;
  BAS[ATNO][  7].a[  4] =       507.888142690000;     BAS[ATNO][  7].d[  4] =        -0.933315002193;
  BAS[ATNO][  7].a[  5] =       184.948477500000;     BAS[ATNO][  7].d[  5] =        -2.739608433070;
  BAS[ATNO][  7].a[  6] =        72.522952039000;     BAS[ATNO][  7].d[  6] =        -6.572557591660;
  BAS[ATNO][  7].a[  7] =        30.088713575000;     BAS[ATNO][  7].d[  7] =       -11.572502887963;
  BAS[ATNO][  7].a[  8] =       120.684349400000;     BAS[ATNO][  7].d[  8] =         7.828872824026;
  BAS[ATNO][  7].a[  9] =        36.074294857000;     BAS[ATNO][  7].d[  9] =        11.796604651886;
  BAS[ATNO][  7].a[ 10] =        13.052091210000;     BAS[ATNO][  7].d[ 10] =         3.106566557346;
  BAS[ATNO][  7].a[ 11] =         5.797478335300;     BAS[ATNO][  7].d[ 11] =        -1.625106855582;
  BAS[ATNO][  7].a[ 12] =         2.047862689500;     BAS[ATNO][  7].d[ 12] =         0.725407129858;
  BAS[ATNO][  7].a[ 13] =         0.802145719900;     BAS[ATNO][  7].d[ 13] =        -0.351734198052;
  BAS[ATNO][  7].a[ 14] =         0.305486722000;     BAS[ATNO][  7].d[ 14] =         0.101240956384;

  // Basis function   9 L = p
  InitBFNGauss(BAS[ATNO][  8]);
  BAS[ATNO][  8].l  = 1;
  BAS[ATNO][  8].ng = 9;
  BAS[ATNO][  8].a[  0] =       498.433974660000;     BAS[ATNO][  8].d[  0] =         0.000834419567;
  BAS[ATNO][  8].a[  1] =       118.141092170000;     BAS[ATNO][  8].d[  1] =         0.006777184505;
  BAS[ATNO][  8].a[  2] =        38.032529735000;     BAS[ATNO][  8].d[  2] =         0.033902546634;
  BAS[ATNO][  8].a[  3] =        14.183731950000;     BAS[ATNO][  8].d[  3] =         0.120613206091;
  BAS[ATNO][  8].a[  4] =         5.786419072100;     BAS[ATNO][  8].d[  4] =         0.308933601500;
  BAS[ATNO][  8].a[  5] =         2.459962216000;     BAS[ATNO][  8].d[  5] =         0.540680560952;
  BAS[ATNO][  8].a[  6] =         1.042199949800;     BAS[ATNO][  8].d[  6] =         0.128765279294;
  BAS[ATNO][  8].a[  7] =         0.429877489200;     BAS[ATNO][  8].d[  7] =         0.034563204976;
  BAS[ATNO][  8].a[  8] =         0.168897084500;     BAS[ATNO][  8].d[  8] =        -0.010760565920;

  // Basis function  10 L = p
  InitBFNGauss(BAS[ATNO][  9]);
  BAS[ATNO][  9].l  = 1;
  BAS[ATNO][  9].ng = 9;
  BAS[ATNO][  9].a[  0] =       498.433974660000;     BAS[ATNO][  9].d[  0] =        -0.000561839183;
  BAS[ATNO][  9].a[  1] =       118.141092170000;     BAS[ATNO][  9].d[  1] =        -0.004563277222;
  BAS[ATNO][  9].a[  2] =        38.032529735000;     BAS[ATNO][  9].d[  2] =        -0.022827579614;
  BAS[ATNO][  9].a[  3] =        14.183731950000;     BAS[ATNO][  9].d[  3] =        -0.081212411394;
  BAS[ATNO][  9].a[  4] =         5.786419072100;     BAS[ATNO][  9].d[  4] =        -0.208014060415;
  BAS[ATNO][  9].a[  5] =         2.459962216000;     BAS[ATNO][  9].d[  5] =        -0.364056089480;
  BAS[ATNO][  9].a[  6] =         1.042199949800;     BAS[ATNO][  9].d[  6] =         0.345121434985;
  BAS[ATNO][  9].a[  7] =         0.429877489200;     BAS[ATNO][  9].d[  7] =         0.798930160563;
  BAS[ATNO][  9].a[  8] =         0.168897084500;     BAS[ATNO][  9].d[  8] =         0.026223554985;

  // Basis function  11 L = p
  InitBFNGauss(BAS[ATNO][ 10]);
  BAS[ATNO][ 10].l  = 1;
  BAS[ATNO][ 10].ng = 9;
  BAS[ATNO][ 10].a[  0] =       498.433974660000;     BAS[ATNO][ 10].d[  0] =         0.000397679688;
  BAS[ATNO][ 10].a[  1] =       118.141092170000;     BAS[ATNO][ 10].d[  1] =         0.003229968147;
  BAS[ATNO][ 10].a[  2] =        38.032529735000;     BAS[ATNO][ 10].d[  2] =         0.016157763694;
  BAS[ATNO][ 10].a[  3] =        14.183731950000;     BAS[ATNO][ 10].d[  3] =         0.057483577958;
  BAS[ATNO][ 10].a[  4] =         5.786419072100;     BAS[ATNO][ 10].d[  4] =         0.147236022830;
  BAS[ATNO][ 10].a[  5] =         2.459962216000;     BAS[ATNO][ 10].d[  5] =         0.257685324709;
  BAS[ATNO][ 10].a[  6] =         1.042199949800;     BAS[ATNO][ 10].d[  6] =        -0.514103821320;
  BAS[ATNO][ 10].a[  7] =         0.429877489200;     BAS[ATNO][ 10].d[  7] =        -0.681380195906;
  BAS[ATNO][ 10].a[  8] =         0.168897084500;     BAS[ATNO][ 10].d[  8] =         1.363298445956;

  // Basis function  12 L = p
  InitBFNGauss(BAS[ATNO][ 11]);
  BAS[ATNO][ 11].l  = 1;
  BAS[ATNO][ 11].ng = 9;
  BAS[ATNO][ 11].a[  0] =       498.433974660000;     BAS[ATNO][ 11].d[  0] =         0.000882738037;
  BAS[ATNO][ 11].a[  1] =       118.141092170000;     BAS[ATNO][ 11].d[  1] =         0.007169628782;
  BAS[ATNO][ 11].a[  2] =        38.032529735000;     BAS[ATNO][ 11].d[  2] =         0.035865730670;
  BAS[ATNO][ 11].a[  3] =        14.183731950000;     BAS[ATNO][ 11].d[  3] =         0.127597516837;
  BAS[ATNO][ 11].a[  4] =         5.786419072100;     BAS[ATNO][ 11].d[  4] =         0.326822921772;
  BAS[ATNO][ 11].a[  5] =         2.459962216000;     BAS[ATNO][ 11].d[  5] =         0.571989579047;
  BAS[ATNO][ 11].a[  6] =         1.042199949800;     BAS[ATNO][ 11].d[  6] =        -2.572082960806;
  BAS[ATNO][ 11].a[  7] =         0.429877489200;     BAS[ATNO][ 11].d[  7] =         2.843286511875;
  BAS[ATNO][ 11].a[  8] =         0.168897084500;     BAS[ATNO][ 11].d[  8] =        -1.311711342655;

  // Basis function  13 L = d
  InitBFNGauss(BAS[ATNO][ 12]);
  BAS[ATNO][ 12].l  = 2;
  BAS[ATNO][ 12].ng = 3;
  BAS[ATNO][ 12].a[  0] =         6.471000000000;     BAS[ATNO][ 12].d[  0] =         0.061869827283;
  BAS[ATNO][ 12].a[  1] =         2.213000000000;     BAS[ATNO][ 12].d[  1] =         0.329557423040;
  BAS[ATNO][ 12].a[  2] =         0.747000000000;     BAS[ATNO][ 12].d[  2] =         0.740284563841;

  // Basis function  14 L = d
  InitBFNGauss(BAS[ATNO][ 13]);
  BAS[ATNO][ 13].l  = 2;
  BAS[ATNO][ 13].ng = 3;
  BAS[ATNO][ 13].a[  0] =         6.471000000000;     BAS[ATNO][ 13].d[  0] =         0.068843836560;
  BAS[ATNO][ 13].a[  1] =         2.213000000000;     BAS[ATNO][ 13].d[  1] =         1.146188203599;
  BAS[ATNO][ 13].a[  2] =         0.747000000000;     BAS[ATNO][ 13].d[  2] =        -1.015497360493;

  // Basis function  15 L = d
  InitBFNGauss(BAS[ATNO][ 14]);
  BAS[ATNO][ 14].l  = 2;
  BAS[ATNO][ 14].ng = 3;
  BAS[ATNO][ 14].a[  0] =         6.471000000000;     BAS[ATNO][ 14].d[  0] =         1.341017423438;
  BAS[ATNO][ 14].a[  1] =         2.213000000000;     BAS[ATNO][ 14].d[  1] =        -1.171193038394;
  BAS[ATNO][ 14].a[  2] =         0.747000000000;     BAS[ATNO][ 14].d[  2] =         0.450675988580;

  // Basis function  16 L = f
  InitBFNGauss(BAS[ATNO][ 15]);
  BAS[ATNO][ 15].l  = 3;
  BAS[ATNO][ 15].ng = 2;
  BAS[ATNO][ 15].a[  0] =         4.657000000000;     BAS[ATNO][ 15].d[  0] =        -0.020701232568;
  BAS[ATNO][ 15].a[  1] =         1.524000000000;     BAS[ATNO][ 15].d[  1] =         1.010454636929;

  // Basis function  17 L = f
  InitBFNGauss(BAS[ATNO][ 16]);
  BAS[ATNO][ 16].l  = 3;
  BAS[ATNO][ 16].ng = 2;
  BAS[ATNO][ 16].a[  0] =         4.657000000000;     BAS[ATNO][ 16].d[  0] =         1.164510528536;
  BAS[ATNO][ 16].a[  1] =         1.524000000000;     BAS[ATNO][ 16].d[  1] =        -0.579219076696;

  // Basis function  18 L = g
  InitBFNGauss(BAS[ATNO][ 17]);
  BAS[ATNO][ 17].l  = 4;
  BAS[ATNO][ 17].ng = 1;
  BAS[ATNO][ 17].a[  0] =         2.983000000000;     BAS[ATNO][ 17].d[  0] =         1.000000000000;

-------
TIMINGS
-------

Total SCF time: 0 days 0 hours 0 min 1 sec 

Total time                  ....       1.526 sec
Sum of individual times     ....       1.333 sec  ( 87.3%)

Fock matrix formation       ....       0.915 sec  ( 60.0%)
  XC integration            ....       0.020 sec  (  2.2% of F)
    Basis function eval.    ....       0.003 sec  ( 13.9% of XC)
    Density eval.           ....       0.001 sec  (  7.1% of XC)
    XC-Functional eval.     ....       0.001 sec  (  6.2% of XC)
    XC-Potential eval.      ....       0.002 sec  (  9.5% of XC)
Diagonalization             ....       0.002 sec  (  0.1%)
Density matrix formation    ....       0.001 sec  (  0.1%)
Population analysis         ....       0.001 sec  (  0.1%)
Initial guess               ....       0.094 sec  (  6.2%)
Orbital Transformation      ....       0.000 sec  (  0.0%)
Orbital Orthonormalization  ....       0.000 sec  (  0.0%)
DIIS solution               ....       0.000 sec  (  0.0%)
SOSCF solution              ....       0.001 sec  (  0.1%)
Grid generation             ....       0.319 sec  ( 20.9%)

-------------------------   --------------------
FINAL SINGLE POINT ENERGY       -93.212418732972
-------------------------   --------------------


                            ***************************************
                            *     ORCA property calculations      *
                            ***************************************

                                    ---------------------
                                    Active property flags
                                    ---------------------
   (+) Dipole Moment


------------------------------------------------------------------------------
                       ORCA ELECTRIC PROPERTIES CALCULATION
------------------------------------------------------------------------------

Dipole Moment Calculation                       ... on
Quadrupole Moment Calculation                   ... off
Polarizability Calculation                      ... off
GBWName                                         ... Ne_zora-def2-qzvpp_.gbw
Electron density file                           ... Ne_zora-def2-qzvpp_.scfp
The origin for moment calculation is the CENTER OF MASS  = ( 0.000000,  0.000000  0.000000)

-------------
DIPOLE MOMENT
-------------
                                X             Y             Z
Electronic contribution:      0.00000      -0.00000       0.00000
Nuclear contribution   :      0.00000       0.00000       0.00000
                        -----------------------------------------
Total Dipole Moment    :      0.00000      -0.00000       0.00000
                        -----------------------------------------
Magnitude (a.u.)       :      0.00000
Magnitude (Debye)      :      0.00000



--------------------
Rotational spectrum 
--------------------
 
Rotational constants in cm-1:     0.000000     0.000000     0.000000 
Rotational constants in MHz :     0.000000     0.000000     0.000000 

 Dipole components along the rotational axes: 
x,y,z [a.u.] :     0.000000    -0.000000     0.000000 
x,y,z [Debye]:     0.000000    -0.000000     0.000000 

 

Timings for individual modules:

Sum of individual times         ...        2.272 sec (=   0.038 min)
GTO integral calculation        ...        0.507 sec (=   0.008 min)  22.3 %
SCF iterations                  ...        1.766 sec (=   0.029 min)  77.7 %
                             ****ORCA TERMINATED NORMALLY****
TOTAL RUN TIME: 0 days 0 hours 0 minutes 2 seconds 611 msec
