
                                 *****************
                                 * O   R   C   A *
                                 *****************

           --- An Ab Initio, DFT and Semiempirical electronic structure package ---

                  #######################################################
                  #                        -***-                        #
                  #          Department of theory and spectroscopy      #
                  #               Directorship: Frank Neese             #
                  #        Max Planck Institute fuer Kohlenforschung    #
                  #                Kaiser Wilhelm Platz 1               #
                  #                 D-45470 Muelheim/Ruhr               #
                  #                      Germany                        #
                  #                                                     #
                  #                  All rights reserved                #
                  #                        -***-                        #
                  #######################################################


                         Program Version 4.2.1 -  RELEASE  -


 With contributions from (in alphabetic order):
   Daniel Aravena         : Magnetic Suceptibility
   Michael Atanasov       : Ab Initio Ligand Field Theory (pilot matlab implementation)
   Alexander A. Auer      : GIAO ZORA, VPT2
   Ute Becker             : Parallelization
   Giovanni Bistoni       : ED, misc. LED, open-shell LED, HFLD
   Martin Brehm           : Molecular dynamics
   Dmytro Bykov           : SCF Hessian
   Vijay G. Chilkuri      : MRCI spin determinant printing, contributions to CSF-ICE
   Dipayan Datta          : RHF DLPNO-CCSD density
   Achintya Kumar Dutta   : EOM-CC, STEOM-CC
   Dmitry Ganyushin       : Spin-Orbit,Spin-Spin,Magnetic field MRCI
   Miquel Garcia          : C-PCM Hessian, Gaussian charge scheme
   Yang Guo               : DLPNO-NEVPT2, CIM, IAO-localization
   Andreas Hansen         : Spin unrestricted coupled pair/coupled cluster methods
   Benjamin Helmich-Paris : CASSCF linear response (MC-RPA)
   Lee Huntington         : MR-EOM, pCC
   Robert Izsak           : Overlap fitted RIJCOSX, COSX-SCS-MP3, EOM
   Christian Kollmar      : KDIIS, OOCD, Brueckner-CCSD(T), CCSD density
   Simone Kossmann        : Meta GGA functionals, TD-DFT gradient, OOMP2, MP2 Hessian
   Martin Krupicka        : AUTO-CI
   Lucas Lang             : DCDCAS
   Dagmar Lenk            : GEPOL surface, SMD
   Dimitrios Liakos       : Extrapolation schemes; Compound Job, initial MDCI parallelization
   Dimitrios Manganas     : Further ROCIS development; embedding schemes
   Dimitrios Pantazis     : SARC Basis sets
   Taras Petrenko         : DFT Hessian,TD-DFT gradient, ASA, ECA, R-Raman, ABS, FL, XAS/XES, NRVS
   Peter Pinski           : DLPNO-MP2, DLPNO-MP2 Gradient
   Christoph Reimann      : Effective Core Potentials
   Marius Retegan         : Local ZFS, SOC
   Christoph Riplinger    : Optimizer, TS searches, QM/MM, DLPNO-CCSD(T), (RO)-DLPNO pert. Triples
   Tobias Risthaus        : Range-separated hybrids, TD-DFT gradient, RPA, STAB
   Michael Roemelt        : Original ROCIS implementation
   Masaaki Saitow         : Open-shell DLPNO-CCSD energy and density
   Barbara Sandhoefer     : DKH picture change effects
   Avijit Sen             : IP-ROCIS
   Kantharuban Sivalingam : CASSCF convergence, NEVPT2, FIC-MRCI
   Bernardo de Souza      : ESD, SOC TD-DFT
   Georgi Stoychev        : AutoAux, RI-MP2 NMR
   Willem Van den Heuvel  : Paramagnetic NMR
   Boris Wezisla          : Elementary symmetry handling
   Frank Wennmohs         : Technical directorship


 We gratefully acknowledge several colleagues who have allowed us to
 interface, adapt or use parts of their codes:
   Stefan Grimme, W. Hujo, H. Kruse,             : VdW corrections, initial TS optimization,
                  C. Bannwarth                     DFT functionals, gCP, sTDA/sTD-DF
   Ed Valeev, F. Pavosevic, A. Kumar             : LibInt (2-el integral package), F12 methods
   Garnet Chan, S. Sharma, J. Yang, R. Olivares  : DMRG
   Ulf Ekstrom                                   : XCFun DFT Library
   Mihaly Kallay                                 : mrcc  (arbitrary order and MRCC methods)
   Andreas Klamt, Michael Diedenhofen            : otool_cosmo (COSMO solvation model)
   Jiri Pittner, Ondrej Demel                    : Mk-CCSD
   Frank Weinhold                                : gennbo (NPA and NBO analysis)
   Christopher J. Cramer and Donald G. Truhlar   : smd solvation model
   Lars Goerigk                                  : TD-DFT with DH, B97 family of functionals
   V. Asgeirsson, H. Jonsson                     : NEB implementation
   FAccTs GmbH                                   : IRC, NEB, NEB-TS, Multilevel, MM, QM/MM, CI optimization
   S Lehtola, MJT Oliveira, MAL Marques          : LibXC Library


 Your calculation uses the libint2 library for the computation of 2-el integrals
 For citations please refer to: http://libint.valeyev.net

 Your ORCA version has been built with support for libXC version: 4.2.3
 For citations please refer to: https://tddft.org/programs/libxc/

 This ORCA versions uses:
   CBLAS   interface :  Fast vector & matrix operations
   LAPACKE interface :  Fast linear algebra routines
   SCALAPACK package :  Parallel linear algebra routines


----- Orbital basis set information -----
Your calculation utilizes the basis: ZORA-def2-TZVP 
   Exponents from def2-TZVP [F. Weigend and R. Ahlrichs, Phys. Chem. Chem. Phys. 7, 3297 (2005)],
   recontracted for ZORA by D. A. Pantazis.

================================================================================
                                        WARNINGS
                       Please study these warnings very carefully!
================================================================================


INFO   : the flag for use of LIBINT has been found!

================================================================================
                                       INPUT FILE
================================================================================
NAME = Ne_zora-def2-tzvp_.inp
|  1> ! LDA zora-def2-tzvp nori grid5 finalgrid6 verytightscf
|  2> %Pal NProcs 18 End
|  3> 
|  4> *xyz 8 1
|  5> Ne 0.0 0.0 0.0
|  6> **                         ****END OF INPUT****
================================================================================

                       ****************************
                       * Single Point Calculation *
                       ****************************

---------------------------------
CARTESIAN COORDINATES (ANGSTROEM)
---------------------------------
  Ne     0.000000    0.000000    0.000000

----------------------------
CARTESIAN COORDINATES (A.U.)
----------------------------
  NO LB      ZA    FRAG     MASS         X           Y           Z
   0 Ne   10.0000    0    20.179    0.000000    0.000000    0.000000

--------------------------------
INTERNAL COORDINATES (ANGSTROEM)
--------------------------------
 Ne     0   0   0     0.000000000000     0.00000000     0.00000000

---------------------------
INTERNAL COORDINATES (A.U.)
---------------------------
 Ne     0   0   0     0.000000000000     0.00000000     0.00000000

---------------------
BASIS SET INFORMATION
---------------------
There are 1 groups of distinct atoms

 Group   1 Type Ne  : 11s6p2d1f contracted to 6s3p2d1f pattern {611111/411/11/1}

Atom   0Ne   basis set group =>   1


           ************************************************************
           *        Program running with 18 parallel MPI-processes    *
           *              working on a common directory               *
           ************************************************************
------------------------------------------------------------------------------
                           ORCA GTO INTEGRAL CALCULATION
------------------------------------------------------------------------------

                         BASIS SET STATISTICS AND STARTUP INFO

 # of primitive gaussian shells          ...   20
 # of primitive gaussian functions       ...   46
 # of contracted shells                  ...   12
 # of contracted basis functions         ...   32
 Highest angular momentum                ...    3
 Maximum contraction depth               ...    6
 Integral package used                   ... LIBINT
 Integral threshhold            Thresh   ...  1.000e-12
 Primitive cut-off              TCut     ...  1.000e-14


------------------------------ INTEGRAL EVALUATION ----------------------------


 * One electron integrals 
 Pre-screening matrix                    ... done
 Shell pair data                         ... done (   0.000 sec)



           ************************************************************
           *        Program running with 18 parallel MPI-processes    *
           *              working on a common directory               *
           ************************************************************
-------------------------------------------------------------------------------
                                 ORCA SCF
-------------------------------------------------------------------------------

------------
SCF SETTINGS
------------
Hamiltonian:
 Density Functional     Method          .... DFT(GTOs)
 Exchange Functional    Exchange        .... Slater
   X-Alpha parameter    XAlpha          ....  0.666667
 Correlation Functional Correlation     .... VWN-5
 Gradients option       PostSCFGGA      .... off
   Density functional embedding theory  .... OFF


General Settings:
 Integral files         IntName         .... Ne_zora-def2-tzvp_
 Hartree-Fock type      HFTyp           .... RHF
 Total Charge           Charge          ....    8
 Multiplicity           Mult            ....    1
 Number of Electrons    NEL             ....    2
 Basis Dimension        Dim             ....   32
 Nuclear Repulsion      ENuc            ....      0.0000000000 Eh

Convergence Acceleration:
 DIIS                   CNVDIIS         .... on
   Start iteration      DIISMaxIt       ....    12
   Startup error        DIISStart       ....  0.200000
   # of expansion vecs  DIISMaxEq       ....     5
   Bias factor          DIISBfac        ....   1.050
   Max. coefficient     DIISMaxC        ....  10.000
 Newton-Raphson         CNVNR           .... off
 SOSCF                  CNVSOSCF        .... on
   Start iteration      SOSCFMaxIt      ....   150
   Startup grad/error   SOSCFStart      ....  0.003300
 Level Shifting         CNVShift        .... on
   Level shift para.    LevelShift      ....    0.2500
   Turn off err/grad.   ShiftErr        ....    0.0010
 Zerner damping         CNVZerner       .... off
 Static damping         CNVDamp         .... on
   Fraction old density DampFac         ....    0.7000
   Max. Damping (<1)    DampMax         ....    0.9800
   Min. Damping (>=0)   DampMin         ....    0.0000
   Turn off err/grad.   DampErr         ....    0.1000
 Fernandez-Rico         CNVRico         .... off

SCF Procedure:
 Maximum # iterations   MaxIter         ....   125
 SCF integral mode      SCFMode         .... Direct
   Integral package                     .... LIBINT
 Reset frequency        DirectResetFreq ....    20
 Integral Threshold     Thresh          ....  1.000e-12 Eh
 Primitive CutOff       TCut            ....  1.000e-14 Eh

Convergence Tolerance:
 Convergence Check Mode ConvCheckMode   .... Total+1el-Energy
 Convergence forced     ConvForced      .... 0
 Energy Change          TolE            ....  1.000e-09 Eh
 1-El. energy change                    ....  1.000e-06 Eh
 Orbital Gradient       TolG            ....  2.000e-06
 Orbital Rotation angle TolX            ....  2.000e-06
 DIIS Error             TolErr          ....  1.000e-08


Diagonalization of the overlap matrix:
Smallest eigenvalue                        ... 1.735e-02
Time for diagonalization                   ...    0.000 sec
Threshold for overlap eigenvalues          ... 1.000e-08
Number of eigenvalues below threshold      ... 0
Time for construction of square roots      ...    0.001 sec
Total time needed                          ...    0.001 sec

-------------------
DFT GRID GENERATION
-------------------

General Integration Accuracy     IntAcc      ...  5.010
Radial Grid Type                 RadialGrid  ... Gauss-Chebyshev
Angular Grid (max. acc.)         AngularGrid ... Lebedev-434
Angular grid pruning method      GridPruning ... 3 (G Style)
Weight generation scheme         WeightScheme... Becke
Basis function cutoff            BFCut       ...    1.0000e-12
Integration weight cutoff        WCut        ...    1.0000e-14
Grids for H and He will be reduced by one unit

# of grid points (after initial pruning)     ...  10818 (   0.0 sec)
# of grid points (after weights+screening)   ...  10818 (   0.0 sec)
Grid point division into batches done        ...    0.1 sec
Reduced shell lists constructed in    0.1 sec

Total number of grid points                  ...    10818
Total number of batches                      ...      170
Average number of points per batch           ...       63
Average number of grid points per atom       ...    10818
Average number of shells per batch           ...     0.00 ( 0.00%)
Average number of basis functions per batch  ...     0.00 ( 0.00%)
Average number of large shells per batch     ...     0.00 ( -nan%)
Average number of large basis fcns per batch ...     0.00 ( -nan%)
Maximum spatial batch extension              ...  16.29, 16.29, 16.29 au
Average spatial batch extension              ...   0.85,  0.86,  0.85 au

Time for grid setup =    0.127 sec

------------------------------
INITIAL GUESS: MODEL POTENTIAL
------------------------------
Loading Hartree-Fock densities                     ... done
Calculating cut-offs                               ... done
Setting up the integral package                    ... done
Initializing the effective Hamiltonian             ... done
Starting the Coulomb interaction                   ... done (   0.0 sec)
Reading the grid                                   ... done
Mapping shells                                     ... done
Starting the XC term evaluation                    ... done (   0.0 sec)
  promolecular density results
     # of electrons  =     10.000000232
     EX              =    -11.033501327
     EC              =     -0.746381123
     EX+EC           =    -11.779882450
Transforming the Hamiltonian                       ... done (   0.0 sec)
Diagonalizing the Hamiltonian                      ... done (   0.0 sec)
Back transforming the eigenvectors                 ... done (   0.0 sec)
Now organizing SCF variables                       ... done
                      ------------------
                      INITIAL GUESS DONE (   0.2 sec)
                      ------------------
--------------
SCF ITERATIONS
--------------
ITER       Energy         Delta-E        Max-DP      RMS-DP      [F,P]     Damp
               ***  Starting incremental Fock matrix formation  ***
  0    -93.1993015009   0.000000000000 0.00509716  0.00028144  0.8157010 0.7000
  1    -93.2030662088  -0.003764707861 0.00357275  0.00019614  0.5569685 0.7000
  2    -93.2056457301  -0.002579521359 0.00248257  0.00013548  0.3792294 0.7000
                      *** Initiating the SOSCF procedure ***
                      *** Re-Reading the Fockian *** 
                      *** Removing any level shift *** 
ITER      Energy       Delta-E        Grad      Rot      Max-DP    RMS-DP
  3    -93.20742531  -0.0017795791  0.003277  0.003277  0.005751  0.000312
               *** Restarting incremental Fock matrix formation ***
  4    -93.21149876  -0.0040734501  0.007467  0.000110  0.000223  0.000012
  5    -93.21150164  -0.0000028845  0.000409  0.000006  0.000012  0.000001
                  ***Gradient check signals convergence***
              ***Rediagonalizing the Fockian in SOSCF/NRSCF***

               *****************************************************
               *                     SUCCESS                       *
               *           SCF CONVERGED AFTER   6 CYCLES          *
               *****************************************************

Setting up the final grid:

General Integration Accuracy     IntAcc      ...  5.340
Radial Grid Type                 RadialGrid  ... Gauss-Chebyshev
Angular Grid (max. acc.)         AngularGrid ... Lebedev-590
Angular grid pruning method      GridPruning ... 3 (G Style)
Weight generation scheme         WeightScheme... Becke
Basis function cutoff            BFCut       ...    1.0000e-12
Integration weight cutoff        WCut        ...    1.0000e-14
Grids for H and He will be reduced by one unit

# of grid points (after initial pruning)     ...  16840 (   0.0 sec)
# of grid points (after weights+screening)   ...  16840 (   0.0 sec)
Grid point division into batches done        ...    0.2 sec
Reduced shell lists constructed in    0.2 sec

Total number of grid points                  ...    16840
Total number of batches                      ...      264
Average number of points per batch           ...       63
Average number of grid points per atom       ...    16840
Average number of shells per batch           ...     0.00 ( 0.00%)
Average number of basis functions per batch  ...     0.00 ( 0.00%)
Average number of large shells per batch     ...     0.00 ( -nan%)
Average number of large basis fcns per batch ...     0.00 ( -nan%)
Maximum spatial batch extension              ...  16.63, 16.63, 16.63 au
Average spatial batch extension              ...   0.74,  0.74,  0.69 au

Final grid set up in    0.2 sec
Final integration                            ... done (   0.0 sec)
Change in XC energy                          ...     0.000001239
Integrated number of electrons               ...     1.999999781
Previous integrated no of electrons          ...     2.000000017

----------------
TOTAL SCF ENERGY
----------------

Total Energy       :          -93.21150041 Eh           -2536.41388 eV

Components:
Nuclear Repulsion  :            0.00000000 Eh               0.00000 eV
Electronic Energy  :          -93.21150041 Eh           -2536.41388 eV
One Electron Energy:          -99.85076896 Eh           -2717.07756 eV
Two Electron Energy:            6.63926855 Eh             180.66368 eV

Virial components:
Potential Energy   :         -186.29665631 Eh           -5069.38974 eV
Kinetic Energy     :           93.08515590 Eh            2532.97587 eV
Virial Ratio       :            2.00135730


DFT components:
N(Alpha)           :        0.999999890589 electrons
N(Beta)            :        0.999999890589 electrons
N(Total)           :        1.999999781178 electrons
E(X)               :       -5.145541776684 Eh       
E(C)               :       -0.202677242519 Eh       
E(XC)              :       -5.348219019203 Eh       
DFET-embed. en.    :        0.000000000000 Eh       

---------------
SCF CONVERGENCE
---------------

  Last Energy change         ...   -8.7206e-09  Tolerance :   1.0000e-09
  Last MAX-Density change    ...    7.6811e-10  Tolerance :   1.0000e-08
  Last RMS-Density change    ...    5.2969e-11  Tolerance :   1.0000e-09
  Last Orbital Gradient      ...    1.1236e-08  Tolerance :   2.0000e-06
  Last Orbital Rotation      ...    2.0066e-10  Tolerance :   2.0000e-06

             **** THE GBW FILE WAS UPDATED (Ne_zora-def2-tzvp_.gbw) ****
             **** DENSITY FILE WAS UPDATED (Ne_zora-def2-tzvp_.scfp) ****
             **** ENERGY FILE WAS UPDATED (Ne_zora-def2-tzvp_.en.tmp) ****
             **** THE GBW FILE WAS UPDATED (Ne_zora-def2-tzvp_.gbw) ****
             **** DENSITY FILE WAS UPDATED (Ne_zora-def2-tzvp_.scfp) ****
----------------
ORBITAL ENERGIES
----------------

  NO   OCC          E(Eh)            E(eV) 
   0   2.0000     -41.478804     -1128.6956 
   1   0.0000      -9.045821      -246.1493 
   2   0.0000      -8.598540      -233.9782 
   3   0.0000      -8.598540      -233.9782 
   4   0.0000      -8.598540      -233.9782 
   5   0.0000      -3.832278      -104.2816 
   6   0.0000      -3.688904      -100.3802 
   7   0.0000      -3.688904      -100.3802 
   8   0.0000      -3.688904      -100.3802 
   9   0.0000      -3.484979       -94.8311 
  10   0.0000      -3.484979       -94.8311 
  11   0.0000      -3.484979       -94.8311 
  12   0.0000      -3.484979       -94.8311 
  13   0.0000      -3.484979       -94.8311 
  14   0.0000      -1.901584       -51.7447 
  15   0.0000      -1.901584       -51.7447 
  16   0.0000      -1.901584       -51.7447 
  17   0.0000      -1.539734       -41.8983 
  18   0.0000       2.061763        56.1034 
  19   0.0000       2.061763        56.1034 
  20   0.0000       2.061763        56.1034 
  21   0.0000       2.061763        56.1034 
  22   0.0000       2.061763        56.1034 
  23   0.0000       2.061763        56.1034 
  24   0.0000       2.061763        56.1034 
  25   0.0000       2.556648        69.5699 
  26   0.0000       2.556648        69.5699 
  27   0.0000       2.556648        69.5699 
  28   0.0000       2.556648        69.5699 
  29   0.0000       2.556648        69.5699 
  30   0.0000      13.946028       379.4907 
  31   0.0000     117.466808      3196.4343 

                    ********************************
                    * MULLIKEN POPULATION ANALYSIS *
                    ********************************

-----------------------
MULLIKEN ATOMIC CHARGES
-----------------------
   0 Ne:    8.000000
Sum of atomic charges:    8.0000000

--------------------------------
MULLIKEN REDUCED ORBITAL CHARGES
--------------------------------
  0 Nes       :     2.000000  s :     2.000000
      pz      :     0.000000  p :     0.000000
      px      :     0.000000
      py      :     0.000000
      dz2     :     0.000000  d :     0.000000
      dxz     :     0.000000
      dyz     :     0.000000
      dx2y2   :     0.000000
      dxy     :     0.000000
      f0      :     0.000000  f :     0.000000
      f+1     :     0.000000
      f-1     :     0.000000
      f+2     :     0.000000
      f-2     :     0.000000
      f+3     :     0.000000
      f-3     :     0.000000


                     *******************************
                     * LOEWDIN POPULATION ANALYSIS *
                     *******************************

----------------------
LOEWDIN ATOMIC CHARGES
----------------------
   0 Ne:    8.000000

-------------------------------
LOEWDIN REDUCED ORBITAL CHARGES
-------------------------------
  0 Nes       :     2.000000  s :     2.000000
      pz      :     0.000000  p :     0.000000
      px      :     0.000000
      py      :     0.000000
      dz2     :     0.000000  d :     0.000000
      dxz     :     0.000000
      dyz     :     0.000000
      dx2y2   :     0.000000
      dxy     :     0.000000
      f0      :     0.000000  f :     0.000000
      f+1     :     0.000000
      f-1     :     0.000000
      f+2     :     0.000000
      f-2     :     0.000000
      f+3     :     0.000000
      f-3     :     0.000000


                      *****************************
                      * MAYER POPULATION ANALYSIS *
                      *****************************

  NA   - Mulliken gross atomic population
  ZA   - Total nuclear charge
  QA   - Mulliken gross atomic charge
  VA   - Mayer's total valence
  BVA  - Mayer's bonded valence
  FA   - Mayer's free valence

  ATOM       NA         ZA         QA         VA         BVA        FA
  0 Ne     2.0000    10.0000     8.0000     0.0000     0.0000     0.0000

  Mayer bond orders larger than 0.100000


--------------------------
ATOM BASIS FOR ELEMENT Ne
--------------------------
 NewGTO Ne
 S 11
    1      45069.464022000000         0.000257440938
    2       6755.976865600000         0.001879673582
    3       1537.650286400000         0.009537421734
    4        435.516976670000         0.038227469095
    5        142.286556380000         0.121038660047
    6         51.692153800000         0.283141950783
    7         20.315870490000         0.420039815574
    8          8.202194260000         0.264446652402
    9          1.968127630000         0.017215935842
   10          0.779047560000        -0.006256589242
   11          0.302295020000         0.001704941153
 S 11
    1      45069.464022000000         0.000091327311
    2       6755.976865600000         0.000666815213
    3       1537.650286400000         0.003383405483
    4        435.516976670000         0.013561215194
    5        142.286556380000         0.042938529664
    6         51.692153800000         0.100444759120
    7         20.315870490000         0.264204052241
    8          8.202194260000         0.099636343188
    9          1.968127630000        -0.883478634960
   10          0.779047560000        -0.245581528678
   11          0.302295020000         0.001118162862
 S 11
    1      45069.464022000000        -0.000048809333
    2       6755.976865600000        -0.000356375386
    3       1537.650286400000        -0.001808240741
    4        435.516976670000        -0.007247710017
    5        142.286556380000        -0.022948239307
    6         51.692153800000        -0.053682098280
    7         20.315870490000        -0.148254702609
    8          8.202194260000        -0.072723020508
    9          1.968127630000         1.092247016835
   10          0.779047560000        -0.328868797121
   11          0.302295020000        -1.042832929979
 S 11
    1      45069.464022000000        -0.000060067883
    2       6755.976865600000        -0.000438578311
    3       1537.650286400000        -0.002225336544
    4        435.516976670000        -0.008919494841
    5        142.286556380000        -0.028241568938
    6         51.692153800000        -0.066064618687
    7         20.315870490000        -0.150391388988
    8          8.202194260000        -0.196034022527
    9          1.968127630000         2.535306081204
   10          0.779047560000        -4.121218660696
   11          0.302295020000         2.249082203016
 S 11
    1      45069.464022000000         0.000139848193
    2       6755.976865600000         0.001021084509
    3       1537.650286400000         0.005180959973
    4        435.516976670000         0.020766093055
    5        142.286556380000         0.065751150607
    6         51.692153800000         0.153809609606
    7         20.315870490000         1.656446788833
    8          8.202194260000        -3.204928475275
    9          1.968127630000         2.975462703466
   10          0.779047560000        -2.226169118609
   11          0.302295020000         0.739842644549
 S 11
    1      45069.464022000000        -0.001114856276
    2       6755.976865600000        -0.008139986993
    3       1537.650286400000        -0.041302112026
    4        435.516976670000        -0.165545286242
    5        142.286556380000        -0.524161816050
    6         51.692153800000        -1.226155338009
    7         20.315870490000         3.377680654956
    8          8.202194260000        -2.506811218338
    9          1.968127630000         1.254726025381
   10          0.779047560000        -0.832837961475
   11          0.302295020000         0.267779283305
 P 6
    1         99.782996030000         0.011805748160
    2         23.176124100000         0.081874199271
    3          7.116394590000         0.308391743554
    4          2.441871140000         0.648418725218
    5          0.833896060000         0.102698059239
    6          0.266073110000         0.006981024007
 P 6
    1         99.782996030000         0.008191719385
    2         23.176124100000         0.056810500801
    3          7.116394590000         0.213985474667
    4          2.441871140000         0.449921865935
    5          0.833896060000        -0.771023813497
    6          0.266073110000        -0.471689653821
 P 6
    1         99.782996030000         0.008314823022
    2         23.176124100000         0.057664238455
    3          7.116394590000         0.217201208638
    4          2.441871140000         0.456683208174
    5          0.833896060000        -1.560671657127
    6          0.266073110000         1.354722243929
 D 2
    1          4.014000000000         0.188655688396
    2          1.096000000000         0.892020780367
 D 2
    1          4.014000000000         1.140168458063
    2          1.096000000000        -0.734761191762
 F 1
    1          2.544000000000         1.000000000000
 end
  // -----------------------------------------------
  // The basis set
  // -----------------------------------------------
  BAS[ATNO] = new BFNGauss[NSH];
  // Basis function   1 L = s
  InitBFNGauss(BAS[ATNO][  0]);
  BAS[ATNO][  0].l  = 0;
  BAS[ATNO][  0].ng = 11;
  BAS[ATNO][  0].a[  0] =     45069.464022000000;     BAS[ATNO][  0].d[  0] =         0.000257440938;
  BAS[ATNO][  0].a[  1] =      6755.976865600000;     BAS[ATNO][  0].d[  1] =         0.001879673582;
  BAS[ATNO][  0].a[  2] =      1537.650286400000;     BAS[ATNO][  0].d[  2] =         0.009537421734;
  BAS[ATNO][  0].a[  3] =       435.516976670000;     BAS[ATNO][  0].d[  3] =         0.038227469095;
  BAS[ATNO][  0].a[  4] =       142.286556380000;     BAS[ATNO][  0].d[  4] =         0.121038660047;
  BAS[ATNO][  0].a[  5] =        51.692153800000;     BAS[ATNO][  0].d[  5] =         0.283141950783;
  BAS[ATNO][  0].a[  6] =        20.315870490000;     BAS[ATNO][  0].d[  6] =         0.420039815574;
  BAS[ATNO][  0].a[  7] =         8.202194260000;     BAS[ATNO][  0].d[  7] =         0.264446652402;
  BAS[ATNO][  0].a[  8] =         1.968127630000;     BAS[ATNO][  0].d[  8] =         0.017215935842;
  BAS[ATNO][  0].a[  9] =         0.779047560000;     BAS[ATNO][  0].d[  9] =        -0.006256589242;
  BAS[ATNO][  0].a[ 10] =         0.302295020000;     BAS[ATNO][  0].d[ 10] =         0.001704941153;

  // Basis function   2 L = s
  InitBFNGauss(BAS[ATNO][  1]);
  BAS[ATNO][  1].l  = 0;
  BAS[ATNO][  1].ng = 11;
  BAS[ATNO][  1].a[  0] =     45069.464022000000;     BAS[ATNO][  1].d[  0] =        -0.000091327311;
  BAS[ATNO][  1].a[  1] =      6755.976865600000;     BAS[ATNO][  1].d[  1] =        -0.000666815213;
  BAS[ATNO][  1].a[  2] =      1537.650286400000;     BAS[ATNO][  1].d[  2] =        -0.003383405483;
  BAS[ATNO][  1].a[  3] =       435.516976670000;     BAS[ATNO][  1].d[  3] =        -0.013561215194;
  BAS[ATNO][  1].a[  4] =       142.286556380000;     BAS[ATNO][  1].d[  4] =        -0.042938529664;
  BAS[ATNO][  1].a[  5] =        51.692153800000;     BAS[ATNO][  1].d[  5] =        -0.100444759120;
  BAS[ATNO][  1].a[  6] =        20.315870490000;     BAS[ATNO][  1].d[  6] =        -0.264204052241;
  BAS[ATNO][  1].a[  7] =         8.202194260000;     BAS[ATNO][  1].d[  7] =        -0.099636343188;
  BAS[ATNO][  1].a[  8] =         1.968127630000;     BAS[ATNO][  1].d[  8] =         0.883478634960;
  BAS[ATNO][  1].a[  9] =         0.779047560000;     BAS[ATNO][  1].d[  9] =         0.245581528678;
  BAS[ATNO][  1].a[ 10] =         0.302295020000;     BAS[ATNO][  1].d[ 10] =        -0.001118162862;

  // Basis function   3 L = s
  InitBFNGauss(BAS[ATNO][  2]);
  BAS[ATNO][  2].l  = 0;
  BAS[ATNO][  2].ng = 11;
  BAS[ATNO][  2].a[  0] =     45069.464022000000;     BAS[ATNO][  2].d[  0] =        -0.000048809333;
  BAS[ATNO][  2].a[  1] =      6755.976865600000;     BAS[ATNO][  2].d[  1] =        -0.000356375386;
  BAS[ATNO][  2].a[  2] =      1537.650286400000;     BAS[ATNO][  2].d[  2] =        -0.001808240741;
  BAS[ATNO][  2].a[  3] =       435.516976670000;     BAS[ATNO][  2].d[  3] =        -0.007247710017;
  BAS[ATNO][  2].a[  4] =       142.286556380000;     BAS[ATNO][  2].d[  4] =        -0.022948239307;
  BAS[ATNO][  2].a[  5] =        51.692153800000;     BAS[ATNO][  2].d[  5] =        -0.053682098280;
  BAS[ATNO][  2].a[  6] =        20.315870490000;     BAS[ATNO][  2].d[  6] =        -0.148254702609;
  BAS[ATNO][  2].a[  7] =         8.202194260000;     BAS[ATNO][  2].d[  7] =        -0.072723020508;
  BAS[ATNO][  2].a[  8] =         1.968127630000;     BAS[ATNO][  2].d[  8] =         1.092247016835;
  BAS[ATNO][  2].a[  9] =         0.779047560000;     BAS[ATNO][  2].d[  9] =        -0.328868797121;
  BAS[ATNO][  2].a[ 10] =         0.302295020000;     BAS[ATNO][  2].d[ 10] =        -1.042832929979;

  // Basis function   4 L = s
  InitBFNGauss(BAS[ATNO][  3]);
  BAS[ATNO][  3].l  = 0;
  BAS[ATNO][  3].ng = 11;
  BAS[ATNO][  3].a[  0] =     45069.464022000000;     BAS[ATNO][  3].d[  0] =         0.000060067883;
  BAS[ATNO][  3].a[  1] =      6755.976865600000;     BAS[ATNO][  3].d[  1] =         0.000438578311;
  BAS[ATNO][  3].a[  2] =      1537.650286400000;     BAS[ATNO][  3].d[  2] =         0.002225336544;
  BAS[ATNO][  3].a[  3] =       435.516976670000;     BAS[ATNO][  3].d[  3] =         0.008919494841;
  BAS[ATNO][  3].a[  4] =       142.286556380000;     BAS[ATNO][  3].d[  4] =         0.028241568938;
  BAS[ATNO][  3].a[  5] =        51.692153800000;     BAS[ATNO][  3].d[  5] =         0.066064618687;
  BAS[ATNO][  3].a[  6] =        20.315870490000;     BAS[ATNO][  3].d[  6] =         0.150391388988;
  BAS[ATNO][  3].a[  7] =         8.202194260000;     BAS[ATNO][  3].d[  7] =         0.196034022527;
  BAS[ATNO][  3].a[  8] =         1.968127630000;     BAS[ATNO][  3].d[  8] =        -2.535306081204;
  BAS[ATNO][  3].a[  9] =         0.779047560000;     BAS[ATNO][  3].d[  9] =         4.121218660696;
  BAS[ATNO][  3].a[ 10] =         0.302295020000;     BAS[ATNO][  3].d[ 10] =        -2.249082203016;

  // Basis function   5 L = s
  InitBFNGauss(BAS[ATNO][  4]);
  BAS[ATNO][  4].l  = 0;
  BAS[ATNO][  4].ng = 11;
  BAS[ATNO][  4].a[  0] =     45069.464022000000;     BAS[ATNO][  4].d[  0] =        -0.000139848193;
  BAS[ATNO][  4].a[  1] =      6755.976865600000;     BAS[ATNO][  4].d[  1] =        -0.001021084509;
  BAS[ATNO][  4].a[  2] =      1537.650286400000;     BAS[ATNO][  4].d[  2] =        -0.005180959973;
  BAS[ATNO][  4].a[  3] =       435.516976670000;     BAS[ATNO][  4].d[  3] =        -0.020766093055;
  BAS[ATNO][  4].a[  4] =       142.286556380000;     BAS[ATNO][  4].d[  4] =        -0.065751150607;
  BAS[ATNO][  4].a[  5] =        51.692153800000;     BAS[ATNO][  4].d[  5] =        -0.153809609606;
  BAS[ATNO][  4].a[  6] =        20.315870490000;     BAS[ATNO][  4].d[  6] =        -1.656446788833;
  BAS[ATNO][  4].a[  7] =         8.202194260000;     BAS[ATNO][  4].d[  7] =         3.204928475275;
  BAS[ATNO][  4].a[  8] =         1.968127630000;     BAS[ATNO][  4].d[  8] =        -2.975462703466;
  BAS[ATNO][  4].a[  9] =         0.779047560000;     BAS[ATNO][  4].d[  9] =         2.226169118609;
  BAS[ATNO][  4].a[ 10] =         0.302295020000;     BAS[ATNO][  4].d[ 10] =        -0.739842644549;

  // Basis function   6 L = s
  InitBFNGauss(BAS[ATNO][  5]);
  BAS[ATNO][  5].l  = 0;
  BAS[ATNO][  5].ng = 11;
  BAS[ATNO][  5].a[  0] =     45069.464022000000;     BAS[ATNO][  5].d[  0] =        -0.001114856276;
  BAS[ATNO][  5].a[  1] =      6755.976865600000;     BAS[ATNO][  5].d[  1] =        -0.008139986993;
  BAS[ATNO][  5].a[  2] =      1537.650286400000;     BAS[ATNO][  5].d[  2] =        -0.041302112026;
  BAS[ATNO][  5].a[  3] =       435.516976670000;     BAS[ATNO][  5].d[  3] =        -0.165545286242;
  BAS[ATNO][  5].a[  4] =       142.286556380000;     BAS[ATNO][  5].d[  4] =        -0.524161816050;
  BAS[ATNO][  5].a[  5] =        51.692153800000;     BAS[ATNO][  5].d[  5] =        -1.226155338009;
  BAS[ATNO][  5].a[  6] =        20.315870490000;     BAS[ATNO][  5].d[  6] =         3.377680654956;
  BAS[ATNO][  5].a[  7] =         8.202194260000;     BAS[ATNO][  5].d[  7] =        -2.506811218338;
  BAS[ATNO][  5].a[  8] =         1.968127630000;     BAS[ATNO][  5].d[  8] =         1.254726025381;
  BAS[ATNO][  5].a[  9] =         0.779047560000;     BAS[ATNO][  5].d[  9] =        -0.832837961475;
  BAS[ATNO][  5].a[ 10] =         0.302295020000;     BAS[ATNO][  5].d[ 10] =         0.267779283305;

  // Basis function   7 L = p
  InitBFNGauss(BAS[ATNO][  6]);
  BAS[ATNO][  6].l  = 1;
  BAS[ATNO][  6].ng = 6;
  BAS[ATNO][  6].a[  0] =        99.782996030000;     BAS[ATNO][  6].d[  0] =         0.011805748160;
  BAS[ATNO][  6].a[  1] =        23.176124100000;     BAS[ATNO][  6].d[  1] =         0.081874199271;
  BAS[ATNO][  6].a[  2] =         7.116394590000;     BAS[ATNO][  6].d[  2] =         0.308391743554;
  BAS[ATNO][  6].a[  3] =         2.441871140000;     BAS[ATNO][  6].d[  3] =         0.648418725218;
  BAS[ATNO][  6].a[  4] =         0.833896060000;     BAS[ATNO][  6].d[  4] =         0.102698059239;
  BAS[ATNO][  6].a[  5] =         0.266073110000;     BAS[ATNO][  6].d[  5] =         0.006981024007;

  // Basis function   8 L = p
  InitBFNGauss(BAS[ATNO][  7]);
  BAS[ATNO][  7].l  = 1;
  BAS[ATNO][  7].ng = 6;
  BAS[ATNO][  7].a[  0] =        99.782996030000;     BAS[ATNO][  7].d[  0] =        -0.008191719385;
  BAS[ATNO][  7].a[  1] =        23.176124100000;     BAS[ATNO][  7].d[  1] =        -0.056810500801;
  BAS[ATNO][  7].a[  2] =         7.116394590000;     BAS[ATNO][  7].d[  2] =        -0.213985474667;
  BAS[ATNO][  7].a[  3] =         2.441871140000;     BAS[ATNO][  7].d[  3] =        -0.449921865935;
  BAS[ATNO][  7].a[  4] =         0.833896060000;     BAS[ATNO][  7].d[  4] =         0.771023813497;
  BAS[ATNO][  7].a[  5] =         0.266073110000;     BAS[ATNO][  7].d[  5] =         0.471689653821;

  // Basis function   9 L = p
  InitBFNGauss(BAS[ATNO][  8]);
  BAS[ATNO][  8].l  = 1;
  BAS[ATNO][  8].ng = 6;
  BAS[ATNO][  8].a[  0] =        99.782996030000;     BAS[ATNO][  8].d[  0] =        -0.008314823022;
  BAS[ATNO][  8].a[  1] =        23.176124100000;     BAS[ATNO][  8].d[  1] =        -0.057664238455;
  BAS[ATNO][  8].a[  2] =         7.116394590000;     BAS[ATNO][  8].d[  2] =        -0.217201208638;
  BAS[ATNO][  8].a[  3] =         2.441871140000;     BAS[ATNO][  8].d[  3] =        -0.456683208174;
  BAS[ATNO][  8].a[  4] =         0.833896060000;     BAS[ATNO][  8].d[  4] =         1.560671657127;
  BAS[ATNO][  8].a[  5] =         0.266073110000;     BAS[ATNO][  8].d[  5] =        -1.354722243929;

  // Basis function  10 L = d
  InitBFNGauss(BAS[ATNO][  9]);
  BAS[ATNO][  9].l  = 2;
  BAS[ATNO][  9].ng = 2;
  BAS[ATNO][  9].a[  0] =         4.014000000000;     BAS[ATNO][  9].d[  0] =         0.188655688396;
  BAS[ATNO][  9].a[  1] =         1.096000000000;     BAS[ATNO][  9].d[  1] =         0.892020780367;

  // Basis function  11 L = d
  InitBFNGauss(BAS[ATNO][ 10]);
  BAS[ATNO][ 10].l  = 2;
  BAS[ATNO][ 10].ng = 2;
  BAS[ATNO][ 10].a[  0] =         4.014000000000;     BAS[ATNO][ 10].d[  0] =         1.140168458063;
  BAS[ATNO][ 10].a[  1] =         1.096000000000;     BAS[ATNO][ 10].d[  1] =        -0.734761191762;

  // Basis function  12 L = f
  InitBFNGauss(BAS[ATNO][ 11]);
  BAS[ATNO][ 11].l  = 3;
  BAS[ATNO][ 11].ng = 1;
  BAS[ATNO][ 11].a[  0] =         2.544000000000;     BAS[ATNO][ 11].d[  0] =         1.000000000000;

-------
TIMINGS
-------

Total SCF time: 0 days 0 hours 0 min 1 sec 

Total time                  ....       1.408 sec
Sum of individual times     ....       1.241 sec  ( 88.1%)

Fock matrix formation       ....       0.827 sec  ( 58.7%)
  XC integration            ....       0.016 sec  (  2.0% of F)
    Basis function eval.    ....       0.002 sec  ( 11.0% of XC)
    Density eval.           ....       0.001 sec  (  5.7% of XC)
    XC-Functional eval.     ....       0.001 sec  (  9.0% of XC)
    XC-Potential eval.      ....       0.001 sec  (  4.1% of XC)
Diagonalization             ....       0.001 sec  (  0.0%)
Density matrix formation    ....       0.001 sec  (  0.0%)
Population analysis         ....       0.001 sec  (  0.0%)
Initial guess               ....       0.092 sec  (  6.5%)
Orbital Transformation      ....       0.000 sec  (  0.0%)
Orbital Orthonormalization  ....       0.000 sec  (  0.0%)
DIIS solution               ....       0.000 sec  (  0.0%)
SOSCF solution              ....       0.000 sec  (  0.0%)
Grid generation             ....       0.319 sec  ( 22.6%)

-------------------------   --------------------
FINAL SINGLE POINT ENERGY       -93.211500413626
-------------------------   --------------------


                            ***************************************
                            *     ORCA property calculations      *
                            ***************************************

                                    ---------------------
                                    Active property flags
                                    ---------------------
   (+) Dipole Moment


------------------------------------------------------------------------------
                       ORCA ELECTRIC PROPERTIES CALCULATION
------------------------------------------------------------------------------

Dipole Moment Calculation                       ... on
Quadrupole Moment Calculation                   ... off
Polarizability Calculation                      ... off
GBWName                                         ... Ne_zora-def2-tzvp_.gbw
Electron density file                           ... Ne_zora-def2-tzvp_.scfp
The origin for moment calculation is the CENTER OF MASS  = ( 0.000000,  0.000000  0.000000)

-------------
DIPOLE MOMENT
-------------
                                X             Y             Z
Electronic contribution:      0.00000       0.00000      -0.00000
Nuclear contribution   :      0.00000       0.00000       0.00000
                        -----------------------------------------
Total Dipole Moment    :      0.00000       0.00000      -0.00000
                        -----------------------------------------
Magnitude (a.u.)       :      0.00000
Magnitude (Debye)      :      0.00000



--------------------
Rotational spectrum 
--------------------
 
Rotational constants in cm-1:     0.000000     0.000000     0.000000 
Rotational constants in MHz :     0.000000     0.000000     0.000000 

 Dipole components along the rotational axes: 
x,y,z [a.u.] :     0.000000     0.000000    -0.000000 
x,y,z [Debye]:     0.000000     0.000000    -0.000000 

 

Timings for individual modules:

Sum of individual times         ...        2.126 sec (=   0.035 min)
GTO integral calculation        ...        0.476 sec (=   0.008 min)  22.4 %
SCF iterations                  ...        1.650 sec (=   0.028 min)  77.6 %
                             ****ORCA TERMINATED NORMALLY****
TOTAL RUN TIME: 0 days 0 hours 0 minutes 2 seconds 466 msec
