
                                 *****************
                                 * O   R   C   A *
                                 *****************

                                            #,                                       
                                            ###                                      
                                            ####                                     
                                            #####                                    
                                            ######                                   
                                           ########,                                 
                                     ,,################,,,,,                         
                               ,,#################################,,                 
                          ,,##########################################,,             
                       ,#########################################, ''#####,          
                    ,#############################################,,   '####,        
                  ,##################################################,,,,####,       
                ,###########''''           ''''###############################       
              ,#####''   ,,,,##########,,,,          '''####'''          '####       
            ,##' ,,,,###########################,,,                        '##       
           ' ,,###''''                  '''############,,,                           
         ,,##''                                '''############,,,,        ,,,,,,###''
      ,#''                                            '''#######################'''  
     '                                                          ''''####''''         
             ,#######,   #######,   ,#######,      ##                                
            ,#'     '#,  ##    ##  ,#'     '#,    #''#        ######   ,####,        
            ##       ##  ##   ,#'  ##            #'  '#       #        #'  '#        
            ##       ##  #######   ##           ,######,      #####,   #    #        
            '#,     ,#'  ##    ##  '#,     ,#' ,#      #,         ##   #,  ,#        
             '#######'   ##     ##  '#######'  #'      '#     #####' # '####'        



                  #######################################################
                  #                        -***-                        #
                  #          Department of theory and spectroscopy      #
                  #    Directorship and core code : Frank Neese         #
                  #        Max Planck Institute fuer Kohlenforschung    #
                  #                Kaiser Wilhelm Platz 1               #
                  #                 D-45470 Muelheim/Ruhr               #
                  #                      Germany                        #
                  #                                                     #
                  #                  All rights reserved                #
                  #                        -***-                        #
                  #######################################################


                         Program Version 5.0.1 -  RELEASE  -


 With contributions from (in alphabetic order):
   Daniel Aravena         : Magnetic Suceptibility
   Michael Atanasov       : Ab Initio Ligand Field Theory (pilot matlab implementation)
   Alexander A. Auer      : GIAO ZORA, VPT2 properties, NMR spectrum
   Ute Becker             : Parallelization
   Giovanni Bistoni       : ED, misc. LED, open-shell LED, HFLD
   Martin Brehm           : Molecular dynamics
   Dmytro Bykov           : SCF Hessian
   Vijay G. Chilkuri      : MRCI spin determinant printing, contributions to CSF-ICE
   Dipayan Datta          : RHF DLPNO-CCSD density
   Achintya Kumar Dutta   : EOM-CC, STEOM-CC
   Dmitry Ganyushin       : Spin-Orbit,Spin-Spin,Magnetic field MRCI
   Miquel Garcia          : C-PCM and meta-GGA Hessian, CC/C-PCM, Gaussian charge scheme
   Yang Guo               : DLPNO-NEVPT2, F12-NEVPT2, CIM, IAO-localization
   Andreas Hansen         : Spin unrestricted coupled pair/coupled cluster methods
   Benjamin Helmich-Paris : MC-RPA, TRAH-SCF, COSX integrals
   Lee Huntington         : MR-EOM, pCC
   Robert Izsak           : Overlap fitted RIJCOSX, COSX-SCS-MP3, EOM
   Marcus Kettner         : VPT2
   Christian Kollmar      : KDIIS, OOCD, Brueckner-CCSD(T), CCSD density, CASPT2, CASPT2-K
   Simone Kossmann        : Meta GGA functionals, TD-DFT gradient, OOMP2, MP2 Hessian
   Martin Krupicka        : Initial AUTO-CI
   Lucas Lang             : DCDCAS
   Marvin Lechner         : AUTO-CI (C++ implementation), FIC-MRCC
   Dagmar Lenk            : GEPOL surface, SMD
   Dimitrios Liakos       : Extrapolation schemes; Compound Job, initial MDCI parallelization
   Dimitrios Manganas     : Further ROCIS development; embedding schemes
   Dimitrios Pantazis     : SARC Basis sets
   Anastasios Papadopoulos: AUTO-CI, single reference methods and gradients
   Taras Petrenko         : DFT Hessian,TD-DFT gradient, ASA, ECA, R-Raman, ABS, FL, XAS/XES, NRVS
   Peter Pinski           : DLPNO-MP2, DLPNO-MP2 Gradient
   Christoph Reimann      : Effective Core Potentials
   Marius Retegan         : Local ZFS, SOC
   Christoph Riplinger    : Optimizer, TS searches, QM/MM, DLPNO-CCSD(T), (RO)-DLPNO pert. Triples
   Tobias Risthaus        : Range-separated hybrids, TD-DFT gradient, RPA, STAB
   Michael Roemelt        : Original ROCIS implementation
   Masaaki Saitow         : Open-shell DLPNO-CCSD energy and density
   Barbara Sandhoefer     : DKH picture change effects
   Avijit Sen             : IP-ROCIS
   Kantharuban Sivalingam : CASSCF convergence, NEVPT2, FIC-MRCI
   Bernardo de Souza      : ESD, SOC TD-DFT
   Georgi Stoychev        : AutoAux, RI-MP2 NMR, DLPNO-MP2 response
   Willem Van den Heuvel  : Paramagnetic NMR
   Boris Wezisla          : Elementary symmetry handling
   Frank Wennmohs         : Technical directorship


 We gratefully acknowledge several colleagues who have allowed us to
 interface, adapt or use parts of their codes:
   Stefan Grimme, W. Hujo, H. Kruse, P. Pracht,  : VdW corrections, initial TS optimization,
                  C. Bannwarth, S. Ehlert          DFT functionals, gCP, sTDA/sTD-DF
   Ed Valeev, F. Pavosevic, A. Kumar             : LibInt (2-el integral package), F12 methods
   Garnet Chan, S. Sharma, J. Yang, R. Olivares  : DMRG
   Ulf Ekstrom                                   : XCFun DFT Library
   Mihaly Kallay                                 : mrcc  (arbitrary order and MRCC methods)
   Jiri Pittner, Ondrej Demel                    : Mk-CCSD
   Frank Weinhold                                : gennbo (NPA and NBO analysis)
   Christopher J. Cramer and Donald G. Truhlar   : smd solvation model
   Lars Goerigk                                  : TD-DFT with DH, B97 family of functionals
   V. Asgeirsson, H. Jonsson                     : NEB implementation
   FAccTs GmbH                                   : IRC, NEB, NEB-TS, DLPNO-Multilevel, CI-OPT
                                                   MM, QMMM, 2- and 3-layer-ONIOM, Crystal-QMMM,
                                                   LR-CPCM, SF, NACMEs, symmetry and pop. for TD-DFT,
                                                   nearIR, NL-DFT gradient (VV10), updates on ESD,
                                                   ML-optimized integration grids
   S Lehtola, MJT Oliveira, MAL Marques          : LibXC Library
   Liviu Ungur et al                             : ANISO software


 Your calculation uses the libint2 library for the computation of 2-el integrals
 For citations please refer to: http://libint.valeyev.net

 Your ORCA version has been built with support for libXC version: 5.1.0
 For citations please refer to: https://tddft.org/programs/libxc/

 This ORCA versions uses:
   CBLAS   interface :  Fast vector & matrix operations
   LAPACKE interface :  Fast linear algebra routines
   SCALAPACK package :  Parallel linear algebra routines
   Shared memory     :  Shared parallel matrices
   BLAS/LAPACK       :  OpenBLAS 0.3.15  USE64BITINT DYNAMIC_ARCH NO_AFFINITY Haswell SINGLE_THREADED
        Core in use  :  Haswell
   Copyright (c) 2011-2014, The OpenBLAS Project


SCAN-COORDS

Reading of a custom basis requested
Basis file         : Rb_sarc-zora-tzvpp.basis
READING GTO-BASIS: RUBIDIUM
Basis successfully read

================================================================================

----- Orbital basis set information -----
================================================================================
                                        WARNINGS
                       Please study these warnings very carefully!
================================================================================


INFO   : the flag for use of the SHARK integral package has been found!

================================================================================
                                       INPUT FILE
================================================================================
NAME = Rb_sarc-zora-tzvpp_pbe.inp
|  1> !uks pbe nori verytightscf soscf notrah
|  2> 
|  3> %pal
|  4>   nprocs 32
|  5> end
|  6> %coords
|  7>   charge 0
|  8>   mult 2
|  9>   units bohrs
| 10>   coords
| 11>     Rb 0.0 0.0 0.0
| 12>   end
| 13> end
| 14> %basis
| 15>   gtoname "Rb_sarc-zora-tzvpp.basis"
| 16>   delECP Rb
| 17> end
| 18> %rel
| 19>   method zora
| 20>   modelpot 1, 0, 0, 0
| 21>   c 137.035999084
| 22> endd                         ****END OF INPUT****
================================================================================

                       ****************************
                       * Single Point Calculation *
                       ****************************

---------------------------------
CARTESIAN COORDINATES (ANGSTROEM)
---------------------------------
  Rb     0.000000    0.000000    0.000000

----------------------------
CARTESIAN COORDINATES (A.U.)
----------------------------
  NO LB      ZA    FRAG     MASS         X           Y           Z
   0 Rb   37.0000    0    85.479    0.000000    0.000000    0.000000

--------------------------------
INTERNAL COORDINATES (ANGSTROEM)
--------------------------------
 Rb     0   0   0     0.000000000000     0.00000000     0.00000000

---------------------------
INTERNAL COORDINATES (A.U.)
---------------------------
 Rb     0   0   0     0.000000000000     0.00000000     0.00000000

---------------------
BASIS SET INFORMATION
---------------------
There are 1 groups of distinct atoms

 Group   1 Type Rb  : 22s15p9d1f contracted to 15s10p5d1f pattern {811111111111111/6111111111/51111/1}

Atom   0Rb   basis set group =>   1


           ************************************************************
           *        Program running with 32 parallel MPI-processes    *
           *              working on a common directory               *
           ************************************************************
------------------------------------------------------------------------------
                           ORCA GTO INTEGRAL CALCULATION
------------------------------------------------------------------------------
------------------------------------------------------------------------------
                   ___                                                        
                  /   \      - P O W E R E D   B Y -                         
                 /     \                                                     
                 |  |  |   _    _      __       _____    __    __             
                 |  |  |  | |  | |    /  \     |  _  \  |  |  /  |          
                  \  \/   | |  | |   /    \    | | | |  |  | /  /          
                 / \  \   | |__| |  /  /\  \   | |_| |  |  |/  /          
                |  |  |   |  __  | /  /__\  \  |    /   |      \           
                |  |  |   | |  | | |   __   |  |    \   |  |\   \          
                \     /   | |  | | |  |  |  |  | |\  \  |  | \   \       
                 \___/    |_|  |_| |__|  |__|  |_| \__\ |__|  \__/        
                                                                              
                      - O R C A' S   B I G   F R I E N D -                    
                                      &                                       
                       - I N T E G R A L  F E E D E R -                       
                                                                              
 v1 FN, 2020, v2 2021                                                         
------------------------------------------------------------------------------


Reading SHARK input file Rb_sarc-zora-tzvpp_pbe.SHARKINP.tmp ... ok
----------------------
SHARK INTEGRAL PACKAGE
----------------------

Number of atoms                             ...      1
Number of basis functions                   ...     77
Number of shells                            ...     31
Maximum angular momentum                    ...      3
Integral batch strategy                     ... SHARK/LIBINT Hybrid
RI-J (if used) integral strategy            ... SPLIT-RIJ (Revised 2003 algorithm where possible)
Printlevel                                  ...      1
Contraction scheme used                     ... SEGMENTED contraction
Coulomb Range Separation                    ... NOT USED
Exchange Range Separation                   ... NOT USED
Finite Nucleus Model                        ... NOT USED
Auxiliary Coulomb fitting basis             ... NOT available
Auxiliary J/K fitting basis                 ... NOT available
Auxiliary Correlation fitting basis         ... NOT available
Auxiliary 'external' fitting basis          ... NOT available
Integral threshold                          ...     1.000000e-12
Primitive cut-off                           ...     1.000000e-14
Primitive pair pre-selection threshold      ...     1.000000e-14

Calculating pre-screening integrals         ... done (  5.1 sec) Dimension = 31
Organizing shell pair data                  ... done (  0.6 sec)
Shell pair information
Total number of shell pairs                 ...       496
Shell pairs after pre-screening             ...       496
Total number of primitive shell pairs       ...      1181
Primitive shell pairs kept                  ...      1181
          la=0 lb=0:    120 shell pairs
          la=1 lb=0:    150 shell pairs
          la=1 lb=1:     55 shell pairs
          la=2 lb=0:     75 shell pairs
          la=2 lb=1:     50 shell pairs
          la=2 lb=2:     15 shell pairs
          la=3 lb=0:     15 shell pairs
          la=3 lb=1:     10 shell pairs
          la=3 lb=2:      5 shell pairs
          la=3 lb=3:      1 shell pairs

Calculating one electron integrals          ... done (  1.3 sec)
Calculating Nuclear repulsion               ... done (  0.0 sec) ENN=      0.000000000000 Eh

SHARK setup successfully completed in  12.7 seconds

Maximum memory used throughout the entire GTOINT-calculation: 15.9 MB


           ************************************************************
           *        Program running with 32 parallel MPI-processes    *
           *              working on a common directory               *
           ************************************************************
------------------------------------------------------------------------------
                          ORCA RELATIVISTIC HAMILTONIAN
------------------------------------------------------------------------------

Relativistic Method            ... ZORA(MP)
Treatment of potential         ... Van Wuellen
Nucleus model                  ... Point Nucleus
Speed of light used            ... 137.03599908400000


            *************************************************
            *         ZERO ORDER REGULAR APPROXIMATION      *
            *                     ZORA(MP)                  *
            *            Programmed by FN according to      *
            *                   C. van Wuellen              *
            *       J. Chem. Phys. (1998) vol 109, 392-399  *
            *************************************************

Terms included in model potential: +V(e,N)
Basis function cutoff value   ... 1.000000e-12
Loading the fitted atomic densities  (DKH4)  ... done
Calculating the cutoffs                      ... done
Number of fit functions                      ... 29
Setting up the integration grid ... done

Maximum memory used throughout the entire REL-calculation: 10.3 MB


           ************************************************************
           *        Program running with 32 parallel MPI-processes    *
           *              working on a common directory               *
           ************************************************************
-------------------------------------------------------------------------------
                                 ORCA SCF
-------------------------------------------------------------------------------

------------
SCF SETTINGS
------------
Hamiltonian:
 Density Functional     Method          .... DFT(GTOs)
 Exchange Functional    Exchange        .... PBE
   PBE kappa parameter   XKappa         ....  0.804000
   PBE mue parameter    XMuePBE         ....  0.219520
 Correlation Functional Correlation     .... PBE
   PBE beta parameter  CBetaPBE         ....  0.066725
 LDA part of GGA corr.  LDAOpt          .... PW91-LDA
 Gradients option       PostSCFGGA      .... off
   Density functional embedding theory  .... OFF
   NL short-range parameter             ....  6.400000

Relativistic Settings:
 Scalar relativistic method             .... ZORA
 Speed of light used       Velit        ....       137.035999
Orbital energies will be scaled


General Settings:
 Integral files         IntName         .... Rb_sarc-zora-tzvpp_pbe
 Hartree-Fock type      HFTyp           .... UHF
 Total Charge           Charge          ....    0
 Multiplicity           Mult            ....    2
 Number of Electrons    NEL             ....   37
 Basis Dimension        Dim             ....   77
 Nuclear Repulsion      ENuc            ....      0.0000000000 Eh

Convergence Acceleration:
 DIIS                   CNVDIIS         .... on
   Start iteration      DIISMaxIt       ....    12
   Startup error        DIISStart       ....  0.200000
   # of expansion vecs  DIISMaxEq       ....     5
   Bias factor          DIISBfac        ....   1.050
   Max. coefficient     DIISMaxC        ....  10.000
 Trust-Rad. Augm. Hess. CNVTRAH         .... off
 SOSCF                  CNVSOSCF        .... on
   Start iteration      SOSCFMaxIt      ....   150
   Startup grad/error   SOSCFStart      ....  0.003300
 Level Shifting         CNVShift        .... on
   Level shift para.    LevelShift      ....    0.2500
   Turn off err/grad.   ShiftErr        ....    0.0010
 Zerner damping         CNVZerner       .... off
 Static damping         CNVDamp         .... on
   Fraction old density DampFac         ....    0.7000
   Max. Damping (<1)    DampMax         ....    0.9800
   Min. Damping (>=0)   DampMin         ....    0.0000
   Turn off err/grad.   DampErr         ....    0.1000
 Fernandez-Rico         CNVRico         .... off

SCF Procedure:
 Maximum # iterations   MaxIter         ....   125
 SCF integral mode      SCFMode         .... Direct
   Integral package                     .... SHARK and LIBINT hybrid scheme
 Reset frequency        DirectResetFreq ....    20
 Integral Threshold     Thresh          ....  1.000e-12 Eh
 Primitive CutOff       TCut            ....  1.000e-14 Eh

Convergence Tolerance:
 Convergence Check Mode ConvCheckMode   .... Total+1el-Energy
 Convergence forced     ConvForced      .... 0
 Energy Change          TolE            ....  1.000e-09 Eh
 1-El. energy change                    ....  1.000e-06 Eh
 Orbital Gradient       TolG            ....  2.000e-06
 Orbital Rotation angle TolX            ....  2.000e-06
 DIIS Error             TolErr          ....  1.000e-08


Diagonalization of the overlap matrix:
Smallest eigenvalue                        ... 7.215e-04
Time for diagonalization                   ...    0.158 sec
Threshold for overlap eigenvalues          ... 1.000e-08
Number of eigenvalues below threshold      ... 0
Time for construction of square roots      ...    0.835 sec
Total time needed                          ...    0.994 sec

Time for model grid setup =    0.325 sec

------------------------------
INITIAL GUESS: MODEL POTENTIAL
------------------------------
Loading ZORA relativistic densities                ... done
Calculating cut-offs                               ... done
Initializing the effective Hamiltonian             ... done
Setting up the integral package (SHARK)            ... done
Starting the Coulomb interaction                   ... done (   4.8 sec)
Reading the grid                                   ... done
Mapping shells                                     ... done
Starting the XC term evaluation                    ... done (   1.3 sec)
  promolecular density results
     # of electrons  =     37.000037192
     EX              =   -100.521093553
     EC              =     -1.798213707
     EX+EC           =   -102.319307260
Transforming the Hamiltonian                       ... done (   0.1 sec)
Diagonalizing the Hamiltonian                      ... done (   0.2 sec)
Back transforming the eigenvectors                 ... done (   0.0 sec)
Now organizing SCF variables                       ... done
                      ------------------
                      INITIAL GUESS DONE (   9.3 sec)
                      ------------------
-------------------
DFT GRID GENERATION
-------------------

General Integration Accuracy     IntAcc      ... 4.388
Radial Grid Type                 RadialGrid  ... OptM3 with GC (2021)
Angular Grid (max. ang.)         AngularGrid ... 4 (Lebedev-302)
Angular grid pruning method      GridPruning ... 4 (adaptive)
Weight generation scheme         WeightScheme... Becke
Basis function cutoff            BFCut       ... 1.0000e-12
Integration weight cutoff        WCut        ... 1.0000e-14
Angular grids for H and He will be reduced by one unit
Partially contracted basis set               ... off
Rotationally invariant grid construction     ... off

Total number of grid points                  ...    27544
Total number of batches                      ...      431
Average number of points per batch           ...       63
Average number of grid points per atom       ...    27544
Time for grid setup =    5.155 sec

--------------
SCF ITERATIONS
--------------
ITER       Energy         Delta-E        Max-DP      RMS-DP      [F,P]     Damp
               ***  Starting incremental Fock matrix formation  ***
  0  -3013.5071010675   0.000000000000 0.01997674  0.00038167  0.7746287 0.7000
  1  -3013.5086382430  -0.001537175500 0.02101085  0.00038012  0.5335700 0.7000
  2  -3013.5094783685  -0.000840125501 0.01822687  0.00031999  0.3679178 0.7000
                      *** Initiating the SOSCF procedure ***
                      *** Re-Reading the Fockian *** 
                      *** Removing any level shift *** 
ITER      Energy       Delta-E        Grad      Rot      Max-DP    RMS-DP
  3  -3013.51001898  -0.0005406082  0.001935  0.001935  0.049280  0.000850
               *** Restarting incremental Fock matrix formation ***
  4  -3013.51121515  -0.0011961764  0.003803  0.002366  0.017547  0.000264
  5  -3013.51122195  -0.0000068005  0.001848  0.000528  0.003380  0.000049
  6  -3013.51123051  -0.0000085559  0.000264  0.000107  0.000545  0.000009
  7  -3013.51123060  -0.0000000876  0.000076  0.000107  0.000630  0.000008
  8  -3013.51123063  -0.0000000313  0.000008  0.000010  0.000073  0.000001
  9  -3013.51123063  -0.0000000000  0.000001  0.000002  0.000011  0.000000
                 **** Energy Check signals convergence ****
              ***Rediagonalizing the Fockian in SOSCF/NRSCF***

               *****************************************************
               *                     SUCCESS                       *
               *           SCF CONVERGED AFTER  10 CYCLES          *
               *****************************************************


----------------
TOTAL SCF ENERGY
----------------

Total Energy       :        -3013.51123063 Eh          -82001.80948 eV

Components:
Nuclear Repulsion  :            0.00000000 Eh               0.00000 eV
Electronic Energy  :        -3013.51123063 Eh          -82001.80948 eV
One Electron Energy:        -4167.34640965 Eh         -113399.26091 eV
Two Electron Energy:         1153.83517902 Eh           31397.45144 eV

Virial components:
Potential Energy   :        -6100.57702273 Eh         -166005.14033 eV
Kinetic Energy     :         3087.06579211 Eh           84003.33085 eV
Virial Ratio       :            1.97617331


DFT components:
N(Alpha)           :       18.999999999995 electrons
N(Beta)            :       18.000000000033 electrons
N(Total)           :       37.000000000028 electrons
E(X)               :      -99.513677948715 Eh       
E(C)               :       -1.796791713309 Eh       
E(XC)              :     -101.310469662024 Eh       
DFET-embed. en.    :        0.000000000000 Eh       

---------------
SCF CONVERGENCE
---------------

  Last Energy change         ...   -1.0459e-11  Tolerance :   1.0000e-09
  Last MAX-Density change    ...    1.8838e-07  Tolerance :   1.0000e-08
  Last RMS-Density change    ...    2.6660e-09  Tolerance :   1.0000e-09
  Last Orbital Gradient      ...    3.1645e-08  Tolerance :   2.0000e-06
  Last Orbital Rotation      ...    2.7356e-08  Tolerance :   2.0000e-06

             **** THE GBW FILE WAS UPDATED (Rb_sarc-zora-tzvpp_pbe.gbw) ****
             **** DENSITY Rb_sarc-zora-tzvpp_pbe.scfp WAS UPDATED ****
             **** ENERGY FILE WAS UPDATED (Rb_sarc-zora-tzvpp_pbe.en.tmp) ****
----------------------
UHF SPIN CONTAMINATION
----------------------

Warning: in a DFT calculation there is little theoretical justification to 
         calculate <S**2> as in Hartree-Fock theory. We will do it anyways
         but you should keep in mind that the values have only limited relevance

Expectation value of <S**2>     :     0.750133
Ideal value S*(S+1) for S=0.5   :     0.750000
Deviation                       :     0.000133

             **** THE GBW FILE WAS UPDATED (Rb_sarc-zora-tzvpp_pbe.gbw) ****
             **** DENSITY Rb_sarc-zora-tzvpp_pbe.scfp WAS UPDATED ****
----------------
ORBITAL ENERGIES
----------------
                 SPIN UP ORBITALS
  NO   OCC          E(Eh)            E(eV) 
   0   1.0000    -564.552154    -15362.2451 
   1   1.0000     -74.367781     -2023.6502 
   2   1.0000     -65.872353     -1792.4779 
   3   1.0000     -65.872353     -1792.4779 
   4   1.0000     -65.872353     -1792.4779 
   5   1.0000     -11.002959      -299.4057 
   6   1.0000      -8.292064      -225.6385 
   7   1.0000      -8.292064      -225.6385 
   8   1.0000      -8.292064      -225.6385 
   9   1.0000      -3.820688      -103.9662 
  10   1.0000      -3.820688      -103.9662 
  11   1.0000      -3.820688      -103.9662 
  12   1.0000      -3.820688      -103.9662 
  13   1.0000      -3.820688      -103.9662 
  14   1.0000      -1.171299       -31.8727 
  15   1.0000      -0.583388       -15.8748 
  16   1.0000      -0.583388       -15.8748 
  17   1.0000      -0.583388       -15.8748 
  18   1.0000      -0.087339        -2.3766 
  19   0.0000      -0.026447        -0.7197 
  20   0.0000      -0.026447        -0.7197 
  21   0.0000      -0.026447        -0.7197 
  22   0.0000       0.031001         0.8436 
  23   0.0000       0.031001         0.8436 
  24   0.0000       0.031001         0.8436 
  25   0.0000       0.031001         0.8436 
  26   0.0000       0.031001         0.8436 
  27   0.0000       0.087931         2.3927 
  28   0.0000       0.151908         4.1336 
  29   0.0000       0.151908         4.1336 
  30   0.0000       0.151908         4.1336 
  31   0.0000       0.280785         7.6405 
  32   0.0000       0.280785         7.6405 
  33   0.0000       0.280785         7.6405 
  34   0.0000       0.280785         7.6405 
  35   0.0000       0.280785         7.6405 
  36   0.0000       0.577492        15.7143 
  37   0.0000       0.787207        21.4210 
  38   0.0000       0.787207        21.4210 
  39   0.0000       0.787207        21.4210 
  40   0.0000       1.092508        29.7287 
  41   0.0000       1.092508        29.7287 
  42   0.0000       1.092508        29.7287 
  43   0.0000       1.092508        29.7287 
  44   0.0000       1.092508        29.7287 
  45   0.0000       1.092508        29.7287 
  46   0.0000       1.092508        29.7287 
  47   0.0000       1.227423        33.3999 
  48   0.0000       1.227423        33.3999 
  49   0.0000       1.227423        33.3999 
  50   0.0000       1.227423        33.3999 
  51   0.0000       1.227423        33.3999 
  52   0.0000       2.256331        61.3979 
  53   0.0000       3.287407        89.4549 
  54   0.0000       3.287407        89.4549 
  55   0.0000       3.287407        89.4549 
  56   0.0000       4.877273       132.7173 
  57   0.0000       4.877273       132.7173 
  58   0.0000       4.877273       132.7173 
  59   0.0000       4.877273       132.7173 
  60   0.0000       4.877273       132.7173 
  61   0.0000       8.237068       224.1420 
  62   0.0000      13.857566       377.0835 
  63   0.0000      13.857566       377.0835 
  64   0.0000      13.857566       377.0835 
  65   0.0000      30.160337       820.7045 
  66   0.0000      58.257555      1585.2687 
  67   0.0000      58.257555      1585.2687 
  68   0.0000      58.257555      1585.2687 
  69   0.0000     107.509336      2925.4778 
  70   0.0000     252.370879      6867.3607 
  71   0.0000     252.370879      6867.3607 
  72   0.0000     252.370879      6867.3607 
  73   0.0000     355.260933      9667.1414 
  74   0.0000    1075.220096     29258.2263 
  75   0.0000    3039.392530     82706.0754 
  76   0.0000   10976.699076    298691.1670 

                 SPIN DOWN ORBITALS
  NO   OCC          E(Eh)            E(eV) 
   0   1.0000    -564.551933    -15362.2391 
   1   1.0000     -74.367621     -2023.6459 
   2   1.0000     -65.872210     -1792.4740 
   3   1.0000     -65.872210     -1792.4740 
   4   1.0000     -65.872210     -1792.4740 
   5   1.0000     -11.002657      -299.3975 
   6   1.0000      -8.291739      -225.6297 
   7   1.0000      -8.291739      -225.6297 
   8   1.0000      -8.291739      -225.6297 
   9   1.0000      -3.820320      -103.9562 
  10   1.0000      -3.820320      -103.9562 
  11   1.0000      -3.820320      -103.9562 
  12   1.0000      -3.820320      -103.9562 
  13   1.0000      -3.820320      -103.9562 
  14   1.0000      -1.169494       -31.8236 
  15   1.0000      -0.580060       -15.7842 
  16   1.0000      -0.580060       -15.7842 
  17   1.0000      -0.580060       -15.7842 
  18   0.0000      -0.055930        -1.5219 
  19   0.0000       0.014782         0.4022 
  20   0.0000       0.014782         0.4022 
  21   0.0000       0.014782         0.4022 
  22   0.0000       0.052281         1.4226 
  23   0.0000       0.052281         1.4226 
  24   0.0000       0.052281         1.4226 
  25   0.0000       0.052281         1.4226 
  26   0.0000       0.052281         1.4226 
  27   0.0000       0.125391         3.4121 
  28   0.0000       0.182125         4.9559 
  29   0.0000       0.182125         4.9559 
  30   0.0000       0.182125         4.9559 
  31   0.0000       0.302976         8.2444 
  32   0.0000       0.302976         8.2444 
  33   0.0000       0.302976         8.2444 
  34   0.0000       0.302976         8.2444 
  35   0.0000       0.302976         8.2444 
  36   0.0000       0.600511        16.3407 
  37   0.0000       0.806551        21.9474 
  38   0.0000       0.806551        21.9474 
  39   0.0000       0.806551        21.9474 
  40   0.0000       1.098469        29.8909 
  41   0.0000       1.098469        29.8909 
  42   0.0000       1.098469        29.8909 
  43   0.0000       1.098469        29.8909 
  44   0.0000       1.098469        29.8909 
  45   0.0000       1.098469        29.8909 
  46   0.0000       1.098469        29.8909 
  47   0.0000       1.238237        33.6942 
  48   0.0000       1.238237        33.6942 
  49   0.0000       1.238237        33.6942 
  50   0.0000       1.238237        33.6942 
  51   0.0000       1.238237        33.6942 
  52   0.0000       2.264526        61.6209 
  53   0.0000       3.292327        89.5888 
  54   0.0000       3.292327        89.5888 
  55   0.0000       3.292327        89.5888 
  56   0.0000       4.879813       132.7865 
  57   0.0000       4.879813       132.7865 
  58   0.0000       4.879813       132.7865 
  59   0.0000       4.879813       132.7865 
  60   0.0000       4.879813       132.7865 
  61   0.0000       8.239627       224.2117 
  62   0.0000      13.858885       377.1194 
  63   0.0000      13.858885       377.1194 
  64   0.0000      13.858885       377.1194 
  65   0.0000      30.161245       820.7292 
  66   0.0000      58.257845      1585.2766 
  67   0.0000      58.257845      1585.2766 
  68   0.0000      58.257845      1585.2766 
  69   0.0000     107.509646      2925.4862 
  70   0.0000     252.370982      6867.3635 
  71   0.0000     252.370982      6867.3635 
  72   0.0000     252.370982      6867.3635 
  73   0.0000     355.261162      9667.1477 
  74   0.0000    1075.220254     29258.2306 
  75   0.0000    3039.392797     82706.0827 
  76   0.0000   10976.699685    298691.1836 

                    ********************************
                    * MULLIKEN POPULATION ANALYSIS *
                    ********************************

--------------------------------------------
MULLIKEN ATOMIC CHARGES AND SPIN POPULATIONS
--------------------------------------------
   0 Rb:    0.000000    1.000000
Sum of atomic charges         :    0.0000000
Sum of atomic spin populations:    1.0000000

-----------------------------------------------------
MULLIKEN REDUCED ORBITAL CHARGES AND SPIN POPULATIONS
-----------------------------------------------------
CHARGE
  0 Rbs       :     9.000000  s :     9.000000
      pz      :     6.000000  p :    18.000000
      px      :     6.000000
      py      :     6.000000
      dz2     :     2.000000  d :    10.000000
      dxz     :     2.000000
      dyz     :     2.000000
      dx2y2   :     2.000000
      dxy     :     2.000000
      f0      :     0.000000  f :     0.000000
      f+1     :     0.000000
      f-1     :     0.000000
      f+2     :     0.000000
      f-2     :     0.000000
      f+3     :     0.000000
      f-3     :     0.000000

SPIN
  0 Rbs       :     1.000000  s :     1.000000
      pz      :     0.000000  p :     0.000000
      px      :    -0.000000
      py      :     0.000000
      dz2     :     0.000000  d :     0.000000
      dxz     :    -0.000000
      dyz     :    -0.000000
      dx2y2   :     0.000000
      dxy     :     0.000000
      f0      :     0.000000  f :    -0.000000
      f+1     :    -0.000000
      f-1     :     0.000000
      f+2     :     0.000000
      f-2     :     0.000000
      f+3     :    -0.000000
      f-3     :    -0.000000


                     *******************************
                     * LOEWDIN POPULATION ANALYSIS *
                     *******************************

-------------------------------------------
LOEWDIN ATOMIC CHARGES AND SPIN POPULATIONS
-------------------------------------------
   0 Rb:    0.000000    1.000000

----------------------------------------------------
LOEWDIN REDUCED ORBITAL CHARGES AND SPIN POPULATIONS
----------------------------------------------------
CHARGE
  0 Rbs       :     9.000000  s :     9.000000
      pz      :     6.000000  p :    18.000000
      px      :     6.000000
      py      :     6.000000
      dz2     :     2.000000  d :    10.000000
      dxz     :     2.000000
      dyz     :     2.000000
      dx2y2   :     2.000000
      dxy     :     2.000000
      f0      :     0.000000  f :     0.000000
      f+1     :     0.000000
      f-1     :     0.000000
      f+2     :     0.000000
      f-2     :     0.000000
      f+3     :     0.000000
      f-3     :     0.000000

SPIN
  0 Rbs       :     1.000000  s :     1.000000
      pz      :     0.000000  p :     0.000000
      px      :    -0.000000
      py      :     0.000000
      dz2     :     0.000000  d :     0.000000
      dxz     :    -0.000000
      dyz     :    -0.000000
      dx2y2   :     0.000000
      dxy     :     0.000000
      f0      :     0.000000  f :    -0.000000
      f+1     :    -0.000000
      f-1     :     0.000000
      f+2     :     0.000000
      f-2     :     0.000000
      f+3     :    -0.000000
      f-3     :    -0.000000


                      *****************************
                      * MAYER POPULATION ANALYSIS *
                      *****************************

  NA   - Mulliken gross atomic population
  ZA   - Total nuclear charge
  QA   - Mulliken gross atomic charge
  VA   - Mayer's total valence
  BVA  - Mayer's bonded valence
  FA   - Mayer's free valence

  ATOM       NA         ZA         QA         VA         BVA        FA
  0 Rb    37.0000    37.0000    -0.0000     1.0003     0.0000     1.0003

  Mayer bond orders larger than 0.100000


-------
TIMINGS
-------

Total SCF time: 0 days 0 hours 1 min 58 sec 

Total time                  ....     118.139 sec
Sum of individual times     ....      93.231 sec  ( 78.9%)

Fock matrix formation       ....      74.304 sec  ( 62.9%)
  XC integration            ....      18.884 sec  ( 25.4% of F)
    Basis function eval.    ....       0.016 sec  (  0.1% of XC)
    Density eval.           ....       0.213 sec  (  1.1% of XC)
    XC-Functional eval.     ....       0.107 sec  (  0.6% of XC)
    XC-Potential eval.      ....       0.043 sec  (  0.2% of XC)
Diagonalization             ....       0.076 sec  (  0.1%)
Density matrix formation    ....       0.004 sec  (  0.0%)
Population analysis         ....       3.967 sec  (  3.4%)
Initial guess               ....       8.987 sec  (  7.6%)
Orbital Transformation      ....       0.000 sec  (  0.0%)
Orbital Orthonormalization  ....       0.000 sec  (  0.0%)
DIIS solution               ....       0.016 sec  (  0.0%)
SOSCF solution              ....       0.397 sec  (  0.3%)
Grid generation             ....       5.480 sec  (  4.6%)

Maximum memory used throughout the entire SCF-calculation: 227.7 MB

-------------------------   --------------------
FINAL SINGLE POINT ENERGY     -3013.511230628472
-------------------------   --------------------


                            ***************************************
                            *     ORCA property calculations      *
                            ***************************************

                                    ---------------------
                                    Active property flags
                                    ---------------------
   (+) Dipole Moment


------------------------------------------------------------------------------
                       ORCA ELECTRIC PROPERTIES CALCULATION
------------------------------------------------------------------------------

Dipole Moment Calculation                       ... on
Quadrupole Moment Calculation                   ... off
Polarizability Calculation                      ... off
GBWName                                         ... Rb_sarc-zora-tzvpp_pbe.gbw
Electron density                                ... Rb_sarc-zora-tzvpp_pbe.scfp
The origin for moment calculation is the CENTER OF MASS  = ( 0.000000,  0.000000  0.000000)

-------------
DIPOLE MOMENT
-------------
                                X             Y             Z
Electronic contribution:      0.00000      -0.00000      -0.00000
Nuclear contribution   :      0.00000       0.00000       0.00000
                        -----------------------------------------
Total Dipole Moment    :      0.00000      -0.00000      -0.00000
                        -----------------------------------------
Magnitude (a.u.)       :      0.00000
Magnitude (Debye)      :      0.00000



--------------------
Rotational spectrum 
--------------------
 
Rotational constants in cm-1:     0.000000     0.000000     0.000000 
Rotational constants in MHz :     0.000000     0.000000     0.000000 

 Dipole components along the rotational axes: 
x,y,z [a.u.] :     0.000000    -0.000000    -0.000000 
x,y,z [Debye]:     0.000000    -0.000000    -0.000000 

 

Timings for individual modules:

Sum of individual times         ...      213.023 sec (=   3.550 min)
GTO integral calculation        ...       77.596 sec (=   1.293 min)  36.4 %
Relativistic integrals          ...       13.564 sec (=   0.226 min)   6.4 %
SCF iterations                  ...      121.863 sec (=   2.031 min)  57.2 %
                             ****ORCA TERMINATED NORMALLY****
TOTAL RUN TIME: 0 days 0 hours 3 minutes 41 seconds 569 msec
