
                                 *****************
                                 * O   R   C   A *
                                 *****************

           --- An Ab Initio, DFT and Semiempirical electronic structure package ---

                  #######################################################
                  #                        -***-                        #
                  #          Department of theory and spectroscopy      #
                  #               Directorship: Frank Neese             #
                  #        Max Planck Institute fuer Kohlenforschung    #
                  #                Kaiser Wilhelm Platz 1               #
                  #                 D-45470 Muelheim/Ruhr               #
                  #                      Germany                        #
                  #                                                     #
                  #                  All rights reserved                #
                  #                        -***-                        #
                  #######################################################


                         Program Version 4.2.1 -  RELEASE  -


 With contributions from (in alphabetic order):
   Daniel Aravena         : Magnetic Suceptibility
   Michael Atanasov       : Ab Initio Ligand Field Theory (pilot matlab implementation)
   Alexander A. Auer      : GIAO ZORA, VPT2
   Ute Becker             : Parallelization
   Giovanni Bistoni       : ED, misc. LED, open-shell LED, HFLD
   Martin Brehm           : Molecular dynamics
   Dmytro Bykov           : SCF Hessian
   Vijay G. Chilkuri      : MRCI spin determinant printing, contributions to CSF-ICE
   Dipayan Datta          : RHF DLPNO-CCSD density
   Achintya Kumar Dutta   : EOM-CC, STEOM-CC
   Dmitry Ganyushin       : Spin-Orbit,Spin-Spin,Magnetic field MRCI
   Miquel Garcia          : C-PCM Hessian, Gaussian charge scheme
   Yang Guo               : DLPNO-NEVPT2, CIM, IAO-localization
   Andreas Hansen         : Spin unrestricted coupled pair/coupled cluster methods
   Benjamin Helmich-Paris : CASSCF linear response (MC-RPA)
   Lee Huntington         : MR-EOM, pCC
   Robert Izsak           : Overlap fitted RIJCOSX, COSX-SCS-MP3, EOM
   Christian Kollmar      : KDIIS, OOCD, Brueckner-CCSD(T), CCSD density
   Simone Kossmann        : Meta GGA functionals, TD-DFT gradient, OOMP2, MP2 Hessian
   Martin Krupicka        : AUTO-CI
   Lucas Lang             : DCDCAS
   Dagmar Lenk            : GEPOL surface, SMD
   Dimitrios Liakos       : Extrapolation schemes; Compound Job, initial MDCI parallelization
   Dimitrios Manganas     : Further ROCIS development; embedding schemes
   Dimitrios Pantazis     : SARC Basis sets
   Taras Petrenko         : DFT Hessian,TD-DFT gradient, ASA, ECA, R-Raman, ABS, FL, XAS/XES, NRVS
   Peter Pinski           : DLPNO-MP2, DLPNO-MP2 Gradient
   Christoph Reimann      : Effective Core Potentials
   Marius Retegan         : Local ZFS, SOC
   Christoph Riplinger    : Optimizer, TS searches, QM/MM, DLPNO-CCSD(T), (RO)-DLPNO pert. Triples
   Tobias Risthaus        : Range-separated hybrids, TD-DFT gradient, RPA, STAB
   Michael Roemelt        : Original ROCIS implementation
   Masaaki Saitow         : Open-shell DLPNO-CCSD energy and density
   Barbara Sandhoefer     : DKH picture change effects
   Avijit Sen             : IP-ROCIS
   Kantharuban Sivalingam : CASSCF convergence, NEVPT2, FIC-MRCI
   Bernardo de Souza      : ESD, SOC TD-DFT
   Georgi Stoychev        : AutoAux, RI-MP2 NMR
   Willem Van den Heuvel  : Paramagnetic NMR
   Boris Wezisla          : Elementary symmetry handling
   Frank Wennmohs         : Technical directorship


 We gratefully acknowledge several colleagues who have allowed us to
 interface, adapt or use parts of their codes:
   Stefan Grimme, W. Hujo, H. Kruse,             : VdW corrections, initial TS optimization,
                  C. Bannwarth                     DFT functionals, gCP, sTDA/sTD-DF
   Ed Valeev, F. Pavosevic, A. Kumar             : LibInt (2-el integral package), F12 methods
   Garnet Chan, S. Sharma, J. Yang, R. Olivares  : DMRG
   Ulf Ekstrom                                   : XCFun DFT Library
   Mihaly Kallay                                 : mrcc  (arbitrary order and MRCC methods)
   Andreas Klamt, Michael Diedenhofen            : otool_cosmo (COSMO solvation model)
   Jiri Pittner, Ondrej Demel                    : Mk-CCSD
   Frank Weinhold                                : gennbo (NPA and NBO analysis)
   Christopher J. Cramer and Donald G. Truhlar   : smd solvation model
   Lars Goerigk                                  : TD-DFT with DH, B97 family of functionals
   V. Asgeirsson, H. Jonsson                     : NEB implementation
   FAccTs GmbH                                   : IRC, NEB, NEB-TS, Multilevel, MM, QM/MM, CI optimization
   S Lehtola, MJT Oliveira, MAL Marques          : LibXC Library


 Your calculation uses the libint2 library for the computation of 2-el integrals
 For citations please refer to: http://libint.valeyev.net

 Your ORCA version has been built with support for libXC version: 4.2.3
 For citations please refer to: https://tddft.org/programs/libxc/

 This ORCA versions uses:
   CBLAS   interface :  Fast vector & matrix operations
   LAPACKE interface :  Fast linear algebra routines
   SCALAPACK package :  Parallel linear algebra routines


----- Orbital basis set information -----
Your calculation utilizes the basis: cc-pCV5Z 
             H : cc-pV5Z. Obtained from the ccRepo (grant-hill.group.shef.ac.uk/ccrepo) Feb. 2017
                 T. H. Dunning, Jr., J. Chem. Phys. 90, 1007 (1989)
            He : cc-pV5Z. Obtained from the ccRepo (grant-hill.group.shef.ac.uk/ccrepo) Feb. 2017
                 D. E. Woon, T. H. Dunning, Jr., J. Chem. Phys. 100, 2975 (1994)
  Li-Be, Na-Mg : Obtained from the ccRepo (grant-hill.group.shef.ac.uk/ccrepo) Feb. 2017
                 B. P. Prascher, D. E. Woon, K. A. Peterson, T. H. Dunning, Jr., A. K. Wilson, Theor. Chem. Acc. 128, 69 (2011)
          B-Ne : Obtained from the ccRepo (grant-hill.group.shef.ac.uk/ccrepo) Feb. 2017
                 D. E. Woon, T. H. Dunning, Jr., J. Chem. Phys. 103, 4572 (1995)
                  K. A. Peterson, T. H. Dunning, Jr., J. Chem. Phys. 117, 10548 (2002)
         Al-Ar : Obtained from the EMSL Basis Set Exchange (bse.pnl.gov) Feb. 2017
                 K. A. Peterson, T. H. Dunning, Jr., J. Chem. Phys. 117, 10548 (2002)
            Ca : Obtained from the Peterson Research Group Website (tyr0.chem.wsu.edu/~kipeters) Feb. 2017
                 J. Koput, K. A. Peterson, J. Phys. Chem. A 106, 9595 (2002)
         Ga-Kr : Obtained from the Peterson Research Group Website (tyr0.chem.wsu.edu/~kipeters) Feb. 2017
                 N. J. DeYonker, K. A. Peterson, A. K. Wilson, J. Phys. Chem. A 111, 11383 (2007)

================================================================================
                                        WARNINGS
                       Please study these warnings very carefully!
================================================================================


INFO   : the flag for use of LIBINT has been found!

================================================================================
                                       INPUT FILE
================================================================================
NAME = CH3BH2_cc-pcv5z_.inp
|  1> ! LDA cc-pcv5z nori grid5 finalgrid6 verytightscf
|  2> %Pal NProcs 18 End
|  3> 
|  4> *xyz 0 1
|  5> C -0.0190572749 -0.6845195756 -0.0000000839
|  6> B -0.0207972952 0.8729523951 -0.0000000656
|  7> H 1.0512614815 -0.9395660726 0.0000010826
|  8> H -0.4362896177 -1.1431007759 0.8927422542
|  9> H -0.4362878975 -1.1431009662 -0.8927431359
| 10> H 0.0151838060 1.4835176231 -1.0228906497
| 11> H 0.0151867978 1.4835173722 1.0228905983
| 12> **                         ****END OF INPUT****
================================================================================

                       ****************************
                       * Single Point Calculation *
                       ****************************

---------------------------------
CARTESIAN COORDINATES (ANGSTROEM)
---------------------------------
  C     -0.019057   -0.684520   -0.000000
  B     -0.020797    0.872952   -0.000000
  H      1.051261   -0.939566    0.000001
  H     -0.436290   -1.143101    0.892742
  H     -0.436288   -1.143101   -0.892743
  H      0.015184    1.483518   -1.022891
  H      0.015187    1.483517    1.022891

----------------------------
CARTESIAN COORDINATES (A.U.)
----------------------------
  NO LB      ZA    FRAG     MASS         X           Y           Z
   0 C     6.0000    0    12.011   -0.036013   -1.293555   -0.000000
   1 B     5.0000    0    10.810   -0.039301    1.649641   -0.000000
   2 H     1.0000    0     1.008    1.986596   -1.775523    0.000002
   3 H     1.0000    0     1.008   -0.824468   -2.160147    1.687038
   4 H     1.0000    0     1.008   -0.824465   -2.160148   -1.687040
   5 H     1.0000    0     1.008    0.028693    2.803442   -1.932983
   6 H     1.0000    0     1.008    0.028699    2.803442    1.932983

--------------------------------
INTERNAL COORDINATES (ANGSTROEM)
--------------------------------
 C      0   0   0     0.000000000000     0.00000000     0.00000000
 B      1   0   0     1.557472942682     0.00000000     0.00000000
 H      1   2   0     1.100286760774   103.46708113     0.00000000
 H      1   2   3     1.086907736371   114.92834598   115.07642486
 H      1   2   3     1.086907742697   114.92835822   244.92355778
 H      2   1   3     1.191801025476   120.81519254    87.94730336
 H      2   1   3     1.191801055757   120.81517879   272.05298910

---------------------------
INTERNAL COORDINATES (A.U.)
---------------------------
 C      0   0   0     0.000000000000     0.00000000     0.00000000
 B      1   0   0     2.943197322662     0.00000000     0.00000000
 H      1   2   0     2.079240646643   103.46708113     0.00000000
 H      1   2   3     2.053957954582   114.92834598   115.07642486
 H      1   2   3     2.053957966535   114.92835822   244.92355778
 H      2   1   3     2.252177544277   120.81519254    87.94730336
 H      2   1   3     2.252177601499   120.81517879   272.05298910

---------------------
BASIS SET INFORMATION
---------------------
There are 3 groups of distinct atoms

 Group   1 Type C   : 28s12p7d5f3g1h contracted to 10s9p7d5f3g1h pattern {101011111111/411111111/1111111/11111/111/1}
 Group   2 Type B   : 28s12p7d5f3g1h contracted to 10s9p7d5f3g1h pattern {101011111111/411111111/1111111/11111/111/1}
 Group   3 Type H   : 8s4p3d2f1g contracted to 5s4p3d2f1g pattern {41111/1111/111/11/1}

Atom   0C    basis set group =>   1
Atom   1B    basis set group =>   2
Atom   2H    basis set group =>   3
Atom   3H    basis set group =>   3
Atom   4H    basis set group =>   3
Atom   5H    basis set group =>   3
Atom   6H    basis set group =>   3


           ************************************************************
           *        Program running with 18 parallel MPI-processes    *
           *              working on a common directory               *
           ************************************************************
------------------------------------------------------------------------------
                           ORCA GTO INTEGRAL CALCULATION
------------------------------------------------------------------------------

                         BASIS SET STATISTICS AND STARTUP INFO

 # of primitive gaussian shells          ...  202
 # of primitive gaussian functions       ...  634
 # of contracted shells                  ...  145
 # of contracted basis functions         ...  565
 Highest angular momentum                ...    5
 Maximum contraction depth               ...   10
 Integral package used                   ... LIBINT
 Integral threshhold            Thresh   ...  1.000e-12
 Primitive cut-off              TCut     ...  1.000e-14


------------------------------ INTEGRAL EVALUATION ----------------------------


 * One electron integrals 
 Pre-screening matrix                    ... done
 Shell pair data                         ... done (   0.002 sec)



           ************************************************************
           *        Program running with 18 parallel MPI-processes    *
           *              working on a common directory               *
           ************************************************************
-------------------------------------------------------------------------------
                                 ORCA SCF
-------------------------------------------------------------------------------

------------
SCF SETTINGS
------------
Hamiltonian:
 Density Functional     Method          .... DFT(GTOs)
 Exchange Functional    Exchange        .... Slater
   X-Alpha parameter    XAlpha          ....  0.666667
 Correlation Functional Correlation     .... VWN-5
 Gradients option       PostSCFGGA      .... off
   Density functional embedding theory  .... OFF


General Settings:
 Integral files         IntName         .... CH3BH2_cc-pcv5z_
 Hartree-Fock type      HFTyp           .... RHF
 Total Charge           Charge          ....    0
 Multiplicity           Mult            ....    1
 Number of Electrons    NEL             ....   16
 Basis Dimension        Dim             ....  565
 Nuclear Repulsion      ENuc            ....     31.8792731152 Eh

Convergence Acceleration:
 DIIS                   CNVDIIS         .... on
   Start iteration      DIISMaxIt       ....    12
   Startup error        DIISStart       ....  0.200000
   # of expansion vecs  DIISMaxEq       ....     5
   Bias factor          DIISBfac        ....   1.050
   Max. coefficient     DIISMaxC        ....  10.000
 Newton-Raphson         CNVNR           .... off
 SOSCF                  CNVSOSCF        .... on
   Start iteration      SOSCFMaxIt      ....   150
   Startup grad/error   SOSCFStart      ....  0.003300
 Level Shifting         CNVShift        .... on
   Level shift para.    LevelShift      ....    0.2500
   Turn off err/grad.   ShiftErr        ....    0.0010
 Zerner damping         CNVZerner       .... off
 Static damping         CNVDamp         .... on
   Fraction old density DampFac         ....    0.7000
   Max. Damping (<1)    DampMax         ....    0.9800
   Min. Damping (>=0)   DampMin         ....    0.0000
   Turn off err/grad.   DampErr         ....    0.1000
 Fernandez-Rico         CNVRico         .... off

SCF Procedure:
 Maximum # iterations   MaxIter         ....   125
 SCF integral mode      SCFMode         .... Direct
   Integral package                     .... LIBINT
 Reset frequency        DirectResetFreq ....    20
 Integral Threshold     Thresh          ....  1.000e-12 Eh
 Primitive CutOff       TCut            ....  1.000e-14 Eh

Convergence Tolerance:
 Convergence Check Mode ConvCheckMode   .... Total+1el-Energy
 Convergence forced     ConvForced      .... 0
 Energy Change          TolE            ....  1.000e-09 Eh
 1-El. energy change                    ....  1.000e-06 Eh
 Orbital Gradient       TolG            ....  2.000e-06
 Orbital Rotation angle TolX            ....  2.000e-06
 DIIS Error             TolErr          ....  1.000e-08


Diagonalization of the overlap matrix:
Smallest eigenvalue                        ... 1.417e-05
Time for diagonalization                   ...    0.049 sec
Threshold for overlap eigenvalues          ... 1.000e-08
Number of eigenvalues below threshold      ... 0
Time for construction of square roots      ...    0.038 sec
Total time needed                          ...    0.089 sec

-------------------
DFT GRID GENERATION
-------------------

General Integration Accuracy     IntAcc      ...  5.010
Radial Grid Type                 RadialGrid  ... Gauss-Chebyshev
Angular Grid (max. acc.)         AngularGrid ... Lebedev-434
Angular grid pruning method      GridPruning ... 3 (G Style)
Weight generation scheme         WeightScheme... Becke
Basis function cutoff            BFCut       ...    1.0000e-12
Integration weight cutoff        WCut        ...    1.0000e-14
Grids for H and He will be reduced by one unit

# of grid points (after initial pruning)     ...  54748 (   0.0 sec)
# of grid points (after weights+screening)   ...  52459 (   0.0 sec)
nearest neighbour list constructed           ...    0.0 sec
Grid point re-assignment to atoms done       ...    0.0 sec
Grid point division into batches done        ...    0.3 sec
Reduced shell lists constructed in    0.3 sec

Total number of grid points                  ...    52459
Total number of batches                      ...      824
Average number of points per batch           ...       63
Average number of grid points per atom       ...     7494
Average number of shells per batch           ...   116.36 (80.25%)
Average number of basis functions per batch  ...   456.36 (80.77%)
Average number of large shells per batch     ...   103.11 (88.61%)
Average number of large basis fcns per batch ...   404.13 (88.55%)
Maximum spatial batch extension              ...   1.71,  1.47,  1.59 au
Average spatial batch extension              ...   0.05,  0.05,  0.05 au

Time for grid setup =    0.350 sec

------------------------------
INITIAL GUESS: MODEL POTENTIAL
------------------------------
Loading Hartree-Fock densities                     ... done
Calculating cut-offs                               ... done
Setting up the integral package                    ... done
Initializing the effective Hamiltonian             ... done
Starting the Coulomb interaction                   ... done (   0.0 sec)
Reading the grid                                   ... done
Mapping shells                                     ... done
Starting the XC term evaluation                    ... done (   0.1 sec)
  promolecular density results
     # of electrons  =     15.997558789
     EX              =     -9.293749516
     EC              =     -0.931505532
     EX+EC           =    -10.225255048
Transforming the Hamiltonian                       ... done (   0.0 sec)
Diagonalizing the Hamiltonian                      ... done (   0.0 sec)
Back transforming the eigenvectors                 ... done (   0.0 sec)
Now organizing SCF variables                       ... done
                      ------------------
                      INITIAL GUESS DONE (   0.6 sec)
                      ------------------
--------------
SCF ITERATIONS
--------------
ITER       Energy         Delta-E        Max-DP      RMS-DP      [F,P]     Damp
               ***  Starting incremental Fock matrix formation  ***
  0    -65.1489058675   0.000000000000 0.03114103  0.00020219  0.2524733 0.7000
  1    -65.2041477639  -0.055241896485 0.01767877  0.00014471  0.1136719 0.7000
                               ***Turning on DIIS***
  2    -65.2236766125  -0.019528848524 0.02250833  0.00024716  0.0295837 0.0000
  3    -65.2503999399  -0.026723327442 0.01398710  0.00009719  0.0713581 0.0000
  4    -65.2600849545  -0.009685014564 0.00394689  0.00004051  0.0144115 0.0000
  5    -65.2607946657  -0.000709711265 0.00201604  0.00001867  0.0043549 0.0000
                      *** Initiating the SOSCF procedure ***
                           *** Shutting down DIIS ***
                      *** Re-Reading the Fockian *** 
                      *** Removing any level shift *** 
ITER      Energy       Delta-E        Grad      Rot      Max-DP    RMS-DP
  6    -65.26084705  -0.0000523860  0.000343  0.000343  0.002320  0.000020
               *** Restarting incremental Fock matrix formation ***
  7    -65.26085105  -0.0000040012  0.000096  0.000232  0.000159  0.000002
  8    -65.26085084   0.0000002144  0.000141  0.000140  0.000094  0.000001
  9    -65.26085130  -0.0000004622  0.000013  0.000042  0.000026  0.000000
 10    -65.26085130   0.0000000028  0.000019  0.000028  0.000015  0.000000
 11    -65.26085130  -0.0000000063  0.000001  0.000001  0.000001  0.000000
                  ***Gradient check signals convergence***
              ***Rediagonalizing the Fockian in SOSCF/NRSCF***

               *****************************************************
               *                     SUCCESS                       *
               *           SCF CONVERGED AFTER  12 CYCLES          *
               *****************************************************

Setting up the final grid:

General Integration Accuracy     IntAcc      ...  5.340
Radial Grid Type                 RadialGrid  ... Gauss-Chebyshev
Angular Grid (max. acc.)         AngularGrid ... Lebedev-590
Angular grid pruning method      GridPruning ... 3 (G Style)
Weight generation scheme         WeightScheme... Becke
Basis function cutoff            BFCut       ...    1.0000e-12
Integration weight cutoff        WCut        ...    1.0000e-14
Grids for H and He will be reduced by one unit

# of grid points (after initial pruning)     ...  87998 (   0.0 sec)
# of grid points (after weights+screening)   ...  84126 (   0.0 sec)
nearest neighbour list constructed           ...    0.0 sec
Grid point re-assignment to atoms done       ...    0.0 sec
Grid point division into batches done        ...    0.7 sec
Reduced shell lists constructed in    0.8 sec

Total number of grid points                  ...    84126
Total number of batches                      ...     1318
Average number of points per batch           ...       63
Average number of grid points per atom       ...    12018
Average number of shells per batch           ...   115.93 (79.95%)
Average number of basis functions per batch  ...   454.01 (80.36%)
Average number of large shells per batch     ...   102.24 (88.19%)
Average number of large basis fcns per batch ...   401.31 (88.39%)
Maximum spatial batch extension              ...   2.00,  1.26,  1.54 au
Average spatial batch extension              ...   0.04,  0.04,  0.04 au

Final grid set up in    0.8 sec
Final integration                            ... done (   0.2 sec)
Change in XC energy                          ...     0.000000237
Integrated number of electrons               ...    16.000000159
Previous integrated no of electrons          ...    16.000002692

----------------
TOTAL SCF ENERGY
----------------

Total Energy       :          -65.26085107 Eh           -1775.83804 eV

Components:
Nuclear Repulsion  :           31.87927312 Eh             867.47912 eV
Electronic Energy  :          -97.14012418 Eh           -2643.31716 eV
One Electron Energy:         -149.88352974 Eh           -4078.53819 eV
Two Electron Energy:           52.74340556 Eh            1435.22103 eV

Virial components:
Potential Energy   :         -129.97051765 Eh           -3536.67759 eV
Kinetic Energy     :           64.70966659 Eh            1760.83955 eV
Virial Ratio       :            2.00851781


DFT components:
N(Alpha)           :        8.000000079310 electrons
N(Beta)            :        8.000000079310 electrons
N(Total)           :       16.000000158620 electrons
E(X)               :       -9.602097078446 Eh       
E(C)               :       -0.954846974457 Eh       
E(XC)              :      -10.556944052903 Eh       
DFET-embed. en.    :        0.000000000000 Eh       

---------------
SCF CONVERGENCE
---------------

  Last Energy change         ...   -9.0949e-12  Tolerance :   1.0000e-09
  Last MAX-Density change    ...    3.5168e-07  Tolerance :   1.0000e-08
  Last RMS-Density change    ...    3.4804e-09  Tolerance :   1.0000e-09
  Last Orbital Gradient      ...    2.6655e-07  Tolerance :   2.0000e-06
  Last Orbital Rotation      ...    5.3933e-07  Tolerance :   2.0000e-06

             **** THE GBW FILE WAS UPDATED (CH3BH2_cc-pcv5z_.gbw) ****
             **** DENSITY FILE WAS UPDATED (CH3BH2_cc-pcv5z_.scfp) ****
             **** ENERGY FILE WAS UPDATED (CH3BH2_cc-pcv5z_.en.tmp) ****
             **** THE GBW FILE WAS UPDATED (CH3BH2_cc-pcv5z_.gbw) ****
             **** DENSITY FILE WAS UPDATED (CH3BH2_cc-pcv5z_.scfp) ****
----------------
ORBITAL ENERGIES
----------------

  NO   OCC          E(Eh)            E(eV) 
   0   2.0000      -9.762461      -265.6501 
   1   2.0000      -6.432090      -175.0261 
   2   2.0000      -0.636938       -17.3320 
   3   2.0000      -0.431852       -11.7513 
   4   2.0000      -0.375607       -10.2208 
   5   2.0000      -0.365311        -9.9406 
   6   2.0000      -0.297506        -8.0956 
   7   2.0000      -0.279179        -7.5969 
   8   0.0000      -0.094144        -2.5618 
   9   0.0000       0.005874         0.1598 
  10   0.0000       0.042396         1.1537 
  11   0.0000       0.046346         1.2611 
  12   0.0000       0.048728         1.3259 
  13   0.0000       0.077860         2.1187 
  14   0.0000       0.089821         2.4441 
  15   0.0000       0.097704         2.6587 
  16   0.0000       0.109579         2.9818 
  17   0.0000       0.122588         3.3358 
  18   0.0000       0.144879         3.9424 
  19   0.0000       0.146434         3.9847 
  20   0.0000       0.178323         4.8524 
  21   0.0000       0.227492         6.1904 
  22   0.0000       0.246959         6.7201 
  23   0.0000       0.248789         6.7699 
  24   0.0000       0.263755         7.1771 
  25   0.0000       0.265202         7.2165 
  26   0.0000       0.279409         7.6031 
  27   0.0000       0.290821         7.9136 
  28   0.0000       0.299500         8.1498 
  29   0.0000       0.358158         9.7460 
  30   0.0000       0.358378         9.7520 
  31   0.0000       0.385055        10.4779 
  32   0.0000       0.397984        10.8297 
  33   0.0000       0.403913        10.9910 
  34   0.0000       0.428692        11.6653 
  35   0.0000       0.452931        12.3249 
  36   0.0000       0.483530        13.1575 
  37   0.0000       0.494668        13.4606 
  38   0.0000       0.500636        13.6230 
  39   0.0000       0.519565        14.1381 
  40   0.0000       0.527521        14.3546 
  41   0.0000       0.552554        15.0358 
  42   0.0000       0.569732        15.5032 
  43   0.0000       0.588200        16.0057 
  44   0.0000       0.634205        17.2576 
  45   0.0000       0.669904        18.2290 
  46   0.0000       0.680133        18.5074 
  47   0.0000       0.718771        19.5588 
  48   0.0000       0.730199        19.8697 
  49   0.0000       0.749064        20.3831 
  50   0.0000       0.769957        20.9516 
  51   0.0000       0.773117        21.0376 
  52   0.0000       0.787954        21.4413 
  53   0.0000       0.798437        21.7266 
  54   0.0000       0.831442        22.6247 
  55   0.0000       0.843095        22.9418 
  56   0.0000       0.860386        23.4123 
  57   0.0000       0.875768        23.8309 
  58   0.0000       0.893681        24.3183 
  59   0.0000       0.900131        24.4938 
  60   0.0000       0.914473        24.8841 
  61   0.0000       0.933367        25.3982 
  62   0.0000       0.939986        25.5783 
  63   0.0000       0.970450        26.4073 
  64   0.0000       0.983602        26.7652 
  65   0.0000       0.988637        26.9022 
  66   0.0000       0.994475        27.0610 
  67   0.0000       1.043285        28.3892 
  68   0.0000       1.076899        29.3039 
  69   0.0000       1.087502        29.5924 
  70   0.0000       1.105627        30.0856 
  71   0.0000       1.147361        31.2213 
  72   0.0000       1.148123        31.2420 
  73   0.0000       1.207368        32.8541 
  74   0.0000       1.268758        34.5247 
  75   0.0000       1.332326        36.2544 
  76   0.0000       1.354275        36.8517 
  77   0.0000       1.363051        37.0905 
  78   0.0000       1.382057        37.6077 
  79   0.0000       1.386017        37.7154 
  80   0.0000       1.445483        39.3336 
  81   0.0000       1.478733        40.2384 
  82   0.0000       1.482538        40.3419 
  83   0.0000       1.523727        41.4627 
  84   0.0000       1.529741        41.6264 
  85   0.0000       1.586897        43.1817 
  86   0.0000       1.600626        43.5552 
  87   0.0000       1.647582        44.8330 
  88   0.0000       1.649078        44.8737 
  89   0.0000       1.657362        45.0991 
  90   0.0000       1.737480        47.2792 
  91   0.0000       1.738268        47.3007 
  92   0.0000       1.778172        48.3865 
  93   0.0000       1.781033        48.4644 
  94   0.0000       1.789935        48.7066 
  95   0.0000       1.801282        49.0154 
  96   0.0000       1.822296        49.5872 
  97   0.0000       1.846625        50.2492 
  98   0.0000       1.879080        51.1324 
  99   0.0000       1.882308        51.2202 
 100   0.0000       1.897920        51.6450 
 101   0.0000       1.925897        52.4063 
 102   0.0000       1.940930        52.8154 
 103   0.0000       1.947987        53.0074 
 104   0.0000       1.983599        53.9765 
 105   0.0000       1.993151        54.2364 
 106   0.0000       2.002976        54.5037 
 107   0.0000       2.034746        55.3682 
 108   0.0000       2.083295        56.6893 
 109   0.0000       2.102278        57.2059 
 110   0.0000       2.102765        57.2191 
 111   0.0000       2.120718        57.7077 
 112   0.0000       2.154814        58.6355 
 113   0.0000       2.171269        59.0832 
 114   0.0000       2.198641        59.8281 
 115   0.0000       2.212300        60.1997 
 116   0.0000       2.223076        60.4930 
 117   0.0000       2.234758        60.8108 
 118   0.0000       2.290829        62.3366 
 119   0.0000       2.304437        62.7069 
 120   0.0000       2.347689        63.8839 
 121   0.0000       2.355633        64.1000 
 122   0.0000       2.398515        65.2669 
 123   0.0000       2.413310        65.6695 
 124   0.0000       2.417559        65.7851 
 125   0.0000       2.419120        65.8276 
 126   0.0000       2.445215        66.5377 
 127   0.0000       2.466216        67.1092 
 128   0.0000       2.501207        68.0613 
 129   0.0000       2.530124        68.8482 
 130   0.0000       2.547442        69.3194 
 131   0.0000       2.610776        71.0428 
 132   0.0000       2.619465        71.2793 
 133   0.0000       2.668724        72.6197 
 134   0.0000       2.702788        73.5466 
 135   0.0000       2.767265        75.3011 
 136   0.0000       2.791769        75.9679 
 137   0.0000       2.802370        76.2564 
 138   0.0000       2.853329        77.6430 
 139   0.0000       2.897119        78.8346 
 140   0.0000       2.956384        80.4473 
 141   0.0000       2.959667        80.5366 
 142   0.0000       2.984748        81.2191 
 143   0.0000       3.023070        82.2619 
 144   0.0000       3.042288        82.7849 
 145   0.0000       3.063751        83.3689 
 146   0.0000       3.110295        84.6354 
 147   0.0000       3.131030        85.1997 
 148   0.0000       3.189948        86.8029 
 149   0.0000       3.222530        87.6895 
 150   0.0000       3.278674        89.2173 
 151   0.0000       3.285852        89.4126 
 152   0.0000       3.351893        91.2096 
 153   0.0000       3.368738        91.6680 
 154   0.0000       3.488292        94.9212 
 155   0.0000       3.490862        94.9912 
 156   0.0000       3.533453        96.1501 
 157   0.0000       3.560687        96.8912 
 158   0.0000       3.598302        97.9148 
 159   0.0000       3.630375        98.7875 
 160   0.0000       3.641518        99.0908 
 161   0.0000       3.722798       101.3025 
 162   0.0000       3.736096       101.6643 
 163   0.0000       3.793754       103.2333 
 164   0.0000       3.794344       103.2494 
 165   0.0000       3.813970       103.7834 
 166   0.0000       3.867711       105.2458 
 167   0.0000       3.869709       105.3001 
 168   0.0000       3.882339       105.6438 
 169   0.0000       3.950677       107.5034 
 170   0.0000       3.974377       108.1483 
 171   0.0000       3.979957       108.3001 
 172   0.0000       4.031513       109.7031 
 173   0.0000       4.041910       109.9860 
 174   0.0000       4.052936       110.2860 
 175   0.0000       4.114076       111.9497 
 176   0.0000       4.162714       113.2732 
 177   0.0000       4.181959       113.7969 
 178   0.0000       4.260533       115.9350 
 179   0.0000       4.304994       117.1448 
 180   0.0000       4.331112       117.8555 
 181   0.0000       4.362847       118.7191 
 182   0.0000       4.380600       119.2022 
 183   0.0000       4.444955       120.9534 
 184   0.0000       4.465897       121.5232 
 185   0.0000       4.486806       122.0922 
 186   0.0000       4.488439       122.1366 
 187   0.0000       4.499050       122.4254 
 188   0.0000       4.534883       123.4004 
 189   0.0000       4.585408       124.7753 
 190   0.0000       4.592133       124.9583 
 191   0.0000       4.606257       125.3426 
 192   0.0000       4.643390       126.3531 
 193   0.0000       4.666202       126.9738 
 194   0.0000       4.668835       127.0454 
 195   0.0000       4.698865       127.8626 
 196   0.0000       4.714024       128.2751 
 197   0.0000       4.777519       130.0029 
 198   0.0000       4.782378       130.1351 
 199   0.0000       4.799406       130.5985 
 200   0.0000       4.846841       131.8893 
 201   0.0000       4.874233       132.6346 
 202   0.0000       4.899059       133.3102 
 203   0.0000       4.921621       133.9241 
 204   0.0000       4.923759       133.9823 
 205   0.0000       4.949133       134.6727 
 206   0.0000       4.950147       134.7004 
 207   0.0000       5.003475       136.1515 
 208   0.0000       5.023605       136.6992 
 209   0.0000       5.038397       137.1017 
 210   0.0000       5.085419       138.3813 
 211   0.0000       5.100138       138.7818 
 212   0.0000       5.132657       139.6667 
 213   0.0000       5.140851       139.8897 
 214   0.0000       5.142111       139.9239 
 215   0.0000       5.159919       140.4085 
 216   0.0000       5.197127       141.4210 
 217   0.0000       5.263923       143.2386 
 218   0.0000       5.274359       143.5226 
 219   0.0000       5.290528       143.9626 
 220   0.0000       5.337808       145.2491 
 221   0.0000       5.390195       146.6747 
 222   0.0000       5.403302       147.0313 
 223   0.0000       5.422569       147.5556 
 224   0.0000       5.481508       149.1594 
 225   0.0000       5.490958       149.4166 
 226   0.0000       5.515823       150.0932 
 227   0.0000       5.569611       151.5568 
 228   0.0000       5.617671       152.8646 
 229   0.0000       5.643419       153.5652 
 230   0.0000       5.651578       153.7873 
 231   0.0000       5.706219       155.2741 
 232   0.0000       5.707277       155.3029 
 233   0.0000       5.717027       155.5682 
 234   0.0000       5.740479       156.2064 
 235   0.0000       5.785602       157.4342 
 236   0.0000       5.847377       159.1152 
 237   0.0000       5.860171       159.4634 
 238   0.0000       5.874075       159.8417 
 239   0.0000       5.908683       160.7834 
 240   0.0000       5.941279       161.6704 
 241   0.0000       5.948400       161.8642 
 242   0.0000       5.952376       161.9724 
 243   0.0000       6.038896       164.3267 
 244   0.0000       6.054945       164.7634 
 245   0.0000       6.109613       166.2510 
 246   0.0000       6.152431       167.4162 
 247   0.0000       6.176797       168.0792 
 248   0.0000       6.293463       171.2538 
 249   0.0000       6.355396       172.9391 
 250   0.0000       6.375384       173.4830 
 251   0.0000       6.375895       173.4969 
 252   0.0000       6.479480       176.3156 
 253   0.0000       6.497963       176.8186 
 254   0.0000       6.507912       177.0893 
 255   0.0000       6.574827       178.9101 
 256   0.0000       6.605466       179.7439 
 257   0.0000       6.665940       181.3894 
 258   0.0000       6.711425       182.6272 
 259   0.0000       6.769723       184.2135 
 260   0.0000       6.802059       185.0934 
 261   0.0000       6.826057       185.7465 
 262   0.0000       6.901833       187.8084 
 263   0.0000       6.909958       188.0295 
 264   0.0000       6.916678       188.2124 
 265   0.0000       6.973049       189.7463 
 266   0.0000       6.980583       189.9513 
 267   0.0000       7.022743       191.0986 
 268   0.0000       7.071843       192.4346 
 269   0.0000       7.115004       193.6091 
 270   0.0000       7.147068       194.4816 
 271   0.0000       7.168739       195.0713 
 272   0.0000       7.297042       198.5626 
 273   0.0000       7.331701       199.5057 
 274   0.0000       7.346336       199.9040 
 275   0.0000       7.368442       200.5055 
 276   0.0000       7.476752       203.4528 
 277   0.0000       7.570103       205.9930 
 278   0.0000       7.636763       207.8069 
 279   0.0000       7.662956       208.5196 
 280   0.0000       7.667663       208.6477 
 281   0.0000       7.680493       208.9968 
 282   0.0000       7.820504       212.8067 
 283   0.0000       7.901540       215.0118 
 284   0.0000       7.999251       217.6707 
 285   0.0000       8.116776       220.8687 
 286   0.0000       8.320427       226.4103 
 287   0.0000       8.391926       228.3559 
 288   0.0000       8.551419       232.6959 
 289   0.0000       8.611609       234.3338 
 290   0.0000       8.698188       236.6897 
 291   0.0000       8.719962       237.2822 
 292   0.0000       8.834425       240.3969 
 293   0.0000       8.851422       240.8594 
 294   0.0000       8.996507       244.8074 
 295   0.0000       9.162800       249.3325 
 296   0.0000       9.168978       249.5006 
 297   0.0000       9.213195       250.7038 
 298   0.0000       9.349686       254.4179 
 299   0.0000       9.468397       257.6482 
 300   0.0000       9.482892       258.0426 
 301   0.0000       9.572602       260.4837 
 302   0.0000       9.679834       263.4017 
 303   0.0000       9.782232       266.1881 
 304   0.0000       9.784944       266.2619 
 305   0.0000       9.845890       267.9203 
 306   0.0000       9.977930       271.5133 
 307   0.0000      10.038038       273.1489 
 308   0.0000      10.049339       273.4564 
 309   0.0000      10.076354       274.1915 
 310   0.0000      10.232504       278.4406 
 311   0.0000      10.271973       279.5146 
 312   0.0000      10.396164       282.8940 
 313   0.0000      10.507680       285.9285 
 314   0.0000      10.543304       286.8979 
 315   0.0000      10.617948       288.9290 
 316   0.0000      10.681580       290.6606 
 317   0.0000      10.849625       295.2333 
 318   0.0000      10.866372       295.6890 
 319   0.0000      10.979234       298.7602 
 320   0.0000      11.033369       300.2332 
 321   0.0000      11.332439       308.3714 
 322   0.0000      11.343124       308.6621 
 323   0.0000      11.356288       309.0203 
 324   0.0000      11.940580       324.9197 
 325   0.0000      11.976190       325.8887 
 326   0.0000      12.034331       327.4708 
 327   0.0000      12.174241       331.2779 
 328   0.0000      12.272285       333.9459 
 329   0.0000      12.281699       334.2020 
 330   0.0000      12.306790       334.8848 
 331   0.0000      12.307580       334.9063 
 332   0.0000      12.320652       335.2620 
 333   0.0000      12.327278       335.4423 
 334   0.0000      12.336802       335.7015 
 335   0.0000      12.344935       335.9228 
 336   0.0000      12.345742       335.9447 
 337   0.0000      12.349022       336.0340 
 338   0.0000      12.368051       336.5518 
 339   0.0000      12.380004       336.8770 
 340   0.0000      12.393714       337.2501 
 341   0.0000      12.410561       337.7085 
 342   0.0000      12.453201       338.8688 
 343   0.0000      12.473136       339.4113 
 344   0.0000      12.483989       339.7066 
 345   0.0000      12.514177       340.5281 
 346   0.0000      12.519399       340.6702 
 347   0.0000      12.565042       341.9122 
 348   0.0000      12.586265       342.4897 
 349   0.0000      12.613712       343.2366 
 350   0.0000      12.618920       343.3783 
 351   0.0000      12.682266       345.1020 
 352   0.0000      12.700532       345.5991 
 353   0.0000      12.767652       347.4255 
 354   0.0000      12.806025       348.4697 
 355   0.0000      12.873520       350.3063 
 356   0.0000      12.873723       350.3118 
 357   0.0000      12.895170       350.8954 
 358   0.0000      12.935372       351.9894 
 359   0.0000      12.993946       353.5832 
 360   0.0000      13.011159       354.0516 
 361   0.0000      13.032369       354.6288 
 362   0.0000      13.048323       355.0629 
 363   0.0000      13.088085       356.1449 
 364   0.0000      13.112670       356.8139 
 365   0.0000      13.136816       357.4709 
 366   0.0000      13.184986       358.7817 
 367   0.0000      13.232355       360.0707 
 368   0.0000      13.252653       360.6230 
 369   0.0000      13.252847       360.6283 
 370   0.0000      13.293422       361.7324 
 371   0.0000      13.435954       365.6109 
 372   0.0000      13.484511       366.9322 
 373   0.0000      13.504254       367.4694 
 374   0.0000      13.522763       367.9731 
 375   0.0000      13.531943       368.2229 
 376   0.0000      13.553114       368.7990 
 377   0.0000      13.571474       369.2986 
 378   0.0000      13.575961       369.4207 
 379   0.0000      13.615590       370.4990 
 380   0.0000      13.642914       371.2426 
 381   0.0000      13.674023       372.0891 
 382   0.0000      13.685078       372.3899 
 383   0.0000      13.705674       372.9503 
 384   0.0000      13.719354       373.3226 
 385   0.0000      13.726653       373.5212 
 386   0.0000      13.767693       374.6380 
 387   0.0000      13.810875       375.8130 
 388   0.0000      13.818866       376.0305 
 389   0.0000      13.843746       376.7075 
 390   0.0000      13.847445       376.8081 
 391   0.0000      13.870340       377.4312 
 392   0.0000      13.877000       377.6124 
 393   0.0000      13.925730       378.9384 
 394   0.0000      13.976702       380.3254 
 395   0.0000      13.982776       380.4907 
 396   0.0000      14.035468       381.9245 
 397   0.0000      14.054189       382.4339 
 398   0.0000      14.140542       384.7837 
 399   0.0000      14.151452       385.0806 
 400   0.0000      14.172698       385.6587 
 401   0.0000      14.185413       386.0047 
 402   0.0000      14.219477       386.9317 
 403   0.0000      14.231033       387.2461 
 404   0.0000      14.251519       387.8035 
 405   0.0000      14.300525       389.1371 
 406   0.0000      14.367613       390.9626 
 407   0.0000      14.402197       391.9037 
 408   0.0000      14.455297       393.3486 
 409   0.0000      14.460677       393.4950 
 410   0.0000      14.498177       394.5154 
 411   0.0000      14.522747       395.1840 
 412   0.0000      14.576604       396.6495 
 413   0.0000      14.707370       400.2079 
 414   0.0000      14.854547       404.2128 
 415   0.0000      14.986006       407.7899 
 416   0.0000      14.999306       408.1519 
 417   0.0000      15.243719       414.8027 
 418   0.0000      15.269213       415.4964 
 419   0.0000      15.340273       417.4301 
 420   0.0000      15.442074       420.2002 
 421   0.0000      15.475044       421.0974 
 422   0.0000      15.503820       421.8804 
 423   0.0000      15.538018       422.8110 
 424   0.0000      15.619829       425.0372 
 425   0.0000      15.705457       427.3672 
 426   0.0000      15.792118       429.7254 
 427   0.0000      15.851441       431.3396 
 428   0.0000      15.873847       431.9493 
 429   0.0000      16.242814       441.9894 
 430   0.0000      16.309513       443.8044 
 431   0.0000      16.445571       447.5067 
 432   0.0000      16.636549       452.7035 
 433   0.0000      16.920586       460.4326 
 434   0.0000      17.105587       465.4667 
 435   0.0000      17.132318       466.1941 
 436   0.0000      17.140522       466.4173 
 437   0.0000      17.179316       467.4730 
 438   0.0000      17.204056       468.1462 
 439   0.0000      17.324613       471.4267 
 440   0.0000      17.404467       473.5996 
 441   0.0000      17.425992       474.1853 
 442   0.0000      17.469087       475.3580 
 443   0.0000      17.568141       478.0534 
 444   0.0000      17.591173       478.6802 
 445   0.0000      17.702332       481.7049 
 446   0.0000      17.764338       483.3922 
 447   0.0000      17.874823       486.3987 
 448   0.0000      17.941483       488.2126 
 449   0.0000      18.052901       491.2444 
 450   0.0000      18.084979       492.1173 
 451   0.0000      18.200135       495.2509 
 452   0.0000      18.333552       498.8813 
 453   0.0000      18.362379       499.6657 
 454   0.0000      18.903006       514.3770 
 455   0.0000      19.305387       525.3263 
 456   0.0000      19.700660       536.0822 
 457   0.0000      19.790187       538.5184 
 458   0.0000      19.812793       539.1335 
 459   0.0000      21.303463       579.6967 
 460   0.0000      22.759603       619.3203 
 461   0.0000      23.453927       638.2138 
 462   0.0000      23.673562       644.1904 
 463   0.0000      24.343481       662.4198 
 464   0.0000      24.354635       662.7233 
 465   0.0000      24.532076       667.5517 
 466   0.0000      25.477541       693.2791 
 467   0.0000      25.574841       695.9268 
 468   0.0000      35.181808       957.3457 
 469   0.0000      35.641319       969.8496 
 470   0.0000      35.672372       970.6946 
 471   0.0000      36.005513       979.7598 
 472   0.0000      36.545963       994.4662 
 473   0.0000      36.559606       994.8375 
 474   0.0000      38.569811      1049.5379 
 475   0.0000      38.596770      1050.2715 
 476   0.0000      38.649264      1051.6999 
 477   0.0000      38.690933      1052.8338 
 478   0.0000      38.800127      1055.8051 
 479   0.0000      38.894369      1058.3696 
 480   0.0000      39.396443      1072.0317 
 481   0.0000      39.503469      1074.9440 
 482   0.0000      41.100123      1118.3912 
 483   0.0000      41.107958      1118.6044 
 484   0.0000      46.391062      1262.3650 
 485   0.0000      46.579143      1267.4829 
 486   0.0000      46.584646      1267.6327 
 487   0.0000      46.622456      1268.6615 
 488   0.0000      46.791750      1273.2683 
 489   0.0000      46.840043      1274.5824 
 490   0.0000      47.477549      1291.9298 
 491   0.0000      50.400763      1371.4745 
 492   0.0000      59.580018      1621.2547 
 493   0.0000      59.862991      1628.9548 
 494   0.0000      60.002688      1632.7562 
 495   0.0000      74.593443      2029.7908 
 496   0.0000      74.617161      2030.4362 
 497   0.0000      74.726850      2033.4210 
 498   0.0000      75.349755      2050.3711 
 499   0.0000      75.353671      2050.4776 
 500   0.0000      90.497925      2462.5737 
 501   0.0000     106.687864      2903.1244 
 502   0.0000     106.703536      2903.5508 
 503   0.0000     106.927565      2909.6470 
 504   0.0000     107.325785      2920.4831 
 505   0.0000     107.338887      2920.8396 
 506   0.0000     111.086281      3022.8114 
 507   0.0000     112.419328      3059.0854 
 508   0.0000     112.452845      3059.9975 
 509   0.0000     122.077656      3321.9019 
 510   0.0000     122.079656      3321.9563 
 511   0.0000     122.080719      3321.9853 
 512   0.0000     122.081555      3322.0080 
 513   0.0000     122.082312      3322.0286 
 514   0.0000     122.083965      3322.0736 
 515   0.0000     122.089775      3322.2317 
 516   0.0000     122.101442      3322.5491 
 517   0.0000     122.104262      3322.6259 
 518   0.0000     129.336601      3519.4278 
 519   0.0000     151.432643      4120.6917 
 520   0.0000     151.447436      4121.0943 
 521   0.0000     151.454509      4121.2867 
 522   0.0000     151.534011      4123.4501 
 523   0.0000     151.547836      4123.8263 
 524   0.0000     151.620624      4125.8069 
 525   0.0000     151.831886      4131.5557 
 526   0.0000     164.490035      4476.0014 
 527   0.0000     164.723080      4482.3429 
 528   0.0000     164.840517      4485.5385 
 529   0.0000     165.932642      4515.2567 
 530   0.0000     165.933316      4515.2751 
 531   0.0000     165.935867      4515.3445 
 532   0.0000     165.938499      4515.4161 
 533   0.0000     165.939904      4515.4543 
 534   0.0000     165.942220      4515.5174 
 535   0.0000     165.952178      4515.7883 
 536   0.0000     165.957838      4515.9423 
 537   0.0000     165.960503      4516.0149 
 538   0.0000     186.515370      5075.3412 
 539   0.0000     186.591193      5077.4045 
 540   0.0000     186.596089      5077.5377 
 541   0.0000     186.611309      5077.9519 
 542   0.0000     186.688266      5080.0460 
 543   0.0000     186.705194      5080.5066 
 544   0.0000     186.972471      5087.7796 
 545   0.0000     229.438474      6243.3383 
 546   0.0000     229.462555      6243.9936 
 547   0.0000     229.488310      6244.6944 
 548   0.0000     229.963303      6257.6196 
 549   0.0000     229.970957      6257.8279 
 550   0.0000     235.077890      6396.7946 
 551   0.0000     316.179048      8603.6693 
 552   0.0000     317.321981      8634.7701 
 553   0.0000     317.337250      8635.1856 
 554   0.0000     327.369691      8908.1822 
 555   0.0000     327.380023      8908.4633 
 556   0.0000     327.534561      8912.6685 
 557   0.0000     327.821305      8920.4712 
 558   0.0000     327.831151      8920.7392 
 559   0.0000     335.992489      9142.8204 
 560   0.0000     463.321173     12607.6101 
 561   0.0000     463.531672     12613.3380 
 562   0.0000     463.637096     12616.2068 
 563   0.0000     820.145861     22317.3035 
 564   0.0000    1174.881964     31970.1636 

                    ********************************
                    * MULLIKEN POPULATION ANALYSIS *
                    ********************************

-----------------------
MULLIKEN ATOMIC CHARGES
-----------------------
   0 C :   -0.433580
   1 B :    0.117936
   2 H :    0.140978
   3 H :    0.128061
   4 H :    0.128061
   5 H :   -0.040728
   6 H :   -0.040728
Sum of atomic charges:    0.0000000

--------------------------------
MULLIKEN REDUCED ORBITAL CHARGES
--------------------------------
  0 C s       :     3.192161  s :     3.192161
      pz      :     1.056576  p :     3.182212
      px      :     1.019987
      py      :     1.105650
      dz2     :     0.009208  d :     0.052479
      dxz     :     0.006802
      dyz     :     0.024655
      dx2y2   :     0.011082
      dxy     :     0.000731
      f0      :     0.000615  f :     0.005135
      f+1     :     0.001347
      f-1     :     0.000881
      f+2     :     0.000874
      f-2     :     0.000545
      f+3     :     0.000323
      f-3     :     0.000549
      g0      :     0.000129  g :     0.001511
      g+1     :     0.000178
      g-1     :     0.000243
      g+2     :     0.000162
      g-2     :     0.000311
      g+3     :     0.000038
      g-3     :     0.000092
      g+4     :     0.000135
      g-4     :     0.000225
      h0      :     0.000001  h :     0.000081
      h+1     :     0.000005
      h-1     :     0.000002
      h+2     :     0.000002
      h-2     :     0.000031
      h+3     :     0.000009
      h-3     :     0.000012
      h+4     :     0.000001
      h-4     :     0.000000
      h+5     :     0.000007
      h-5     :     0.000012
  1 B s       :     3.086742  s :     3.086742
      pz      :     0.874660  p :     1.720168
      px      :     0.101678
      py      :     0.743830
      dz2     :     0.010121  d :     0.064132
      dxz     :     0.000169
      dyz     :     0.028087
      dx2y2   :     0.009441
      dxy     :     0.016313
      f0      :     0.000801  f :     0.009284
      f+1     :     0.000240
      f-1     :     0.002741
      f+2     :     0.001972
      f-2     :     0.000063
      f+3     :     0.002860
      f-3     :     0.000607
      g0      :     0.000081  g :     0.001628
      g+1     :     0.000001
      g-1     :     0.000608
      g+2     :     0.000323
      g-2     :     0.000117
      g+3     :     0.000007
      g-3     :     0.000141
      g+4     :     0.000073
      g-4     :     0.000277
      h0      :     0.000014  h :     0.000110
      h+1     :     0.000001
      h-1     :     0.000018
      h+2     :     0.000029
      h-2     :     0.000000
      h+3     :     0.000005
      h-3     :     0.000013
      h+4     :     0.000008
      h-4     :    -0.000000
      h+5     :     0.000011
      h-5     :     0.000009
  2 H s       :     0.803217  s :     0.803217
      pz      :     0.016517  p :     0.049625
      px      :     0.014310
      py      :     0.018798
      dz2     :     0.000300  d :     0.005784
      dxz     :     0.002326
      dyz     :     0.000149
      dx2y2   :     0.001236
      dxy     :     0.001774
      f0      :     0.000067  f :     0.000389
      f+1     :     0.000032
      f-1     :     0.000009
      f+2     :     0.000104
      f-2     :     0.000004
      f+3     :     0.000097
      f-3     :     0.000076
      g0      :     0.000000  g :     0.000007
      g+1     :     0.000001
      g-1     :    -0.000000
      g+2     :     0.000001
      g-2     :     0.000000
      g+3     :     0.000001
      g-3     :     0.000000
      g+4     :     0.000002
      g-4     :     0.000001
  3 H s       :     0.818667  s :     0.818667
      pz      :     0.016469  p :     0.047643
      px      :     0.015503
      py      :     0.015671
      dz2     :     0.001714  d :     0.005299
      dxz     :     0.001234
      dyz     :     0.001052
      dx2y2   :     0.000944
      dxy     :     0.000354
      f0      :     0.000098  f :     0.000324
      f+1     :     0.000041
      f-1     :     0.000048
      f+2     :     0.000081
      f-2     :     0.000032
      f+3     :     0.000013
      f-3     :     0.000010
      g0      :     0.000001  g :     0.000006
      g+1     :     0.000001
      g-1     :     0.000001
      g+2     :     0.000001
      g-2     :     0.000002
      g+3     :     0.000000
      g-3     :     0.000000
      g+4     :     0.000000
      g-4     :     0.000000
  4 H s       :     0.818667  s :     0.818667
      pz      :     0.016469  p :     0.047643
      px      :     0.015503
      py      :     0.015671
      dz2     :     0.001714  d :     0.005299
      dxz     :     0.001234
      dyz     :     0.001052
      dx2y2   :     0.000944
      dxy     :     0.000354
      f0      :     0.000098  f :     0.000324
      f+1     :     0.000041
      f-1     :     0.000048
      f+2     :     0.000081
      f-2     :     0.000032
      f+3     :     0.000013
      f-3     :     0.000010
      g0      :     0.000001  g :     0.000006
      g+1     :     0.000001
      g-1     :     0.000001
      g+2     :     0.000001
      g-2     :     0.000002
      g+3     :     0.000000
      g-3     :     0.000000
      g+4     :     0.000000
      g-4     :     0.000000
  5 H s       :     1.016896  s :     1.016896
      pz      :     0.012540  p :     0.021969
      px      :     0.000956
      py      :     0.008473
      dz2     :     0.001029  d :     0.001757
      dxz     :     0.000049
      dyz     :     0.000389
      dx2y2   :     0.000216
      dxy     :     0.000075
      f0      :     0.000068  f :     0.000103
      f+1     :     0.000000
      f-1     :     0.000015
      f+2     :     0.000010
      f-2     :     0.000003
      f+3     :     0.000002
      f-3     :     0.000005
      g0      :     0.000001  g :     0.000003
      g+1     :     0.000000
      g-1     :     0.000001
      g+2     :     0.000001
      g-2     :     0.000000
      g+3     :     0.000000
      g-3     :     0.000000
      g+4     :     0.000000
      g-4     :     0.000000
  6 H s       :     1.016896  s :     1.016896
      pz      :     0.012540  p :     0.021969
      px      :     0.000956
      py      :     0.008473
      dz2     :     0.001029  d :     0.001757
      dxz     :     0.000049
      dyz     :     0.000389
      dx2y2   :     0.000216
      dxy     :     0.000075
      f0      :     0.000068  f :     0.000103
      f+1     :     0.000000
      f-1     :     0.000015
      f+2     :     0.000010
      f-2     :     0.000003
      f+3     :     0.000002
      f-3     :     0.000005
      g0      :     0.000001  g :     0.000003
      g+1     :     0.000000
      g-1     :     0.000001
      g+2     :     0.000001
      g-2     :     0.000000
      g+3     :     0.000000
      g-3     :     0.000000
      g+4     :     0.000000
      g-4     :     0.000000


                     *******************************
                     * LOEWDIN POPULATION ANALYSIS *
                     *******************************

----------------------
LOEWDIN ATOMIC CHARGES
----------------------
   0 C :    0.537059
   1 B :   -0.019776
   2 H :   -0.094741
   3 H :   -0.120220
   4 H :   -0.120220
   5 H :   -0.091051
   6 H :   -0.091051

-------------------------------
LOEWDIN REDUCED ORBITAL CHARGES
-------------------------------
  0 C s       :     2.481089  s :     2.481089
      pz      :     0.851007  p :     2.615428
      px      :     0.819197
      py      :     0.945224
      dz2     :     0.051434  d :     0.290510
      dxz     :     0.032511
      dyz     :     0.121514
      dx2y2   :     0.078829
      dxy     :     0.006222
      f0      :     0.010005  f :     0.065670
      f+1     :     0.009249
      f-1     :     0.010593
      f+2     :     0.015307
      f-2     :     0.007937
      f+3     :     0.001942
      f-3     :     0.010638
      g0      :     0.000625  g :     0.009699
      g+1     :     0.000421
      g-1     :     0.002022
      g+2     :     0.001212
      g-2     :     0.001091
      g+3     :     0.000195
      g-3     :     0.001495
      g+4     :     0.001672
      g-4     :     0.000965
      h0      :     0.000075  h :     0.000545
      h+1     :     0.000031
      h-1     :     0.000055
      h+2     :     0.000071
      h-2     :     0.000050
      h+3     :     0.000028
      h-3     :     0.000054
      h+4     :     0.000078
      h-4     :     0.000000
      h+5     :     0.000016
      h-5     :     0.000085
  1 B s       :     2.533741  s :     2.533741
      pz      :     0.891373  p :     1.850569
      px      :     0.129413
      py      :     0.829784
      dz2     :     0.064750  d :     0.438049
      dxz     :     0.001131
      dyz     :     0.214353
      dx2y2   :     0.069383
      dxy     :     0.088432
      f0      :     0.026597  f :     0.155670
      f+1     :     0.005258
      f-1     :     0.023359
      f+2     :     0.035555
      f-2     :     0.001045
      f+3     :     0.046100
      f-3     :     0.017757
      g0      :     0.000956  g :     0.036317
      g+1     :     0.000037
      g-1     :     0.008747
      g+2     :     0.003521
      g-2     :     0.001847
      g+3     :     0.000344
      g-3     :     0.006830
      g+4     :     0.003611
      g-4     :     0.010423
      h0      :     0.000384  h :     0.005430
      h+1     :     0.000019
      h-1     :     0.000585
      h+2     :     0.001227
      h-2     :     0.000014
      h+3     :     0.000286
      h-3     :     0.000436
      h+4     :     0.000543
      h-4     :     0.000019
      h+5     :     0.001231
      h-5     :     0.000685
  2 H s       :     0.704325  s :     0.704325
      pz      :     0.067578  p :     0.250700
      px      :     0.094997
      py      :     0.088125
      dz2     :     0.006339  d :     0.108750
      dxz     :     0.039406
      dyz     :     0.001033
      dx2y2   :     0.023300
      dxy     :     0.038670
      f0      :     0.003823  f :     0.030059
      f+1     :     0.002920
      f-1     :     0.001122
      f+2     :     0.006205
      f-2     :     0.000452
      f+3     :     0.008611
      f-3     :     0.006926
      g0      :     0.000041  g :     0.000907
      g+1     :     0.000166
      g-1     :     0.000005
      g+2     :     0.000076
      g-2     :     0.000053
      g+3     :     0.000101
      g-3     :     0.000035
      g+4     :     0.000259
      g-4     :     0.000170
  3 H s       :     0.742719  s :     0.742719
      pz      :     0.087284  p :     0.242540
      px      :     0.070573
      py      :     0.084682
      dz2     :     0.032636  d :     0.103650
      dxz     :     0.021743
      dyz     :     0.023639
      dx2y2   :     0.017999
      dxy     :     0.007634
      f0      :     0.008531  f :     0.030323
      f+1     :     0.004234
      f-1     :     0.004587
      f+2     :     0.006591
      f-2     :     0.004157
      f+3     :     0.001168
      f-3     :     0.001054
      g0      :     0.000173  g :     0.000989
      g+1     :     0.000130
      g-1     :     0.000145
      g+2     :     0.000181
      g-2     :     0.000160
      g+3     :     0.000090
      g-3     :     0.000086
      g+4     :     0.000007
      g-4     :     0.000016
  4 H s       :     0.742719  s :     0.742719
      pz      :     0.087284  p :     0.242540
      px      :     0.070573
      py      :     0.084682
      dz2     :     0.032636  d :     0.103650
      dxz     :     0.021743
      dyz     :     0.023639
      dx2y2   :     0.017999
      dxy     :     0.007634
      f0      :     0.008531  f :     0.030323
      f+1     :     0.004234
      f-1     :     0.004587
      f+2     :     0.006591
      f-2     :     0.004157
      f+3     :     0.001168
      f-3     :     0.001054
      g0      :     0.000173  g :     0.000989
      g+1     :     0.000130
      g-1     :     0.000145
      g+2     :     0.000181
      g-2     :     0.000160
      g+3     :     0.000090
      g-3     :     0.000086
      g+4     :     0.000007
      g-4     :     0.000016
  5 H s       :     0.911367  s :     0.911367
      pz      :     0.067534  p :     0.123812
      px      :     0.004927
      py      :     0.051351
      dz2     :     0.019014  d :     0.041932
      dxz     :     0.000997
      dyz     :     0.015056
      dx2y2   :     0.005582
      dxy     :     0.001284
      f0      :     0.004300  f :     0.013688
      f+1     :     0.000102
      f-1     :     0.005804
      f+2     :     0.002756
      f-2     :     0.000255
      f+3     :     0.000091
      f-3     :     0.000380
      g0      :     0.000061  g :     0.000251
      g+1     :     0.000001
      g-1     :     0.000097
      g+2     :     0.000063
      g-2     :     0.000005
      g+3     :     0.000002
      g-3     :     0.000019
      g+4     :     0.000002
      g-4     :     0.000001
  6 H s       :     0.911367  s :     0.911367
      pz      :     0.067534  p :     0.123812
      px      :     0.004927
      py      :     0.051351
      dz2     :     0.019014  d :     0.041932
      dxz     :     0.000997
      dyz     :     0.015056
      dx2y2   :     0.005582
      dxy     :     0.001284
      f0      :     0.004300  f :     0.013688
      f+1     :     0.000102
      f-1     :     0.005804
      f+2     :     0.002756
      f-2     :     0.000255
      f+3     :     0.000091
      f-3     :     0.000380
      g0      :     0.000061  g :     0.000251
      g+1     :     0.000001
      g-1     :     0.000097
      g+2     :     0.000063
      g-2     :     0.000005
      g+3     :     0.000002
      g-3     :     0.000019
      g+4     :     0.000002
      g-4     :     0.000001


                      *****************************
                      * MAYER POPULATION ANALYSIS *
                      *****************************

  NA   - Mulliken gross atomic population
  ZA   - Total nuclear charge
  QA   - Mulliken gross atomic charge
  VA   - Mayer's total valence
  BVA  - Mayer's bonded valence
  FA   - Mayer's free valence

  ATOM       NA         ZA         QA         VA         BVA        FA
  0 C      6.4336     6.0000    -0.4336     3.8864     3.8864     0.0000
  1 B      4.8821     5.0000     0.1179     3.1831     3.1831     0.0000
  2 H      0.8590     1.0000     0.1410     1.0262     1.0262    -0.0000
  3 H      0.8719     1.0000     0.1281     1.0225     1.0225    -0.0000
  4 H      0.8719     1.0000     0.1281     1.0225     1.0225    -0.0000
  5 H      1.0407     1.0000    -0.0407     0.9926     0.9926     0.0000
  6 H      1.0407     1.0000    -0.0407     0.9926     0.9926     0.0000

  Mayer bond orders larger than 0.100000
B(  0-C ,  1-B ) :   1.0710 B(  0-C ,  2-H ) :   0.9071 B(  0-C ,  3-H ) :   0.9599 
B(  0-C ,  4-H ) :   0.9599 B(  1-B ,  5-H ) :   0.9866 B(  1-B ,  6-H ) :   0.9866 


-------
TIMINGS
-------

Total SCF time: 0 days 0 hours 3 min 35 sec 

Total time                  ....     215.306 sec
Sum of individual times     ....     214.779 sec  ( 99.8%)

Fock matrix formation       ....     211.952 sec  ( 98.4%)
  XC integration            ....       1.554 sec  (  0.7% of F)
    Basis function eval.    ....       0.180 sec  ( 11.6% of XC)
    Density eval.           ....       0.482 sec  ( 31.0% of XC)
    XC-Functional eval.     ....       0.019 sec  (  1.2% of XC)
    XC-Potential eval.      ....       0.665 sec  ( 42.8% of XC)
Diagonalization             ....       0.519 sec  (  0.2%)
Density matrix formation    ....       0.050 sec  (  0.0%)
Population analysis         ....       0.092 sec  (  0.0%)
Initial guess               ....       0.233 sec  (  0.1%)
Orbital Transformation      ....       0.000 sec  (  0.0%)
Orbital Orthonormalization  ....       0.000 sec  (  0.0%)
DIIS solution               ....       0.328 sec  (  0.2%)
SOSCF solution              ....       0.460 sec  (  0.2%)
Grid generation             ....       1.145 sec  (  0.5%)

-------------------------   --------------------
FINAL SINGLE POINT ENERGY       -65.260851067166
-------------------------   --------------------


                            ***************************************
                            *     ORCA property calculations      *
                            ***************************************

                                    ---------------------
                                    Active property flags
                                    ---------------------
   (+) Dipole Moment


------------------------------------------------------------------------------
                       ORCA ELECTRIC PROPERTIES CALCULATION
------------------------------------------------------------------------------

Dipole Moment Calculation                       ... on
Quadrupole Moment Calculation                   ... off
Polarizability Calculation                      ... off
GBWName                                         ... CH3BH2_cc-pcv5z_.gbw
Electron density file                           ... CH3BH2_cc-pcv5z_.scfp
The origin for moment calculation is the CENTER OF MASS  = (-0.016481,  0.064710 -0.000000)

-------------
DIPOLE MOMENT
-------------
                                X             Y             Z
Electronic contribution:     -0.19831       0.73538      -0.00000
Nuclear contribution   :      0.24617      -1.03742       0.00000
                        -----------------------------------------
Total Dipole Moment    :      0.04786      -0.30204       0.00000
                        -----------------------------------------
Magnitude (a.u.)       :      0.30581
Magnitude (Debye)      :      0.77730



--------------------
Rotational spectrum 
--------------------
 
Rotational constants in cm-1:     3.228710     0.723532     0.660823 
Rotational constants in MHz : 96794.286037 21690.947830 19810.964189 

 Dipole components along the rotational axes: 
x,y,z [a.u.] :    -0.301983    -0.000000    -0.048216 
x,y,z [Debye]:    -0.767580    -0.000001    -0.122555 

 

Timings for individual modules:

Sum of individual times         ...      216.762 sec (=   3.613 min)
GTO integral calculation        ...        1.195 sec (=   0.020 min)   0.6 %
SCF iterations                  ...      215.567 sec (=   3.593 min)  99.4 %
                             ****ORCA TERMINATED NORMALLY****
TOTAL RUN TIME: 0 days 0 hours 3 minutes 37 seconds 124 msec
