
                                 *****************
                                 * O   R   C   A *
                                 *****************

           --- An Ab Initio, DFT and Semiempirical electronic structure package ---

                  #######################################################
                  #                        -***-                        #
                  #          Department of theory and spectroscopy      #
                  #               Directorship: Frank Neese             #
                  #        Max Planck Institute fuer Kohlenforschung    #
                  #                Kaiser Wilhelm Platz 1               #
                  #                 D-45470 Muelheim/Ruhr               #
                  #                      Germany                        #
                  #                                                     #
                  #                  All rights reserved                #
                  #                        -***-                        #
                  #######################################################


                         Program Version 4.2.1 -  RELEASE  -


 With contributions from (in alphabetic order):
   Daniel Aravena         : Magnetic Suceptibility
   Michael Atanasov       : Ab Initio Ligand Field Theory (pilot matlab implementation)
   Alexander A. Auer      : GIAO ZORA, VPT2
   Ute Becker             : Parallelization
   Giovanni Bistoni       : ED, misc. LED, open-shell LED, HFLD
   Martin Brehm           : Molecular dynamics
   Dmytro Bykov           : SCF Hessian
   Vijay G. Chilkuri      : MRCI spin determinant printing, contributions to CSF-ICE
   Dipayan Datta          : RHF DLPNO-CCSD density
   Achintya Kumar Dutta   : EOM-CC, STEOM-CC
   Dmitry Ganyushin       : Spin-Orbit,Spin-Spin,Magnetic field MRCI
   Miquel Garcia          : C-PCM Hessian, Gaussian charge scheme
   Yang Guo               : DLPNO-NEVPT2, CIM, IAO-localization
   Andreas Hansen         : Spin unrestricted coupled pair/coupled cluster methods
   Benjamin Helmich-Paris : CASSCF linear response (MC-RPA)
   Lee Huntington         : MR-EOM, pCC
   Robert Izsak           : Overlap fitted RIJCOSX, COSX-SCS-MP3, EOM
   Christian Kollmar      : KDIIS, OOCD, Brueckner-CCSD(T), CCSD density
   Simone Kossmann        : Meta GGA functionals, TD-DFT gradient, OOMP2, MP2 Hessian
   Martin Krupicka        : AUTO-CI
   Lucas Lang             : DCDCAS
   Dagmar Lenk            : GEPOL surface, SMD
   Dimitrios Liakos       : Extrapolation schemes; Compound Job, initial MDCI parallelization
   Dimitrios Manganas     : Further ROCIS development; embedding schemes
   Dimitrios Pantazis     : SARC Basis sets
   Taras Petrenko         : DFT Hessian,TD-DFT gradient, ASA, ECA, R-Raman, ABS, FL, XAS/XES, NRVS
   Peter Pinski           : DLPNO-MP2, DLPNO-MP2 Gradient
   Christoph Reimann      : Effective Core Potentials
   Marius Retegan         : Local ZFS, SOC
   Christoph Riplinger    : Optimizer, TS searches, QM/MM, DLPNO-CCSD(T), (RO)-DLPNO pert. Triples
   Tobias Risthaus        : Range-separated hybrids, TD-DFT gradient, RPA, STAB
   Michael Roemelt        : Original ROCIS implementation
   Masaaki Saitow         : Open-shell DLPNO-CCSD energy and density
   Barbara Sandhoefer     : DKH picture change effects
   Avijit Sen             : IP-ROCIS
   Kantharuban Sivalingam : CASSCF convergence, NEVPT2, FIC-MRCI
   Bernardo de Souza      : ESD, SOC TD-DFT
   Georgi Stoychev        : AutoAux, RI-MP2 NMR
   Willem Van den Heuvel  : Paramagnetic NMR
   Boris Wezisla          : Elementary symmetry handling
   Frank Wennmohs         : Technical directorship


 We gratefully acknowledge several colleagues who have allowed us to
 interface, adapt or use parts of their codes:
   Stefan Grimme, W. Hujo, H. Kruse,             : VdW corrections, initial TS optimization,
                  C. Bannwarth                     DFT functionals, gCP, sTDA/sTD-DF
   Ed Valeev, F. Pavosevic, A. Kumar             : LibInt (2-el integral package), F12 methods
   Garnet Chan, S. Sharma, J. Yang, R. Olivares  : DMRG
   Ulf Ekstrom                                   : XCFun DFT Library
   Mihaly Kallay                                 : mrcc  (arbitrary order and MRCC methods)
   Andreas Klamt, Michael Diedenhofen            : otool_cosmo (COSMO solvation model)
   Jiri Pittner, Ondrej Demel                    : Mk-CCSD
   Frank Weinhold                                : gennbo (NPA and NBO analysis)
   Christopher J. Cramer and Donald G. Truhlar   : smd solvation model
   Lars Goerigk                                  : TD-DFT with DH, B97 family of functionals
   V. Asgeirsson, H. Jonsson                     : NEB implementation
   FAccTs GmbH                                   : IRC, NEB, NEB-TS, Multilevel, MM, QM/MM, CI optimization
   S Lehtola, MJT Oliveira, MAL Marques          : LibXC Library


 Your calculation uses the libint2 library for the computation of 2-el integrals
 For citations please refer to: http://libint.valeyev.net

 Your ORCA version has been built with support for libXC version: 4.2.3
 For citations please refer to: https://tddft.org/programs/libxc/

 This ORCA versions uses:
   CBLAS   interface :  Fast vector & matrix operations
   LAPACKE interface :  Fast linear algebra routines
   SCALAPACK package :  Parallel linear algebra routines


----- Orbital basis set information -----
Your calculation utilizes the basis: cc-pCVQZ 
             H : cc-pVQZ. Obtained from the ccRepo (grant-hill.group.shef.ac.uk/ccrepo) Feb. 2017
                 T. H. Dunning, Jr., J. Chem. Phys. 90, 1007 (1989)
            He : cc-pVQZ. Obtained from the ccRepo (grant-hill.group.shef.ac.uk/ccrepo) Feb. 2017
                 D. E. Woon, T. H. Dunning, Jr., J. Chem. Phys. 100, 2975 (1994)
  Li-Be, Na-Mg : Obtained from the ccRepo (grant-hill.group.shef.ac.uk/ccrepo) Feb. 2017
                 B. P. Prascher, D. E. Woon, K. A. Peterson, T. H. Dunning, Jr., A. K. Wilson, Theor. Chem. Acc. 128, 69 (2011)
          B-Ne : Obtained from the ccRepo (grant-hill.group.shef.ac.uk/ccrepo) Feb. 2017
                 D. E. Woon, T. H. Dunning, Jr., J. Chem. Phys. 103, 4572 (1995)
                  K. A. Peterson, T. H. Dunning, Jr., J. Chem. Phys. 117, 10548 (2002)
         Al-Ar : Obtained from the EMSL Basis Set Exchange (bse.pnl.gov) Feb. 2017
                 K. A. Peterson, T. H. Dunning, Jr., J. Chem. Phys. 117, 10548 (2002)
            Ca : Obtained from the Peterson Research Group Website (tyr0.chem.wsu.edu/~kipeters) Feb. 2017
                 J. Koput, K. A. Peterson, J. Phys. Chem. A 106, 9595 (2002)
         Ga-Kr : Obtained from the Peterson Research Group Website (tyr0.chem.wsu.edu/~kipeters) Feb. 2017
                 N. J. DeYonker, K. A. Peterson, A. K. Wilson, J. Phys. Chem. A 111, 11383 (2007)

================================================================================
                                        WARNINGS
                       Please study these warnings very carefully!
================================================================================


INFO   : the flag for use of LIBINT has been found!

================================================================================
                                       INPUT FILE
================================================================================
NAME = CH3BH2_cc-pcvqz_.inp
|  1> ! LDA cc-pcvqz nori grid5 finalgrid6 verytightscf
|  2> %Pal NProcs 18 End
|  3> 
|  4> *xyz 0 1
|  5> C -0.0190572749 -0.6845195756 -0.0000000839
|  6> B -0.0207972952 0.8729523951 -0.0000000656
|  7> H 1.0512614815 -0.9395660726 0.0000010826
|  8> H -0.4362896177 -1.1431007759 0.8927422542
|  9> H -0.4362878975 -1.1431009662 -0.8927431359
| 10> H 0.0151838060 1.4835176231 -1.0228906497
| 11> H 0.0151867978 1.4835173722 1.0228905983
| 12> **                         ****END OF INPUT****
================================================================================

                       ****************************
                       * Single Point Calculation *
                       ****************************

---------------------------------
CARTESIAN COORDINATES (ANGSTROEM)
---------------------------------
  C     -0.019057   -0.684520   -0.000000
  B     -0.020797    0.872952   -0.000000
  H      1.051261   -0.939566    0.000001
  H     -0.436290   -1.143101    0.892742
  H     -0.436288   -1.143101   -0.892743
  H      0.015184    1.483518   -1.022891
  H      0.015187    1.483517    1.022891

----------------------------
CARTESIAN COORDINATES (A.U.)
----------------------------
  NO LB      ZA    FRAG     MASS         X           Y           Z
   0 C     6.0000    0    12.011   -0.036013   -1.293555   -0.000000
   1 B     5.0000    0    10.810   -0.039301    1.649641   -0.000000
   2 H     1.0000    0     1.008    1.986596   -1.775523    0.000002
   3 H     1.0000    0     1.008   -0.824468   -2.160147    1.687038
   4 H     1.0000    0     1.008   -0.824465   -2.160148   -1.687040
   5 H     1.0000    0     1.008    0.028693    2.803442   -1.932983
   6 H     1.0000    0     1.008    0.028699    2.803442    1.932983

--------------------------------
INTERNAL COORDINATES (ANGSTROEM)
--------------------------------
 C      0   0   0     0.000000000000     0.00000000     0.00000000
 B      1   0   0     1.557472942682     0.00000000     0.00000000
 H      1   2   0     1.100286760774   103.46708113     0.00000000
 H      1   2   3     1.086907736371   114.92834598   115.07642486
 H      1   2   3     1.086907742697   114.92835822   244.92355778
 H      2   1   3     1.191801025476   120.81519254    87.94730336
 H      2   1   3     1.191801055757   120.81517879   272.05298910

---------------------------
INTERNAL COORDINATES (A.U.)
---------------------------
 C      0   0   0     0.000000000000     0.00000000     0.00000000
 B      1   0   0     2.943197322662     0.00000000     0.00000000
 H      1   2   0     2.079240646643   103.46708113     0.00000000
 H      1   2   3     2.053957954582   114.92834598   115.07642486
 H      1   2   3     2.053957966535   114.92835822   244.92355778
 H      2   1   3     2.252177544277   120.81519254    87.94730336
 H      2   1   3     2.252177601499   120.81517879   272.05298910

---------------------
BASIS SET INFORMATION
---------------------
There are 3 groups of distinct atoms

 Group   1 Type C   : 24s9p5d3f1g contracted to 8s7p5d3f1g pattern {99111111/3111111/11111/111/1}
 Group   2 Type B   : 24s9p5d3f1g contracted to 8s7p5d3f1g pattern {99111111/3111111/11111/111/1}
 Group   3 Type H   : 6s3p2d1f contracted to 4s3p2d1f pattern {3111/111/11/1}

Atom   0C    basis set group =>   1
Atom   1B    basis set group =>   2
Atom   2H    basis set group =>   3
Atom   3H    basis set group =>   3
Atom   4H    basis set group =>   3
Atom   5H    basis set group =>   3
Atom   6H    basis set group =>   3


           ************************************************************
           *        Program running with 18 parallel MPI-processes    *
           *              working on a common directory               *
           ************************************************************
------------------------------------------------------------------------------
                           ORCA GTO INTEGRAL CALCULATION
------------------------------------------------------------------------------

                         BASIS SET STATISTICS AND STARTUP INFO

 # of primitive gaussian shells          ...  144
 # of primitive gaussian functions       ...  372
 # of contracted shells                  ...   98
 # of contracted basis functions         ...  318
 Highest angular momentum                ...    4
 Maximum contraction depth               ...    9
 Integral package used                   ... LIBINT
 Integral threshhold            Thresh   ...  1.000e-12
 Primitive cut-off              TCut     ...  1.000e-14


------------------------------ INTEGRAL EVALUATION ----------------------------


 * One electron integrals 
 Pre-screening matrix                    ... done
 Shell pair data                         ... done (   0.001 sec)



           ************************************************************
           *        Program running with 18 parallel MPI-processes    *
           *              working on a common directory               *
           ************************************************************
-------------------------------------------------------------------------------
                                 ORCA SCF
-------------------------------------------------------------------------------

------------
SCF SETTINGS
------------
Hamiltonian:
 Density Functional     Method          .... DFT(GTOs)
 Exchange Functional    Exchange        .... Slater
   X-Alpha parameter    XAlpha          ....  0.666667
 Correlation Functional Correlation     .... VWN-5
 Gradients option       PostSCFGGA      .... off
   Density functional embedding theory  .... OFF


General Settings:
 Integral files         IntName         .... CH3BH2_cc-pcvqz_
 Hartree-Fock type      HFTyp           .... RHF
 Total Charge           Charge          ....    0
 Multiplicity           Mult            ....    1
 Number of Electrons    NEL             ....   16
 Basis Dimension        Dim             ....  318
 Nuclear Repulsion      ENuc            ....     31.8792731152 Eh

Convergence Acceleration:
 DIIS                   CNVDIIS         .... on
   Start iteration      DIISMaxIt       ....    12
   Startup error        DIISStart       ....  0.200000
   # of expansion vecs  DIISMaxEq       ....     5
   Bias factor          DIISBfac        ....   1.050
   Max. coefficient     DIISMaxC        ....  10.000
 Newton-Raphson         CNVNR           .... off
 SOSCF                  CNVSOSCF        .... on
   Start iteration      SOSCFMaxIt      ....   150
   Startup grad/error   SOSCFStart      ....  0.003300
 Level Shifting         CNVShift        .... on
   Level shift para.    LevelShift      ....    0.2500
   Turn off err/grad.   ShiftErr        ....    0.0010
 Zerner damping         CNVZerner       .... off
 Static damping         CNVDamp         .... on
   Fraction old density DampFac         ....    0.7000
   Max. Damping (<1)    DampMax         ....    0.9800
   Min. Damping (>=0)   DampMin         ....    0.0000
   Turn off err/grad.   DampErr         ....    0.1000
 Fernandez-Rico         CNVRico         .... off

SCF Procedure:
 Maximum # iterations   MaxIter         ....   125
 SCF integral mode      SCFMode         .... Direct
   Integral package                     .... LIBINT
 Reset frequency        DirectResetFreq ....    20
 Integral Threshold     Thresh          ....  1.000e-12 Eh
 Primitive CutOff       TCut            ....  1.000e-14 Eh

Convergence Tolerance:
 Convergence Check Mode ConvCheckMode   .... Total+1el-Energy
 Convergence forced     ConvForced      .... 0
 Energy Change          TolE            ....  1.000e-09 Eh
 1-El. energy change                    ....  1.000e-06 Eh
 Orbital Gradient       TolG            ....  2.000e-06
 Orbital Rotation angle TolX            ....  2.000e-06
 DIIS Error             TolErr          ....  1.000e-08


Diagonalization of the overlap matrix:
Smallest eigenvalue                        ... 1.228e-04
Time for diagonalization                   ...    0.019 sec
Threshold for overlap eigenvalues          ... 1.000e-08
Number of eigenvalues below threshold      ... 0
Time for construction of square roots      ...    0.011 sec
Total time needed                          ...    0.030 sec

-------------------
DFT GRID GENERATION
-------------------

General Integration Accuracy     IntAcc      ...  5.010
Radial Grid Type                 RadialGrid  ... Gauss-Chebyshev
Angular Grid (max. acc.)         AngularGrid ... Lebedev-434
Angular grid pruning method      GridPruning ... 3 (G Style)
Weight generation scheme         WeightScheme... Becke
Basis function cutoff            BFCut       ...    1.0000e-12
Integration weight cutoff        WCut        ...    1.0000e-14
Grids for H and He will be reduced by one unit

# of grid points (after initial pruning)     ...  54748 (   0.0 sec)
# of grid points (after weights+screening)   ...  52459 (   0.0 sec)
nearest neighbour list constructed           ...    0.0 sec
Grid point re-assignment to atoms done       ...    0.0 sec
Grid point division into batches done        ...    0.3 sec
Reduced shell lists constructed in    0.3 sec

Total number of grid points                  ...    52459
Total number of batches                      ...      824
Average number of points per batch           ...       63
Average number of grid points per atom       ...     7494
Average number of shells per batch           ...    82.70 (84.39%)
Average number of basis functions per batch  ...   270.11 (84.94%)
Average number of large shells per batch     ...    74.45 (90.02%)
Average number of large basis fcns per batch ...   244.57 (90.55%)
Maximum spatial batch extension              ...   1.71,  1.47,  1.59 au
Average spatial batch extension              ...   0.05,  0.05,  0.05 au

Time for grid setup =    0.360 sec

------------------------------
INITIAL GUESS: MODEL POTENTIAL
------------------------------
Loading Hartree-Fock densities                     ... done
Calculating cut-offs                               ... done
Setting up the integral package                    ... done
Initializing the effective Hamiltonian             ... done
Starting the Coulomb interaction                   ... done (   0.0 sec)
Reading the grid                                   ... done
Mapping shells                                     ... done
Starting the XC term evaluation                    ... done (   0.0 sec)
  promolecular density results
     # of electrons  =     15.997558789
     EX              =     -9.293749516
     EC              =     -0.931505532
     EX+EC           =    -10.225255048
Transforming the Hamiltonian                       ... done (   0.0 sec)
Diagonalizing the Hamiltonian                      ... done (   0.0 sec)
Back transforming the eigenvectors                 ... done (   0.0 sec)
Now organizing SCF variables                       ... done
                      ------------------
                      INITIAL GUESS DONE (   0.5 sec)
                      ------------------
--------------
SCF ITERATIONS
--------------
ITER       Energy         Delta-E        Max-DP      RMS-DP      [F,P]     Damp
               ***  Starting incremental Fock matrix formation  ***
  0    -65.1481796992   0.000000000000 0.04618516  0.00044044  0.2307932 0.7000
  1    -65.2032913223  -0.055111623098 0.03084165  0.00031704  0.1087064 0.7000
                               ***Turning on DIIS***
  2    -65.2227795485  -0.019488226159 0.03481869  0.00051561  0.0292258 0.0000
  3    -65.2494634875  -0.026683939096 0.02222753  0.00020454  0.0693283 0.0000
  4    -65.2591129434  -0.009649455845 0.00612096  0.00008584  0.0137085 0.0000
  5    -65.2598205247  -0.000707581262 0.00255858  0.00003526  0.0044962 0.0000
                      *** Initiating the SOSCF procedure ***
                           *** Shutting down DIIS ***
                      *** Re-Reading the Fockian *** 
                      *** Removing any level shift *** 
ITER      Energy       Delta-E        Grad      Rot      Max-DP    RMS-DP
  6    -65.25987363  -0.0000531094  0.000336  0.000336  0.002029  0.000027
               *** Restarting incremental Fock matrix formation ***
  7    -65.25987742  -0.0000037812  0.000112  0.000256  0.000328  0.000003
  8    -65.25987720   0.0000002129  0.000157  0.000148  0.000142  0.000002
  9    -65.25987766  -0.0000004603  0.000015  0.000042  0.000032  0.000000
 10    -65.25987766   0.0000000028  0.000022  0.000028  0.000022  0.000000
                  ***Gradient check signals convergence***
              ***Rediagonalizing the Fockian in SOSCF/NRSCF***

               *****************************************************
               *                     SUCCESS                       *
               *           SCF CONVERGED AFTER  11 CYCLES          *
               *****************************************************

Setting up the final grid:

General Integration Accuracy     IntAcc      ...  5.340
Radial Grid Type                 RadialGrid  ... Gauss-Chebyshev
Angular Grid (max. acc.)         AngularGrid ... Lebedev-590
Angular grid pruning method      GridPruning ... 3 (G Style)
Weight generation scheme         WeightScheme... Becke
Basis function cutoff            BFCut       ...    1.0000e-12
Integration weight cutoff        WCut        ...    1.0000e-14
Grids for H and He will be reduced by one unit

# of grid points (after initial pruning)     ...  87998 (   0.0 sec)
# of grid points (after weights+screening)   ...  84126 (   0.0 sec)
nearest neighbour list constructed           ...    0.0 sec
Grid point re-assignment to atoms done       ...    0.0 sec
Grid point division into batches done        ...    0.7 sec
Reduced shell lists constructed in    0.7 sec

Total number of grid points                  ...    84126
Total number of batches                      ...     1318
Average number of points per batch           ...       63
Average number of grid points per atom       ...    12018
Average number of shells per batch           ...    82.71 (84.39%)
Average number of basis functions per batch  ...   270.55 (85.08%)
Average number of large shells per batch     ...    73.96 (89.42%)
Average number of large basis fcns per batch ...   242.49 (89.63%)
Maximum spatial batch extension              ...   2.00,  1.26,  1.54 au
Average spatial batch extension              ...   0.04,  0.04,  0.04 au

Final grid set up in    0.8 sec
Final integration                            ... done (   0.1 sec)
Change in XC energy                          ...     0.000000907
Integrated number of electrons               ...    16.000000106
Previous integrated no of electrons          ...    16.000002628

----------------
TOTAL SCF ENERGY
----------------

Total Energy       :          -65.25987676 Eh           -1775.81153 eV

Components:
Nuclear Repulsion  :           31.87927312 Eh             867.47912 eV
Electronic Energy  :          -97.13914987 Eh           -2643.29065 eV
One Electron Energy:         -149.88238242 Eh           -4078.50697 eV
Two Electron Energy:           52.74323255 Eh            1435.21632 eV

Virial components:
Potential Energy   :         -129.96825304 Eh           -3536.61596 eV
Kinetic Energy     :           64.70837628 Eh            1760.80444 eV
Virial Ratio       :            2.00852286


DFT components:
N(Alpha)           :        8.000000053112 electrons
N(Beta)            :        8.000000053112 electrons
N(Total)           :       16.000000106224 electrons
E(X)               :       -9.601976257548 Eh       
E(C)               :       -0.954850475026 Eh       
E(XC)              :      -10.556826732573 Eh       
DFET-embed. en.    :        0.000000000000 Eh       

---------------
SCF CONVERGENCE
---------------

  Last Energy change         ...   -6.3636e-09  Tolerance :   1.0000e-09
  Last MAX-Density change    ...    9.2188e-07  Tolerance :   1.0000e-08
  Last RMS-Density change    ...    1.6689e-08  Tolerance :   1.0000e-09
  Last Orbital Gradient      ...    4.9394e-07  Tolerance :   2.0000e-06
  Last Orbital Rotation      ...    1.4441e-06  Tolerance :   2.0000e-06

             **** THE GBW FILE WAS UPDATED (CH3BH2_cc-pcvqz_.gbw) ****
             **** DENSITY FILE WAS UPDATED (CH3BH2_cc-pcvqz_.scfp) ****
             **** ENERGY FILE WAS UPDATED (CH3BH2_cc-pcvqz_.en.tmp) ****
             **** THE GBW FILE WAS UPDATED (CH3BH2_cc-pcvqz_.gbw) ****
             **** DENSITY FILE WAS UPDATED (CH3BH2_cc-pcvqz_.scfp) ****
----------------
ORBITAL ENERGIES
----------------

  NO   OCC          E(Eh)            E(eV) 
   0   2.0000      -9.762597      -265.6538 
   1   2.0000      -6.432085      -175.0259 
   2   2.0000      -0.636905       -17.3311 
   3   2.0000      -0.431793       -11.7497 
   4   2.0000      -0.375508       -10.2181 
   5   2.0000      -0.365215        -9.9380 
   6   2.0000      -0.297404        -8.0928 
   7   2.0000      -0.279074        -7.5940 
   8   0.0000      -0.093899        -2.5551 
   9   0.0000       0.015624         0.4252 
  10   0.0000       0.061405         1.6709 
  11   0.0000       0.062153         1.6913 
  12   0.0000       0.075292         2.0488 
  13   0.0000       0.102299         2.7837 
  14   0.0000       0.117046         3.1850 
  15   0.0000       0.133835         3.6418 
  16   0.0000       0.135195         3.6789 
  17   0.0000       0.165734         4.5099 
  18   0.0000       0.181918         4.9502 
  19   0.0000       0.182708         4.9717 
  20   0.0000       0.193496         5.2653 
  21   0.0000       0.283057         7.7024 
  22   0.0000       0.298928         8.1342 
  23   0.0000       0.299272         8.1436 
  24   0.0000       0.312494         8.5034 
  25   0.0000       0.326947         8.8967 
  26   0.0000       0.341771         9.3001 
  27   0.0000       0.361135         9.8270 
  28   0.0000       0.365238         9.9386 
  29   0.0000       0.457271        12.4430 
  30   0.0000       0.492148        13.3920 
  31   0.0000       0.501487        13.6462 
  32   0.0000       0.521952        14.2030 
  33   0.0000       0.522000        14.2043 
  34   0.0000       0.599049        16.3010 
  35   0.0000       0.600692        16.3457 
  36   0.0000       0.650145        17.6914 
  37   0.0000       0.665269        18.1029 
  38   0.0000       0.678405        18.4604 
  39   0.0000       0.680946        18.5295 
  40   0.0000       0.701644        19.0927 
  41   0.0000       0.721193        19.6247 
  42   0.0000       0.730063        19.8660 
  43   0.0000       0.746844        20.3226 
  44   0.0000       0.802094        21.8261 
  45   0.0000       0.826291        22.4845 
  46   0.0000       0.857025        23.3208 
  47   0.0000       0.901336        24.5266 
  48   0.0000       0.908003        24.7080 
  49   0.0000       0.935270        25.4500 
  50   0.0000       0.954456        25.9721 
  51   0.0000       0.968878        26.3645 
  52   0.0000       0.981419        26.7058 
  53   0.0000       0.990487        26.9525 
  54   0.0000       1.049269        28.5521 
  55   0.0000       1.080843        29.4112 
  56   0.0000       1.127303        30.6755 
  57   0.0000       1.163283        31.6545 
  58   0.0000       1.169016        31.8105 
  59   0.0000       1.171362        31.8744 
  60   0.0000       1.219508        33.1845 
  61   0.0000       1.254870        34.1467 
  62   0.0000       1.265044        34.4236 
  63   0.0000       1.288996        35.0754 
  64   0.0000       1.340724        36.4830 
  65   0.0000       1.374331        37.3974 
  66   0.0000       1.379559        37.5397 
  67   0.0000       1.513352        41.1804 
  68   0.0000       1.536207        41.8023 
  69   0.0000       1.583077        43.0777 
  70   0.0000       1.600460        43.5507 
  71   0.0000       1.663646        45.2701 
  72   0.0000       1.673059        45.5263 
  73   0.0000       1.750405        47.6309 
  74   0.0000       1.757520        47.8245 
  75   0.0000       1.774270        48.2803 
  76   0.0000       1.806532        49.1582 
  77   0.0000       1.836963        49.9863 
  78   0.0000       1.842941        50.1490 
  79   0.0000       1.912267        52.0354 
  80   0.0000       1.961140        53.3653 
  81   0.0000       1.974481        53.7284 
  82   0.0000       2.036541        55.4171 
  83   0.0000       2.047299        55.7098 
  84   0.0000       2.145561        58.3837 
  85   0.0000       2.146248        58.4024 
  86   0.0000       2.170870        59.0724 
  87   0.0000       2.185045        59.4581 
  88   0.0000       2.237987        60.8987 
  89   0.0000       2.273673        61.8698 
  90   0.0000       2.292124        62.3719 
  91   0.0000       2.337269        63.6003 
  92   0.0000       2.362535        64.2878 
  93   0.0000       2.367095        64.4119 
  94   0.0000       2.384848        64.8950 
  95   0.0000       2.386795        64.9480 
  96   0.0000       2.400493        65.3207 
  97   0.0000       2.453541        66.7642 
  98   0.0000       2.494803        67.8871 
  99   0.0000       2.497472        67.9597 
 100   0.0000       2.542767        69.1922 
 101   0.0000       2.548784        69.3559 
 102   0.0000       2.572200        69.9931 
 103   0.0000       2.600336        70.7587 
 104   0.0000       2.638907        71.8083 
 105   0.0000       2.735151        74.4272 
 106   0.0000       2.772974        75.4565 
 107   0.0000       2.816083        76.6295 
 108   0.0000       2.837551        77.2137 
 109   0.0000       2.845505        77.4301 
 110   0.0000       2.846513        77.4576 
 111   0.0000       2.909544        79.1727 
 112   0.0000       2.950776        80.2947 
 113   0.0000       2.962604        80.6166 
 114   0.0000       2.987420        81.2918 
 115   0.0000       3.020191        82.1836 
 116   0.0000       3.063372        83.3586 
 117   0.0000       3.077120        83.7327 
 118   0.0000       3.174515        86.3829 
 119   0.0000       3.242711        88.2387 
 120   0.0000       3.243341        88.2558 
 121   0.0000       3.273827        89.0854 
 122   0.0000       3.312455        90.1365 
 123   0.0000       3.328030        90.5603 
 124   0.0000       3.410608        92.8074 
 125   0.0000       3.463633        94.2503 
 126   0.0000       3.520330        95.7931 
 127   0.0000       3.525431        95.9319 
 128   0.0000       3.538460        96.2864 
 129   0.0000       3.566776        97.0569 
 130   0.0000       3.651575        99.3644 
 131   0.0000       3.651669        99.3670 
 132   0.0000       3.695743       100.5663 
 133   0.0000       3.719283       101.2068 
 134   0.0000       3.745808       101.9286 
 135   0.0000       3.765510       102.4647 
 136   0.0000       3.796577       103.3101 
 137   0.0000       3.834868       104.3521 
 138   0.0000       3.842207       104.5518 
 139   0.0000       3.953242       107.5732 
 140   0.0000       4.093139       111.3800 
 141   0.0000       4.134355       112.5015 
 142   0.0000       4.156677       113.1089 
 143   0.0000       4.295541       116.8876 
 144   0.0000       4.333526       117.9212 
 145   0.0000       4.386597       119.3654 
 146   0.0000       4.458216       121.3142 
 147   0.0000       4.508524       122.6832 
 148   0.0000       4.576895       124.5436 
 149   0.0000       4.584951       124.7629 
 150   0.0000       4.627031       125.9079 
 151   0.0000       4.699462       127.8789 
 152   0.0000       4.863511       132.3429 
 153   0.0000       5.047243       137.3425 
 154   0.0000       5.221802       142.0925 
 155   0.0000       5.331094       145.0664 
 156   0.0000       5.368624       146.0877 
 157   0.0000       5.414646       147.3400 
 158   0.0000       5.439501       148.0164 
 159   0.0000       5.481745       149.1659 
 160   0.0000       5.757026       156.6566 
 161   0.0000       5.760528       156.7519 
 162   0.0000       5.815443       158.2462 
 163   0.0000       5.818778       158.3370 
 164   0.0000       5.871080       159.7602 
 165   0.0000       5.876718       159.9136 
 166   0.0000       5.948071       161.8552 
 167   0.0000       5.953326       161.9982 
 168   0.0000       5.993477       163.0908 
 169   0.0000       6.023273       163.9016 
 170   0.0000       6.057875       164.8432 
 171   0.0000       6.068923       165.1438 
 172   0.0000       6.103416       166.0824 
 173   0.0000       6.105168       166.1301 
 174   0.0000       6.127817       166.7464 
 175   0.0000       6.144878       167.2106 
 176   0.0000       6.148089       167.2980 
 177   0.0000       6.238792       169.7662 
 178   0.0000       6.244368       169.9179 
 179   0.0000       6.310477       171.7168 
 180   0.0000       6.368262       173.2892 
 181   0.0000       6.474302       176.1747 
 182   0.0000       6.520622       177.4351 
 183   0.0000       6.549644       178.2249 
 184   0.0000       6.557506       178.4388 
 185   0.0000       6.652721       181.0298 
 186   0.0000       6.706887       182.5037 
 187   0.0000       6.709518       182.5753 
 188   0.0000       6.833321       185.9441 
 189   0.0000       6.873171       187.0285 
 190   0.0000       6.890554       187.5015 
 191   0.0000       6.956747       189.3027 
 192   0.0000       7.119566       193.7332 
 193   0.0000       7.141458       194.3290 
 194   0.0000       7.146793       194.4741 
 195   0.0000       7.213943       196.3014 
 196   0.0000       7.214176       196.3077 
 197   0.0000       7.300655       198.6609 
 198   0.0000       7.337554       199.6650 
 199   0.0000       7.393825       201.1962 
 200   0.0000       7.405026       201.5010 
 201   0.0000       7.413065       201.7198 
 202   0.0000       7.490247       203.8200 
 203   0.0000       7.585643       206.4158 
 204   0.0000       7.593926       206.6412 
 205   0.0000       7.629480       207.6087 
 206   0.0000       7.639593       207.8839 
 207   0.0000       7.683316       209.0737 
 208   0.0000       7.731057       210.3727 
 209   0.0000       7.758588       211.1219 
 210   0.0000       7.827130       212.9870 
 211   0.0000       7.835081       213.2034 
 212   0.0000       7.855407       213.7565 
 213   0.0000       7.943658       216.1579 
 214   0.0000       7.958035       216.5491 
 215   0.0000       8.034235       218.6227 
 216   0.0000       8.126383       221.1301 
 217   0.0000       8.189489       222.8473 
 218   0.0000       8.190795       222.8829 
 219   0.0000       8.202188       223.1929 
 220   0.0000       8.222586       223.7480 
 221   0.0000       8.249712       224.4861 
 222   0.0000       8.267090       224.9590 
 223   0.0000       8.298335       225.8092 
 224   0.0000       8.337577       226.8770 
 225   0.0000       8.371820       227.8088 
 226   0.0000       8.435322       229.5368 
 227   0.0000       8.450788       229.9576 
 228   0.0000       8.491048       231.0532 
 229   0.0000       8.535157       232.2534 
 230   0.0000       8.643256       235.1949 
 231   0.0000       8.675781       236.0800 
 232   0.0000       8.701921       236.7913 
 233   0.0000       8.720675       237.3016 
 234   0.0000       8.789246       239.1675 
 235   0.0000       8.839771       240.5424 
 236   0.0000       8.852970       240.9016 
 237   0.0000       8.884964       241.7722 
 238   0.0000       8.941209       243.3027 
 239   0.0000       8.955362       243.6878 
 240   0.0000       9.079835       247.0749 
 241   0.0000       9.208078       250.5645 
 242   0.0000       9.215023       250.7535 
 243   0.0000       9.410035       256.0601 
 244   0.0000       9.584414       260.8052 
 245   0.0000       9.677059       263.3262 
 246   0.0000       9.712500       264.2906 
 247   0.0000       9.722033       264.5500 
 248   0.0000       9.819311       267.1970 
 249   0.0000       9.913983       269.7732 
 250   0.0000       9.937595       270.4157 
 251   0.0000      10.127335       275.5788 
 252   0.0000      10.205266       277.6994 
 253   0.0000      10.206692       277.7382 
 254   0.0000      10.450312       284.3674 
 255   0.0000      10.650232       289.8075 
 256   0.0000      11.176178       304.1193 
 257   0.0000      12.070985       328.4682 
 258   0.0000      12.151106       330.6484 
 259   0.0000      12.228331       332.7498 
 260   0.0000      13.642068       371.2195 
 261   0.0000      13.746148       374.0517 
 262   0.0000      13.779223       374.9517 
 263   0.0000      19.058557       518.6097 
 264   0.0000      19.096245       519.6352 
 265   0.0000      19.432151       528.7757 
 266   0.0000      19.725685       536.7632 
 267   0.0000      19.969050       543.3855 
 268   0.0000      20.150821       548.3317 
 269   0.0000      20.245235       550.9008 
 270   0.0000      20.326974       553.1251 
 271   0.0000      24.618497       669.9034 
 272   0.0000      26.053555       708.9533 
 273   0.0000      26.076791       709.5856 
 274   0.0000      26.650439       725.1953 
 275   0.0000      26.975379       734.0374 
 276   0.0000      26.986575       734.3420 
 277   0.0000      36.634279       996.8694 
 278   0.0000      43.747405      1190.4274 
 279   0.0000      44.874884      1221.1077 
 280   0.0000      44.943646      1222.9788 
 281   0.0000      66.239400      1802.4657 
 282   0.0000      66.562008      1811.2443 
 283   0.0000      66.628672      1813.0584 
 284   0.0000      74.630226      2030.7917 
 285   0.0000      74.636008      2030.9490 
 286   0.0000      74.637511      2030.9899 
 287   0.0000      74.638921      2031.0283 
 288   0.0000      74.639036      2031.0314 
 289   0.0000      74.666230      2031.7714 
 290   0.0000      74.674493      2031.9963 
 291   0.0000      82.426575      2242.9411 
 292   0.0000      84.604377      2302.2021 
 293   0.0000      84.638481      2303.1302 
 294   0.0000      84.892218      2310.0347 
 295   0.0000      85.065456      2314.7487 
 296   0.0000      85.135810      2316.6632 
 297   0.0000      97.299914      2647.6653 
 298   0.0000      97.315322      2648.0845 
 299   0.0000      97.318957      2648.1834 
 300   0.0000      97.335967      2648.6463 
 301   0.0000      97.337712      2648.6938 
 302   0.0000      97.342548      2648.8254 
 303   0.0000      97.365208      2649.4420 
 304   0.0000     113.620127      3091.7608 
 305   0.0000     113.631332      3092.0657 
 306   0.0000     113.896767      3099.2886 
 307   0.0000     114.085023      3104.4113 
 308   0.0000     114.089367      3104.5295 
 309   0.0000     121.738813      3312.6815 
 310   0.0000     150.210530      4087.4363 
 311   0.0000     151.129695      4112.4481 
 312   0.0000     151.191219      4114.1222 
 313   0.0000     223.473394      6081.0202 
 314   0.0000     223.741814      6088.3243 
 315   0.0000     223.795847      6089.7946 
 316   0.0000     346.957168      9441.1845 
 317   0.0000     506.872577     13792.7040 

                    ********************************
                    * MULLIKEN POPULATION ANALYSIS *
                    ********************************

-----------------------
MULLIKEN ATOMIC CHARGES
-----------------------
   0 C :   -0.477229
   1 B :    0.043695
   2 H :    0.146150
   3 H :    0.146858
   4 H :    0.146858
   5 H :   -0.003166
   6 H :   -0.003166
Sum of atomic charges:    0.0000000

--------------------------------
MULLIKEN REDUCED ORBITAL CHARGES
--------------------------------
  0 C s       :     3.210877  s :     3.210877
      pz      :     1.087237  p :     3.215598
      px      :     1.030671
      py      :     1.097690
      dz2     :     0.008882  d :     0.046994
      dxz     :     0.006555
      dyz     :     0.022276
      dx2y2   :     0.008796
      dxy     :     0.000485
      f0      :     0.000348  f :     0.002949
      f+1     :     0.000870
      f-1     :     0.000453
      f+2     :     0.000665
      f-2     :     0.000173
      f+3     :     0.000219
      f-3     :     0.000220
      g0      :     0.000077  g :     0.000811
      g+1     :     0.000110
      g-1     :     0.000121
      g+2     :     0.000122
      g-2     :     0.000143
      g+3     :     0.000019
      g-3     :     0.000032
      g+4     :     0.000082
      g-4     :     0.000106
  1 B s       :     3.095943  s :     3.095943
      pz      :     0.893446  p :     1.784375
      px      :     0.101247
      py      :     0.789682
      dz2     :     0.012418  d :     0.068774
      dxz     :     0.000160
      dyz     :     0.032816
      dx2y2   :     0.008384
      dxy     :     0.014997
      f0      :     0.000388  f :     0.005823
      f+1     :     0.000208
      f-1     :     0.002191
      f+2     :     0.000460
      f-2     :    -0.000029
      f+3     :     0.001856
      f-3     :     0.000749
      g0      :     0.000102  g :     0.001391
      g+1     :     0.000001
      g-1     :     0.000564
      g+2     :     0.000353
      g-2     :     0.000073
      g+3     :     0.000000
      g-3     :     0.000057
      g+4     :     0.000062
      g-4     :     0.000180
  2 H s       :     0.806723  s :     0.806723
      pz      :     0.015163  p :     0.043363
      px      :     0.012798
      py      :     0.015402
      dz2     :     0.000147  d :     0.003605
      dxz     :     0.001343
      dyz     :     0.000087
      dx2y2   :     0.000780
      dxy     :     0.001249
      f0      :     0.000020  f :     0.000159
      f+1     :     0.000015
      f-1     :     0.000006
      f+2     :     0.000038
      f-2     :    -0.000001
      f+3     :     0.000055
      f-3     :     0.000026
  3 H s       :     0.808482  s :     0.808482
      pz      :     0.014694  p :     0.041508
      px      :     0.014269
      py      :     0.012544
      dz2     :     0.000988  d :     0.003031
      dxz     :     0.000712
      dyz     :     0.000582
      dx2y2   :     0.000494
      dxy     :     0.000256
      f0      :     0.000029  f :     0.000121
      f+1     :     0.000016
      f-1     :     0.000022
      f+2     :     0.000027
      f-2     :     0.000017
      f+3     :     0.000004
      f-3     :     0.000006
  4 H s       :     0.808482  s :     0.808482
      pz      :     0.014694  p :     0.041508
      px      :     0.014269
      py      :     0.012544
      dz2     :     0.000988  d :     0.003031
      dxz     :     0.000712
      dyz     :     0.000582
      dx2y2   :     0.000494
      dxy     :     0.000256
      f0      :     0.000029  f :     0.000121
      f+1     :     0.000016
      f-1     :     0.000022
      f+2     :     0.000027
      f-2     :     0.000017
      f+3     :     0.000004
      f-3     :     0.000006
  5 H s       :     0.985659  s :     0.985659
      pz      :     0.007439  p :     0.016811
      px      :     0.000847
      py      :     0.008525
      dz2     :     0.000200  d :     0.000642
      dxz     :     0.000042
      dyz     :     0.000166
      dx2y2   :     0.000176
      dxy     :     0.000059
      f0      :     0.000007  f :     0.000055
      f+1     :     0.000000
      f-1     :     0.000034
      f+2     :     0.000010
      f-2     :     0.000001
      f+3     :     0.000001
      f-3     :     0.000002
  6 H s       :     0.985659  s :     0.985659
      pz      :     0.007439  p :     0.016811
      px      :     0.000847
      py      :     0.008525
      dz2     :     0.000200  d :     0.000642
      dxz     :     0.000042
      dyz     :     0.000166
      dx2y2   :     0.000176
      dxy     :     0.000059
      f0      :     0.000007  f :     0.000055
      f+1     :     0.000000
      f-1     :     0.000034
      f+2     :     0.000010
      f-2     :     0.000001
      f+3     :     0.000001
      f-3     :     0.000002


                     *******************************
                     * LOEWDIN POPULATION ANALYSIS *
                     *******************************

----------------------
LOEWDIN ATOMIC CHARGES
----------------------
   0 C :    0.373914
   1 B :   -0.070206
   2 H :   -0.040925
   3 H :   -0.069844
   4 H :   -0.069844
   5 H :   -0.061547
   6 H :   -0.061547

-------------------------------
LOEWDIN REDUCED ORBITAL CHARGES
-------------------------------
  0 C s       :     2.561584  s :     2.561584
      pz      :     0.896002  p :     2.752521
      px      :     0.864843
      py      :     0.991676
      dz2     :     0.048742  d :     0.266159
      dxz     :     0.031434
      dyz     :     0.111477
      dx2y2   :     0.068380
      dxy     :     0.006125
      f0      :     0.005407  f :     0.043938
      f+1     :     0.007510
      f-1     :     0.008221
      f+2     :     0.007871
      f-2     :     0.006306
      f+3     :     0.001581
      f-3     :     0.007042
      g0      :     0.000079  g :     0.001885
      g+1     :     0.000021
      g-1     :     0.000430
      g+2     :     0.000141
      g-2     :     0.000329
      g+3     :     0.000064
      g-3     :     0.000311
      g+4     :     0.000242
      g-4     :     0.000270
  1 B s       :     2.624476  s :     2.624476
      pz      :     0.915842  p :     1.903659
      px      :     0.133674
      py      :     0.854143
      dz2     :     0.061276  d :     0.419654
      dxz     :     0.000940
      dyz     :     0.207409
      dx2y2   :     0.064447
      dxy     :     0.085582
      f0      :     0.018451  f :     0.107975
      f+1     :     0.003958
      f-1     :     0.017092
      f+2     :     0.024723
      f-2     :     0.000411
      f+3     :     0.031859
      f-3     :     0.011480
      g0      :     0.000321  g :     0.014442
      g+1     :     0.000009
      g-1     :     0.003237
      g+2     :     0.001677
      g-2     :     0.000479
      g+3     :     0.000081
      g-3     :     0.002883
      g+4     :     0.001726
      g-4     :     0.004029
  2 H s       :     0.730642  s :     0.730642
      pz      :     0.061374  p :     0.227270
      px      :     0.084982
      py      :     0.080913
      dz2     :     0.004648  d :     0.073529
      dxz     :     0.025804
      dyz     :     0.000620
      dx2y2   :     0.016087
      dxy     :     0.026369
      f0      :     0.001175  f :     0.009484
      f+1     :     0.000958
      f-1     :     0.000320
      f+2     :     0.001871
      f-2     :     0.000200
      f+3     :     0.002590
      f-3     :     0.002371
  3 H s       :     0.769126  s :     0.769126
      pz      :     0.079017  p :     0.219696
      px      :     0.063979
      py      :     0.076700
      dz2     :     0.022070  d :     0.071228
      dxz     :     0.015433
      dyz     :     0.016770
      dx2y2   :     0.011298
      dxy     :     0.005657
      f0      :     0.002599  f :     0.009794
      f+1     :     0.001492
      f-1     :     0.001585
      f+2     :     0.002046
      f-2     :     0.001387
      f+3     :     0.000357
      f-3     :     0.000328
  4 H s       :     0.769126  s :     0.769126
      pz      :     0.079017  p :     0.219696
      px      :     0.063979
      py      :     0.076700
      dz2     :     0.022070  d :     0.071228
      dxz     :     0.015433
      dyz     :     0.016770
      dx2y2   :     0.011298
      dxy     :     0.005657
      f0      :     0.002599  f :     0.009794
      f+1     :     0.001492
      f-1     :     0.001585
      f+2     :     0.002046
      f-2     :     0.001387
      f+3     :     0.000357
      f-3     :     0.000328
  5 H s       :     0.922815  s :     0.922815
      pz      :     0.058414  p :     0.108372
      px      :     0.004276
      py      :     0.045683
      dz2     :     0.012203  d :     0.027234
      dxz     :     0.000641
      dyz     :     0.010305
      dx2y2   :     0.003416
      dxy     :     0.000670
      f0      :     0.001066  f :     0.003126
      f+1     :     0.000028
      f-1     :     0.001254
      f+2     :     0.000608
      f-2     :     0.000063
      f+3     :     0.000018
      f-3     :     0.000090
  6 H s       :     0.922815  s :     0.922815
      pz      :     0.058414  p :     0.108372
      px      :     0.004276
      py      :     0.045683
      dz2     :     0.012203  d :     0.027234
      dxz     :     0.000641
      dyz     :     0.010305
      dx2y2   :     0.003416
      dxy     :     0.000670
      f0      :     0.001066  f :     0.003126
      f+1     :     0.000028
      f-1     :     0.001254
      f+2     :     0.000608
      f-2     :     0.000063
      f+3     :     0.000018
      f-3     :     0.000090


                      *****************************
                      * MAYER POPULATION ANALYSIS *
                      *****************************

  NA   - Mulliken gross atomic population
  ZA   - Total nuclear charge
  QA   - Mulliken gross atomic charge
  VA   - Mayer's total valence
  BVA  - Mayer's bonded valence
  FA   - Mayer's free valence

  ATOM       NA         ZA         QA         VA         BVA        FA
  0 C      6.4772     6.0000    -0.4772     3.8917     3.8917     0.0000
  1 B      4.9563     5.0000     0.0437     3.1608     3.1608     0.0000
  2 H      0.8538     1.0000     0.1462     1.0092     1.0092     0.0000
  3 H      0.8531     1.0000     0.1469     1.0014     1.0014     0.0000
  4 H      0.8531     1.0000     0.1469     1.0014     1.0014     0.0000
  5 H      1.0032     1.0000    -0.0032     0.9876     0.9876     0.0000
  6 H      1.0032     1.0000    -0.0032     0.9876     0.9876     0.0000

  Mayer bond orders larger than 0.100000
B(  0-C ,  1-B ) :   1.0806 B(  0-C ,  2-H ) :   0.9044 B(  0-C ,  3-H ) :   0.9544 
B(  0-C ,  4-H ) :   0.9544 B(  1-B ,  5-H ) :   0.9835 B(  1-B ,  6-H ) :   0.9835 


-------
TIMINGS
-------

Total SCF time: 0 days 0 hours 0 min 22 sec 

Total time                  ....      22.412 sec
Sum of individual times     ....      22.135 sec  ( 98.8%)

Fock matrix formation       ....      20.527 sec  ( 91.6%)
  XC integration            ....       0.608 sec  (  3.0% of F)
    Basis function eval.    ....       0.109 sec  ( 17.9% of XC)
    Density eval.           ....       0.132 sec  ( 21.8% of XC)
    XC-Functional eval.     ....       0.015 sec  (  2.5% of XC)
    XC-Potential eval.      ....       0.217 sec  ( 35.7% of XC)
Diagonalization             ....       0.128 sec  (  0.6%)
Density matrix formation    ....       0.029 sec  (  0.1%)
Population analysis         ....       0.020 sec  (  0.1%)
Initial guess               ....       0.125 sec  (  0.6%)
Orbital Transformation      ....       0.000 sec  (  0.0%)
Orbital Orthonormalization  ....       0.000 sec  (  0.0%)
DIIS solution               ....       0.062 sec  (  0.3%)
SOSCF solution              ....       0.083 sec  (  0.4%)
Grid generation             ....       1.162 sec  (  5.2%)

-------------------------   --------------------
FINAL SINGLE POINT ENERGY       -65.259876759499
-------------------------   --------------------


                            ***************************************
                            *     ORCA property calculations      *
                            ***************************************

                                    ---------------------
                                    Active property flags
                                    ---------------------
   (+) Dipole Moment


------------------------------------------------------------------------------
                       ORCA ELECTRIC PROPERTIES CALCULATION
------------------------------------------------------------------------------

Dipole Moment Calculation                       ... on
Quadrupole Moment Calculation                   ... off
Polarizability Calculation                      ... off
GBWName                                         ... CH3BH2_cc-pcvqz_.gbw
Electron density file                           ... CH3BH2_cc-pcvqz_.scfp
The origin for moment calculation is the CENTER OF MASS  = (-0.016481,  0.064710 -0.000000)

-------------
DIPOLE MOMENT
-------------
                                X             Y             Z
Electronic contribution:     -0.19735       0.73266      -0.00000
Nuclear contribution   :      0.24617      -1.03742       0.00000
                        -----------------------------------------
Total Dipole Moment    :      0.04882      -0.30476       0.00000
                        -----------------------------------------
Magnitude (a.u.)       :      0.30864
Magnitude (Debye)      :      0.78450



--------------------
Rotational spectrum 
--------------------
 
Rotational constants in cm-1:     3.228710     0.723532     0.660823 
Rotational constants in MHz : 96794.286037 21690.947830 19810.964189 

 Dipole components along the rotational axes: 
x,y,z [a.u.] :    -0.304697    -0.000000    -0.049175 
x,y,z [Debye]:    -0.774479    -0.000001    -0.124994 

 

Timings for individual modules:

Sum of individual times         ...       23.227 sec (=   0.387 min)
GTO integral calculation        ...        0.574 sec (=   0.010 min)   2.5 %
SCF iterations                  ...       22.653 sec (=   0.378 min)  97.5 %
                             ****ORCA TERMINATED NORMALLY****
TOTAL RUN TIME: 0 days 0 hours 0 minutes 23 seconds 527 msec
