
                                 *****************
                                 * O   R   C   A *
                                 *****************

           --- An Ab Initio, DFT and Semiempirical electronic structure package ---

                  #######################################################
                  #                        -***-                        #
                  #          Department of theory and spectroscopy      #
                  #               Directorship: Frank Neese             #
                  #        Max Planck Institute fuer Kohlenforschung    #
                  #                Kaiser Wilhelm Platz 1               #
                  #                 D-45470 Muelheim/Ruhr               #
                  #                      Germany                        #
                  #                                                     #
                  #                  All rights reserved                #
                  #                        -***-                        #
                  #######################################################


                         Program Version 4.2.1 -  RELEASE  -


 With contributions from (in alphabetic order):
   Daniel Aravena         : Magnetic Suceptibility
   Michael Atanasov       : Ab Initio Ligand Field Theory (pilot matlab implementation)
   Alexander A. Auer      : GIAO ZORA, VPT2
   Ute Becker             : Parallelization
   Giovanni Bistoni       : ED, misc. LED, open-shell LED, HFLD
   Martin Brehm           : Molecular dynamics
   Dmytro Bykov           : SCF Hessian
   Vijay G. Chilkuri      : MRCI spin determinant printing, contributions to CSF-ICE
   Dipayan Datta          : RHF DLPNO-CCSD density
   Achintya Kumar Dutta   : EOM-CC, STEOM-CC
   Dmitry Ganyushin       : Spin-Orbit,Spin-Spin,Magnetic field MRCI
   Miquel Garcia          : C-PCM Hessian, Gaussian charge scheme
   Yang Guo               : DLPNO-NEVPT2, CIM, IAO-localization
   Andreas Hansen         : Spin unrestricted coupled pair/coupled cluster methods
   Benjamin Helmich-Paris : CASSCF linear response (MC-RPA)
   Lee Huntington         : MR-EOM, pCC
   Robert Izsak           : Overlap fitted RIJCOSX, COSX-SCS-MP3, EOM
   Christian Kollmar      : KDIIS, OOCD, Brueckner-CCSD(T), CCSD density
   Simone Kossmann        : Meta GGA functionals, TD-DFT gradient, OOMP2, MP2 Hessian
   Martin Krupicka        : AUTO-CI
   Lucas Lang             : DCDCAS
   Dagmar Lenk            : GEPOL surface, SMD
   Dimitrios Liakos       : Extrapolation schemes; Compound Job, initial MDCI parallelization
   Dimitrios Manganas     : Further ROCIS development; embedding schemes
   Dimitrios Pantazis     : SARC Basis sets
   Taras Petrenko         : DFT Hessian,TD-DFT gradient, ASA, ECA, R-Raman, ABS, FL, XAS/XES, NRVS
   Peter Pinski           : DLPNO-MP2, DLPNO-MP2 Gradient
   Christoph Reimann      : Effective Core Potentials
   Marius Retegan         : Local ZFS, SOC
   Christoph Riplinger    : Optimizer, TS searches, QM/MM, DLPNO-CCSD(T), (RO)-DLPNO pert. Triples
   Tobias Risthaus        : Range-separated hybrids, TD-DFT gradient, RPA, STAB
   Michael Roemelt        : Original ROCIS implementation
   Masaaki Saitow         : Open-shell DLPNO-CCSD energy and density
   Barbara Sandhoefer     : DKH picture change effects
   Avijit Sen             : IP-ROCIS
   Kantharuban Sivalingam : CASSCF convergence, NEVPT2, FIC-MRCI
   Bernardo de Souza      : ESD, SOC TD-DFT
   Georgi Stoychev        : AutoAux, RI-MP2 NMR
   Willem Van den Heuvel  : Paramagnetic NMR
   Boris Wezisla          : Elementary symmetry handling
   Frank Wennmohs         : Technical directorship


 We gratefully acknowledge several colleagues who have allowed us to
 interface, adapt or use parts of their codes:
   Stefan Grimme, W. Hujo, H. Kruse,             : VdW corrections, initial TS optimization,
                  C. Bannwarth                     DFT functionals, gCP, sTDA/sTD-DF
   Ed Valeev, F. Pavosevic, A. Kumar             : LibInt (2-el integral package), F12 methods
   Garnet Chan, S. Sharma, J. Yang, R. Olivares  : DMRG
   Ulf Ekstrom                                   : XCFun DFT Library
   Mihaly Kallay                                 : mrcc  (arbitrary order and MRCC methods)
   Andreas Klamt, Michael Diedenhofen            : otool_cosmo (COSMO solvation model)
   Jiri Pittner, Ondrej Demel                    : Mk-CCSD
   Frank Weinhold                                : gennbo (NPA and NBO analysis)
   Christopher J. Cramer and Donald G. Truhlar   : smd solvation model
   Lars Goerigk                                  : TD-DFT with DH, B97 family of functionals
   V. Asgeirsson, H. Jonsson                     : NEB implementation
   FAccTs GmbH                                   : IRC, NEB, NEB-TS, Multilevel, MM, QM/MM, CI optimization
   S Lehtola, MJT Oliveira, MAL Marques          : LibXC Library


 Your calculation uses the libint2 library for the computation of 2-el integrals
 For citations please refer to: http://libint.valeyev.net

 Your ORCA version has been built with support for libXC version: 4.2.3
 For citations please refer to: https://tddft.org/programs/libxc/

 This ORCA versions uses:
   CBLAS   interface :  Fast vector & matrix operations
   LAPACKE interface :  Fast linear algebra routines
   SCALAPACK package :  Parallel linear algebra routines


----- Orbital basis set information -----
Your calculation utilizes the basis: ZORA-def2-SVP 
   Exponents from def2-SVP [F. Weigend and R. Ahlrichs, Phys. Chem. Chem. Phys. 7, 3297 (2005)],
   recontracted for ZORA by D. A. Pantazis.

================================================================================
                                        WARNINGS
                       Please study these warnings very carefully!
================================================================================


INFO   : the flag for use of LIBINT has been found!

================================================================================
                                       INPUT FILE
================================================================================
NAME = CH3BH2_zora-def2-svp_.inp
|  1> ! LDA zora-def2-svp nori grid5 finalgrid6 verytightscf
|  2> %Pal NProcs 18 End
|  3> 
|  4> *xyz 0 1
|  5> C -0.0190572749 -0.6845195756 -0.0000000839
|  6> B -0.0207972952 0.8729523951 -0.0000000656
|  7> H 1.0512614815 -0.9395660726 0.0000010826
|  8> H -0.4362896177 -1.1431007759 0.8927422542
|  9> H -0.4362878975 -1.1431009662 -0.8927431359
| 10> H 0.0151838060 1.4835176231 -1.0228906497
| 11> H 0.0151867978 1.4835173722 1.0228905983
| 12> **                         ****END OF INPUT****
================================================================================

                       ****************************
                       * Single Point Calculation *
                       ****************************

---------------------------------
CARTESIAN COORDINATES (ANGSTROEM)
---------------------------------
  C     -0.019057   -0.684520   -0.000000
  B     -0.020797    0.872952   -0.000000
  H      1.051261   -0.939566    0.000001
  H     -0.436290   -1.143101    0.892742
  H     -0.436288   -1.143101   -0.892743
  H      0.015184    1.483518   -1.022891
  H      0.015187    1.483517    1.022891

----------------------------
CARTESIAN COORDINATES (A.U.)
----------------------------
  NO LB      ZA    FRAG     MASS         X           Y           Z
   0 C     6.0000    0    12.011   -0.036013   -1.293555   -0.000000
   1 B     5.0000    0    10.810   -0.039301    1.649641   -0.000000
   2 H     1.0000    0     1.008    1.986596   -1.775523    0.000002
   3 H     1.0000    0     1.008   -0.824468   -2.160147    1.687038
   4 H     1.0000    0     1.008   -0.824465   -2.160148   -1.687040
   5 H     1.0000    0     1.008    0.028693    2.803442   -1.932983
   6 H     1.0000    0     1.008    0.028699    2.803442    1.932983

--------------------------------
INTERNAL COORDINATES (ANGSTROEM)
--------------------------------
 C      0   0   0     0.000000000000     0.00000000     0.00000000
 B      1   0   0     1.557472942682     0.00000000     0.00000000
 H      1   2   0     1.100286760774   103.46708113     0.00000000
 H      1   2   3     1.086907736371   114.92834598   115.07642486
 H      1   2   3     1.086907742697   114.92835822   244.92355778
 H      2   1   3     1.191801025476   120.81519254    87.94730336
 H      2   1   3     1.191801055757   120.81517879   272.05298910

---------------------------
INTERNAL COORDINATES (A.U.)
---------------------------
 C      0   0   0     0.000000000000     0.00000000     0.00000000
 B      1   0   0     2.943197322662     0.00000000     0.00000000
 H      1   2   0     2.079240646643   103.46708113     0.00000000
 H      1   2   3     2.053957954582   114.92834598   115.07642486
 H      1   2   3     2.053957966535   114.92835822   244.92355778
 H      2   1   3     2.252177544277   120.81519254    87.94730336
 H      2   1   3     2.252177601499   120.81517879   272.05298910

---------------------
BASIS SET INFORMATION
---------------------
There are 3 groups of distinct atoms

 Group   1 Type C   : 7s4p1d contracted to 3s2p1d pattern {511/31/1}
 Group   2 Type B   : 7s4p1d contracted to 3s2p1d pattern {511/31/1}
 Group   3 Type H   : 4s1p contracted to 2s1p pattern {31/1}

Atom   0C    basis set group =>   1
Atom   1B    basis set group =>   2
Atom   2H    basis set group =>   3
Atom   3H    basis set group =>   3
Atom   4H    basis set group =>   3
Atom   5H    basis set group =>   3
Atom   6H    basis set group =>   3

Checking for AutoStart:
The File: CH3BH2_zora-def2-svp_.gbw exists
Trying to determine its content:
     ... Fine, the file contains calculation information
     ... Fine, the calculation information was read
     ... Fine, the file contains a basis set
     ... Fine, the basis set was read
     ... Fine, the file contains a geometry
     ... Fine, the geometry was read
     ... The file does not contain orbitals - skipping AutoStart


           ************************************************************
           *        Program running with 18 parallel MPI-processes    *
           *              working on a common directory               *
           ************************************************************
------------------------------------------------------------------------------
                           ORCA GTO INTEGRAL CALCULATION
------------------------------------------------------------------------------

                         BASIS SET STATISTICS AND STARTUP INFO

 # of primitive gaussian shells          ...   49
 # of primitive gaussian functions       ...   83
 # of contracted shells                  ...   27
 # of contracted basis functions         ...   53
 Highest angular momentum                ...    2
 Maximum contraction depth               ...    5
 Integral package used                   ... LIBINT
 Integral threshhold            Thresh   ...  1.000e-12
 Primitive cut-off              TCut     ...  1.000e-14


------------------------------ INTEGRAL EVALUATION ----------------------------


 * One electron integrals 
 Pre-screening matrix                    ... done
 Shell pair data                         ... done (   0.000 sec)



           ************************************************************
           *        Program running with 18 parallel MPI-processes    *
           *              working on a common directory               *
           ************************************************************
-------------------------------------------------------------------------------
                                 ORCA SCF
-------------------------------------------------------------------------------

------------
SCF SETTINGS
------------
Hamiltonian:
 Density Functional     Method          .... DFT(GTOs)
 Exchange Functional    Exchange        .... Slater
   X-Alpha parameter    XAlpha          ....  0.666667
 Correlation Functional Correlation     .... VWN-5
 Gradients option       PostSCFGGA      .... off
   Density functional embedding theory  .... OFF


General Settings:
 Integral files         IntName         .... CH3BH2_zora-def2-svp_
 Hartree-Fock type      HFTyp           .... RHF
 Total Charge           Charge          ....    0
 Multiplicity           Mult            ....    1
 Number of Electrons    NEL             ....   16
 Basis Dimension        Dim             ....   53
 Nuclear Repulsion      ENuc            ....     31.8792731152 Eh

Convergence Acceleration:
 DIIS                   CNVDIIS         .... on
   Start iteration      DIISMaxIt       ....    12
   Startup error        DIISStart       ....  0.200000
   # of expansion vecs  DIISMaxEq       ....     5
   Bias factor          DIISBfac        ....   1.050
   Max. coefficient     DIISMaxC        ....  10.000
 Newton-Raphson         CNVNR           .... off
 SOSCF                  CNVSOSCF        .... on
   Start iteration      SOSCFMaxIt      ....   150
   Startup grad/error   SOSCFStart      ....  0.003300
 Level Shifting         CNVShift        .... on
   Level shift para.    LevelShift      ....    0.2500
   Turn off err/grad.   ShiftErr        ....    0.0010
 Zerner damping         CNVZerner       .... off
 Static damping         CNVDamp         .... on
   Fraction old density DampFac         ....    0.7000
   Max. Damping (<1)    DampMax         ....    0.9800
   Min. Damping (>=0)   DampMin         ....    0.0000
   Turn off err/grad.   DampErr         ....    0.1000
 Fernandez-Rico         CNVRico         .... off

SCF Procedure:
 Maximum # iterations   MaxIter         ....   125
 SCF integral mode      SCFMode         .... Direct
   Integral package                     .... LIBINT
 Reset frequency        DirectResetFreq ....    20
 Integral Threshold     Thresh          ....  1.000e-12 Eh
 Primitive CutOff       TCut            ....  1.000e-14 Eh

Convergence Tolerance:
 Convergence Check Mode ConvCheckMode   .... Total+1el-Energy
 Convergence forced     ConvForced      .... 0
 Energy Change          TolE            ....  1.000e-09 Eh
 1-El. energy change                    ....  1.000e-06 Eh
 Orbital Gradient       TolG            ....  2.000e-06
 Orbital Rotation angle TolX            ....  2.000e-06
 DIIS Error             TolErr          ....  1.000e-08


Diagonalization of the overlap matrix:
Smallest eigenvalue                        ... 1.052e-02
Time for diagonalization                   ...    0.002 sec
Threshold for overlap eigenvalues          ... 1.000e-08
Number of eigenvalues below threshold      ... 0
Time for construction of square roots      ...    0.001 sec
Total time needed                          ...    0.003 sec

-------------------
DFT GRID GENERATION
-------------------

General Integration Accuracy     IntAcc      ...  5.010
Radial Grid Type                 RadialGrid  ... Gauss-Chebyshev
Angular Grid (max. acc.)         AngularGrid ... Lebedev-434
Angular grid pruning method      GridPruning ... 3 (G Style)
Weight generation scheme         WeightScheme... Becke
Basis function cutoff            BFCut       ...    1.0000e-12
Integration weight cutoff        WCut        ...    1.0000e-14
Grids for H and He will be reduced by one unit

# of grid points (after initial pruning)     ...  54748 (   0.0 sec)
# of grid points (after weights+screening)   ...  52459 (   0.0 sec)
nearest neighbour list constructed           ...    0.0 sec
Grid point re-assignment to atoms done       ...    0.0 sec
Grid point division into batches done        ...    0.3 sec
Reduced shell lists constructed in    0.3 sec

Total number of grid points                  ...    52459
Total number of batches                      ...      824
Average number of points per batch           ...       63
Average number of grid points per atom       ...     7494
Average number of shells per batch           ...    26.32 (97.48%)
Average number of basis functions per batch  ...    51.77 (97.67%)
Average number of large shells per batch     ...    25.57 (97.17%)
Average number of large basis fcns per batch ...    50.21 (97.00%)
Maximum spatial batch extension              ...   1.71,  1.47,  1.59 au
Average spatial batch extension              ...   0.05,  0.05,  0.05 au

Time for grid setup =    0.357 sec

------------------------------
INITIAL GUESS: MODEL POTENTIAL
------------------------------
Loading Hartree-Fock densities                     ... done
Calculating cut-offs                               ... done
Setting up the integral package                    ... done
Initializing the effective Hamiltonian             ... done
Starting the Coulomb interaction                   ... done (   0.0 sec)
Reading the grid                                   ... done
Mapping shells                                     ... done
Starting the XC term evaluation                    ... done (   0.0 sec)
  promolecular density results
     # of electrons  =     15.997558789
     EX              =     -9.293749516
     EC              =     -0.931505532
     EX+EC           =    -10.225255048
Transforming the Hamiltonian                       ... done (   0.0 sec)
Diagonalizing the Hamiltonian                      ... done (   0.0 sec)
Back transforming the eigenvectors                 ... done (   0.0 sec)
Now organizing SCF variables                       ... done
                      ------------------
                      INITIAL GUESS DONE (   0.4 sec)
                      ------------------
--------------
SCF ITERATIONS
--------------
ITER       Energy         Delta-E        Max-DP      RMS-DP      [F,P]     Damp
               ***  Starting incremental Fock matrix formation  ***
  0    -65.0837718104   0.000000000000 0.09401869  0.00433803  0.2167271 0.7000
  1    -65.1315071718  -0.047735361440 0.05321492  0.00312288  0.1013453 0.7000
                               ***Turning on DIIS***
  2    -65.1487360916  -0.017228919723 0.07149889  0.00493689  0.0272994 0.0000
  3    -65.1720909320  -0.023354840456 0.03893053  0.00214773  0.0634478 0.0000
  4    -65.1806415342  -0.008550602159 0.01390890  0.00077051  0.0116549 0.0000
  5    -65.1811583811  -0.000516846938 0.00254828  0.00022722  0.0034316 0.0000
                      *** Initiating the SOSCF procedure ***
                           *** Shutting down DIIS ***
                      *** Re-Reading the Fockian *** 
                      *** Removing any level shift *** 
ITER      Energy       Delta-E        Grad      Rot      Max-DP    RMS-DP
  6    -65.18119357  -0.0000351844  0.000284  0.000284  0.001287  0.000111
               *** Restarting incremental Fock matrix formation ***
  7    -65.18119566  -0.0000020992  0.000091  0.000192  0.000360  0.000021
  8    -65.18119558   0.0000000798  0.000125  0.000110  0.000203  0.000012
  9    -65.18119576  -0.0000001775  0.000013  0.000033  0.000061  0.000003
 10    -65.18119576   0.0000000010  0.000018  0.000019  0.000037  0.000001
                  ***Gradient check signals convergence***
              ***Rediagonalizing the Fockian in SOSCF/NRSCF***

               *****************************************************
               *                     SUCCESS                       *
               *           SCF CONVERGED AFTER  11 CYCLES          *
               *****************************************************

Setting up the final grid:

General Integration Accuracy     IntAcc      ...  5.340
Radial Grid Type                 RadialGrid  ... Gauss-Chebyshev
Angular Grid (max. acc.)         AngularGrid ... Lebedev-590
Angular grid pruning method      GridPruning ... 3 (G Style)
Weight generation scheme         WeightScheme... Becke
Basis function cutoff            BFCut       ...    1.0000e-12
Integration weight cutoff        WCut        ...    1.0000e-14
Grids for H and He will be reduced by one unit

# of grid points (after initial pruning)     ...  87998 (   0.0 sec)
# of grid points (after weights+screening)   ...  84126 (   0.0 sec)
nearest neighbour list constructed           ...    0.0 sec
Grid point re-assignment to atoms done       ...    0.0 sec
Grid point division into batches done        ...    0.7 sec
Reduced shell lists constructed in    0.7 sec

Total number of grid points                  ...    84126
Total number of batches                      ...     1318
Average number of points per batch           ...       63
Average number of grid points per atom       ...    12018
Average number of shells per batch           ...    26.51 (98.17%)
Average number of basis functions per batch  ...    52.16 (98.42%)
Average number of large shells per batch     ...    25.53 (96.33%)
Average number of large basis fcns per batch ...    50.07 (95.99%)
Maximum spatial batch extension              ...   2.00,  1.26,  1.54 au
Average spatial batch extension              ...   0.04,  0.04,  0.04 au

Final grid set up in    0.8 sec
Final integration                            ... done (   0.0 sec)
Change in XC energy                          ...     0.000001165
Integrated number of electrons               ...    16.000000041
Previous integrated no of electrons          ...    16.000001779

----------------
TOTAL SCF ENERGY
----------------

Total Energy       :          -65.18119460 Eh           -1773.67048 eV

Components:
Nuclear Repulsion  :           31.87927312 Eh             867.47912 eV
Electronic Energy  :          -97.06046771 Eh           -2641.14960 eV
One Electron Energy:         -149.79156371 Eh           -4076.03567 eV
Two Electron Energy:           52.73109600 Eh            1434.88607 eV

Virial components:
Potential Energy   :         -130.63893710 Eh           -3554.86620 eV
Kinetic Energy     :           65.45774250 Eh            1781.19573 eV
Virial Ratio       :            1.99577517


DFT components:
N(Alpha)           :        8.000000020749 electrons
N(Beta)            :        8.000000020749 electrons
N(Total)           :       16.000000041498 electrons
E(X)               :       -9.636247604404 Eh       
E(C)               :       -0.955608867726 Eh       
E(XC)              :      -10.591856472130 Eh       
DFET-embed. en.    :        0.000000000000 Eh       

---------------
SCF CONVERGENCE
---------------

  Last Energy change         ...   -2.4998e-09  Tolerance :   1.0000e-09
  Last MAX-Density change    ...    1.4393e-06  Tolerance :   1.0000e-08
  Last RMS-Density change    ...    8.1834e-08  Tolerance :   1.0000e-09
  Last Orbital Gradient      ...    4.0985e-07  Tolerance :   2.0000e-06
  Last Orbital Rotation      ...    5.7566e-07  Tolerance :   2.0000e-06

             **** THE GBW FILE WAS UPDATED (CH3BH2_zora-def2-svp_.gbw) ****
             **** DENSITY FILE WAS UPDATED (CH3BH2_zora-def2-svp_.scfp) ****
             **** ENERGY FILE WAS UPDATED (CH3BH2_zora-def2-svp_.en.tmp) ****
             **** THE GBW FILE WAS UPDATED (CH3BH2_zora-def2-svp_.gbw) ****
             **** DENSITY FILE WAS UPDATED (CH3BH2_zora-def2-svp_.scfp) ****
----------------
ORBITAL ENERGIES
----------------

  NO   OCC          E(Eh)            E(eV) 
   0   2.0000      -9.753112      -265.3957 
   1   2.0000      -6.418593      -174.6588 
   2   2.0000      -0.627818       -17.0838 
   3   2.0000      -0.425415       -11.5761 
   4   2.0000      -0.374017       -10.1775 
   5   2.0000      -0.364190        -9.9101 
   6   2.0000      -0.295465        -8.0400 
   7   2.0000      -0.276922        -7.5354 
   8   0.0000      -0.090965        -2.4753 
   9   0.0000       0.047804         1.3008 
  10   0.0000       0.092903         2.5280 
  11   0.0000       0.097824         2.6619 
  12   0.0000       0.144418         3.9298 
  13   0.0000       0.169863         4.6222 
  14   0.0000       0.170335         4.6351 
  15   0.0000       0.201034         5.4704 
  16   0.0000       0.254578         6.9274 
  17   0.0000       0.304554         8.2873 
  18   0.0000       0.316725         8.6185 
  19   0.0000       0.457985        12.4624 
  20   0.0000       0.570116        15.5137 
  21   0.0000       0.586509        15.9597 
  22   0.0000       0.614917        16.7327 
  23   0.0000       0.618845        16.8396 
  24   0.0000       0.630208        17.1488 
  25   0.0000       0.679954        18.5025 
  26   0.0000       0.681246        18.5376 
  27   0.0000       0.840803        22.8794 
  28   0.0000       0.890342        24.2274 
  29   0.0000       0.903882        24.5959 
  30   0.0000       1.145196        31.1624 
  31   0.0000       1.261878        34.3374 
  32   0.0000       1.297814        35.3153 
  33   0.0000       1.333974        36.2993 
  34   0.0000       1.380032        37.5526 
  35   0.0000       1.470561        40.0160 
  36   0.0000       1.649992        44.8986 
  37   0.0000       1.659633        45.1609 
  38   0.0000       1.730109        47.0787 
  39   0.0000       1.746941        47.5367 
  40   0.0000       1.809232        49.2317 
  41   0.0000       1.818548        49.4852 
  42   0.0000       1.930158        52.5223 
  43   0.0000       2.047199        55.7071 
  44   0.0000       2.064079        56.1664 
  45   0.0000       2.284686        62.1695 
  46   0.0000       2.371238        64.5247 
  47   0.0000       2.371791        64.5397 
  48   0.0000       2.506653        68.2095 
  49   0.0000       2.624811        71.4247 
  50   0.0000       2.656453        72.2858 
  51   0.0000       2.883550        78.4654 
  52   0.0000       2.930130        79.7329 

                    ********************************
                    * MULLIKEN POPULATION ANALYSIS *
                    ********************************

-----------------------
MULLIKEN ATOMIC CHARGES
-----------------------
   0 C :   -0.383946
   1 B :   -0.047163
   2 H :    0.140390
   3 H :    0.130492
   4 H :    0.130492
   5 H :    0.014867
   6 H :    0.014867
Sum of atomic charges:    0.0000000

--------------------------------
MULLIKEN REDUCED ORBITAL CHARGES
--------------------------------
  0 C s       :     3.139338  s :     3.139338
      pz      :     1.074823  p :     3.222819
      px      :     1.054653
      py      :     1.093344
      dz2     :     0.004992  d :     0.021788
      dxz     :     0.003125
      dyz     :     0.007780
      dx2y2   :     0.004930
      dxy     :     0.000961
  1 B s       :     3.052259  s :     3.052259
      pz      :     0.976929  p :     1.952467
      px      :     0.104647
      py      :     0.870890
      dz2     :     0.008827  d :     0.042437
      dxz     :     0.000124
      dyz     :     0.021456
      dx2y2   :     0.005228
      dxy     :     0.006802
  2 H s       :     0.837277  s :     0.837277
      pz      :     0.005486  p :     0.022333
      px      :     0.009088
      py      :     0.007759
  3 H s       :     0.849318  s :     0.849318
      pz      :     0.007798  p :     0.020189
      px      :     0.005536
      py      :     0.006856
  4 H s       :     0.849318  s :     0.849318
      pz      :     0.007798  p :     0.020189
      px      :     0.005536
      py      :     0.006856
  5 H s       :     0.976202  s :     0.976202
      pz      :     0.005677  p :     0.008931
      px      :     0.000192
      py      :     0.003061
  6 H s       :     0.976202  s :     0.976202
      pz      :     0.005677  p :     0.008931
      px      :     0.000192
      py      :     0.003061


                     *******************************
                     * LOEWDIN POPULATION ANALYSIS *
                     *******************************

----------------------
LOEWDIN ATOMIC CHARGES
----------------------
   0 C :   -0.231072
   1 B :   -0.011889
   2 H :    0.110350
   3 H :    0.074477
   4 H :    0.074477
   5 H :   -0.008171
   6 H :   -0.008171

-------------------------------
LOEWDIN REDUCED ORBITAL CHARGES
-------------------------------
  0 C s       :     2.848241  s :     2.848241
      pz      :     1.092710  p :     3.334454
      px      :     1.063631
      py      :     1.178113
      dz2     :     0.010760  d :     0.048376
      dxz     :     0.006903
      dyz     :     0.015957
      dx2y2   :     0.012959
      dxy     :     0.001797
  1 B s       :     2.823425  s :     2.823425
      pz      :     1.013034  p :     2.083123
      px      :     0.127464
      py      :     0.942624
      dz2     :     0.023202  d :     0.105342
      dxz     :     0.000205
      dyz     :     0.049852
      dx2y2   :     0.017628
      dxy     :     0.014455
  2 H s       :     0.819124  s :     0.819124
      pz      :     0.014129  p :     0.070526
      px      :     0.036523
      py      :     0.019874
  3 H s       :     0.856089  s :     0.856089
      pz      :     0.031396  p :     0.069435
      px      :     0.017416
      py      :     0.020622
  4 H s       :     0.856089  s :     0.856089
      pz      :     0.031396  p :     0.069435
      px      :     0.017416
      py      :     0.020622
  5 H s       :     0.974681  s :     0.974681
      pz      :     0.020537  p :     0.033490
      px      :     0.000542
      py      :     0.012411
  6 H s       :     0.974681  s :     0.974681
      pz      :     0.020537  p :     0.033490
      px      :     0.000542
      py      :     0.012411


                      *****************************
                      * MAYER POPULATION ANALYSIS *
                      *****************************

  NA   - Mulliken gross atomic population
  ZA   - Total nuclear charge
  QA   - Mulliken gross atomic charge
  VA   - Mayer's total valence
  BVA  - Mayer's bonded valence
  FA   - Mayer's free valence

  ATOM       NA         ZA         QA         VA         BVA        FA
  0 C      6.3839     6.0000    -0.3839     3.9409     3.9409    -0.0000
  1 B      5.0472     5.0000    -0.0472     3.1732     3.1732     0.0000
  2 H      0.8596     1.0000     0.1404     0.9693     0.9693    -0.0000
  3 H      0.8695     1.0000     0.1305     0.9632     0.9632    -0.0000
  4 H      0.8695     1.0000     0.1305     0.9632     0.9632    -0.0000
  5 H      0.9851     1.0000     0.0149     0.9709     0.9709     0.0000
  6 H      0.9851     1.0000     0.0149     0.9709     0.9709     0.0000

  Mayer bond orders larger than 0.100000
B(  0-C ,  1-B ) :   1.1352 B(  0-C ,  2-H ) :   0.9104 B(  0-C ,  3-H ) :   0.9564 
B(  0-C ,  4-H ) :   0.9564 B(  1-B ,  5-H ) :   0.9817 B(  1-B ,  6-H ) :   0.9817 


-------
TIMINGS
-------

Total SCF time: 0 days 0 hours 0 min 2 sec 

Total time                  ....       2.892 sec
Sum of individual times     ....       2.719 sec  ( 94.0%)

Fock matrix formation       ....       1.496 sec  ( 51.7%)
  XC integration            ....       0.136 sec  (  9.1% of F)
    Basis function eval.    ....       0.040 sec  ( 29.2% of XC)
    Density eval.           ....       0.012 sec  (  9.0% of XC)
    XC-Functional eval.     ....       0.014 sec  ( 10.0% of XC)
    XC-Potential eval.      ....       0.012 sec  (  8.8% of XC)
Diagonalization             ....       0.003 sec  (  0.1%)
Density matrix formation    ....       0.001 sec  (  0.0%)
Population analysis         ....       0.001 sec  (  0.0%)
Initial guess               ....       0.077 sec  (  2.7%)
Orbital Transformation      ....       0.000 sec  (  0.0%)
Orbital Orthonormalization  ....       0.000 sec  (  0.0%)
DIIS solution               ....       0.001 sec  (  0.0%)
SOSCF solution              ....       0.001 sec  (  0.0%)
Grid generation             ....       1.139 sec  ( 39.4%)

-------------------------   --------------------
FINAL SINGLE POINT ENERGY       -65.181194598406
-------------------------   --------------------


                            ***************************************
                            *     ORCA property calculations      *
                            ***************************************

                                    ---------------------
                                    Active property flags
                                    ---------------------
   (+) Dipole Moment


------------------------------------------------------------------------------
                       ORCA ELECTRIC PROPERTIES CALCULATION
------------------------------------------------------------------------------

Dipole Moment Calculation                       ... on
Quadrupole Moment Calculation                   ... off
Polarizability Calculation                      ... off
GBWName                                         ... CH3BH2_zora-def2-svp_.gbw
Electron density file                           ... CH3BH2_zora-def2-svp_.scfp
The origin for moment calculation is the CENTER OF MASS  = (-0.016481,  0.064710 -0.000000)

-------------
DIPOLE MOMENT
-------------
                                X             Y             Z
Electronic contribution:     -0.17651       0.69399      -0.00000
Nuclear contribution   :      0.24617      -1.03742       0.00000
                        -----------------------------------------
Total Dipole Moment    :      0.06966      -0.34343       0.00000
                        -----------------------------------------
Magnitude (a.u.)       :      0.35042
Magnitude (Debye)      :      0.89070



--------------------
Rotational spectrum 
--------------------
 
Rotational constants in cm-1:     3.228710     0.723532     0.660823 
Rotational constants in MHz : 96794.286037 21690.947830 19810.964189 

 Dipole components along the rotational axes: 
x,y,z [a.u.] :    -0.343344    -0.000000    -0.070070 
x,y,z [Debye]:    -0.872711    -0.000001    -0.178103 

 

Timings for individual modules:

Sum of individual times         ...        3.596 sec (=   0.060 min)
GTO integral calculation        ...        0.467 sec (=   0.008 min)  13.0 %
SCF iterations                  ...        3.130 sec (=   0.052 min)  87.0 %
                             ****ORCA TERMINATED NORMALLY****
TOTAL RUN TIME: 0 days 0 hours 0 minutes 3 seconds 918 msec
