
                                 *****************
                                 * O   R   C   A *
                                 *****************

           --- An Ab Initio, DFT and Semiempirical electronic structure package ---

                  #######################################################
                  #                        -***-                        #
                  #          Department of theory and spectroscopy      #
                  #               Directorship: Frank Neese             #
                  #        Max Planck Institute fuer Kohlenforschung    #
                  #                Kaiser Wilhelm Platz 1               #
                  #                 D-45470 Muelheim/Ruhr               #
                  #                      Germany                        #
                  #                                                     #
                  #                  All rights reserved                #
                  #                        -***-                        #
                  #######################################################


                         Program Version 4.2.1 -  RELEASE  -


 With contributions from (in alphabetic order):
   Daniel Aravena         : Magnetic Suceptibility
   Michael Atanasov       : Ab Initio Ligand Field Theory (pilot matlab implementation)
   Alexander A. Auer      : GIAO ZORA, VPT2
   Ute Becker             : Parallelization
   Giovanni Bistoni       : ED, misc. LED, open-shell LED, HFLD
   Martin Brehm           : Molecular dynamics
   Dmytro Bykov           : SCF Hessian
   Vijay G. Chilkuri      : MRCI spin determinant printing, contributions to CSF-ICE
   Dipayan Datta          : RHF DLPNO-CCSD density
   Achintya Kumar Dutta   : EOM-CC, STEOM-CC
   Dmitry Ganyushin       : Spin-Orbit,Spin-Spin,Magnetic field MRCI
   Miquel Garcia          : C-PCM Hessian, Gaussian charge scheme
   Yang Guo               : DLPNO-NEVPT2, CIM, IAO-localization
   Andreas Hansen         : Spin unrestricted coupled pair/coupled cluster methods
   Benjamin Helmich-Paris : CASSCF linear response (MC-RPA)
   Lee Huntington         : MR-EOM, pCC
   Robert Izsak           : Overlap fitted RIJCOSX, COSX-SCS-MP3, EOM
   Christian Kollmar      : KDIIS, OOCD, Brueckner-CCSD(T), CCSD density
   Simone Kossmann        : Meta GGA functionals, TD-DFT gradient, OOMP2, MP2 Hessian
   Martin Krupicka        : AUTO-CI
   Lucas Lang             : DCDCAS
   Dagmar Lenk            : GEPOL surface, SMD
   Dimitrios Liakos       : Extrapolation schemes; Compound Job, initial MDCI parallelization
   Dimitrios Manganas     : Further ROCIS development; embedding schemes
   Dimitrios Pantazis     : SARC Basis sets
   Taras Petrenko         : DFT Hessian,TD-DFT gradient, ASA, ECA, R-Raman, ABS, FL, XAS/XES, NRVS
   Peter Pinski           : DLPNO-MP2, DLPNO-MP2 Gradient
   Christoph Reimann      : Effective Core Potentials
   Marius Retegan         : Local ZFS, SOC
   Christoph Riplinger    : Optimizer, TS searches, QM/MM, DLPNO-CCSD(T), (RO)-DLPNO pert. Triples
   Tobias Risthaus        : Range-separated hybrids, TD-DFT gradient, RPA, STAB
   Michael Roemelt        : Original ROCIS implementation
   Masaaki Saitow         : Open-shell DLPNO-CCSD energy and density
   Barbara Sandhoefer     : DKH picture change effects
   Avijit Sen             : IP-ROCIS
   Kantharuban Sivalingam : CASSCF convergence, NEVPT2, FIC-MRCI
   Bernardo de Souza      : ESD, SOC TD-DFT
   Georgi Stoychev        : AutoAux, RI-MP2 NMR
   Willem Van den Heuvel  : Paramagnetic NMR
   Boris Wezisla          : Elementary symmetry handling
   Frank Wennmohs         : Technical directorship


 We gratefully acknowledge several colleagues who have allowed us to
 interface, adapt or use parts of their codes:
   Stefan Grimme, W. Hujo, H. Kruse,             : VdW corrections, initial TS optimization,
                  C. Bannwarth                     DFT functionals, gCP, sTDA/sTD-DF
   Ed Valeev, F. Pavosevic, A. Kumar             : LibInt (2-el integral package), F12 methods
   Garnet Chan, S. Sharma, J. Yang, R. Olivares  : DMRG
   Ulf Ekstrom                                   : XCFun DFT Library
   Mihaly Kallay                                 : mrcc  (arbitrary order and MRCC methods)
   Andreas Klamt, Michael Diedenhofen            : otool_cosmo (COSMO solvation model)
   Jiri Pittner, Ondrej Demel                    : Mk-CCSD
   Frank Weinhold                                : gennbo (NPA and NBO analysis)
   Christopher J. Cramer and Donald G. Truhlar   : smd solvation model
   Lars Goerigk                                  : TD-DFT with DH, B97 family of functionals
   V. Asgeirsson, H. Jonsson                     : NEB implementation
   FAccTs GmbH                                   : IRC, NEB, NEB-TS, Multilevel, MM, QM/MM, CI optimization
   S Lehtola, MJT Oliveira, MAL Marques          : LibXC Library


 Your calculation uses the libint2 library for the computation of 2-el integrals
 For citations please refer to: http://libint.valeyev.net

 Your ORCA version has been built with support for libXC version: 4.2.3
 For citations please refer to: https://tddft.org/programs/libxc/

 This ORCA versions uses:
   CBLAS   interface :  Fast vector & matrix operations
   LAPACKE interface :  Fast linear algebra routines
   SCALAPACK package :  Parallel linear algebra routines


----- Orbital basis set information -----
Your calculation utilizes the basis: def2-QZVPP
   F. Weigend and R. Ahlrichs, Phys. Chem. Chem. Phys. 7, 3297 (2005).

================================================================================
                                        WARNINGS
                       Please study these warnings very carefully!
================================================================================


INFO   : the flag for use of LIBINT has been found!

================================================================================
                                       INPUT FILE
================================================================================
NAME = CH3BH2_def2-qzvpp_.inp
|  1> ! LDA def2-qzvpp nori grid5 finalgrid6 verytightscf
|  2> %Pal NProcs 18 End
|  3> 
|  4> *xyz 0 1
|  5> C -0.0190572749 -0.6845195756 -0.0000000839
|  6> B -0.0207972952 0.8729523951 -0.0000000656
|  7> H 1.0512614815 -0.9395660726 0.0000010826
|  8> H -0.4362896177 -1.1431007759 0.8927422542
|  9> H -0.4362878975 -1.1431009662 -0.8927431359
| 10> H 0.0151838060 1.4835176231 -1.0228906497
| 11> H 0.0151867978 1.4835173722 1.0228905983
| 12> **                         ****END OF INPUT****
================================================================================

                       ****************************
                       * Single Point Calculation *
                       ****************************

---------------------------------
CARTESIAN COORDINATES (ANGSTROEM)
---------------------------------
  C     -0.019057   -0.684520   -0.000000
  B     -0.020797    0.872952   -0.000000
  H      1.051261   -0.939566    0.000001
  H     -0.436290   -1.143101    0.892742
  H     -0.436288   -1.143101   -0.892743
  H      0.015184    1.483518   -1.022891
  H      0.015187    1.483517    1.022891

----------------------------
CARTESIAN COORDINATES (A.U.)
----------------------------
  NO LB      ZA    FRAG     MASS         X           Y           Z
   0 C     6.0000    0    12.011   -0.036013   -1.293555   -0.000000
   1 B     5.0000    0    10.810   -0.039301    1.649641   -0.000000
   2 H     1.0000    0     1.008    1.986596   -1.775523    0.000002
   3 H     1.0000    0     1.008   -0.824468   -2.160147    1.687038
   4 H     1.0000    0     1.008   -0.824465   -2.160148   -1.687040
   5 H     1.0000    0     1.008    0.028693    2.803442   -1.932983
   6 H     1.0000    0     1.008    0.028699    2.803442    1.932983

--------------------------------
INTERNAL COORDINATES (ANGSTROEM)
--------------------------------
 C      0   0   0     0.000000000000     0.00000000     0.00000000
 B      1   0   0     1.557472942682     0.00000000     0.00000000
 H      1   2   0     1.100286760774   103.46708113     0.00000000
 H      1   2   3     1.086907736371   114.92834598   115.07642486
 H      1   2   3     1.086907742697   114.92835822   244.92355778
 H      2   1   3     1.191801025476   120.81519254    87.94730336
 H      2   1   3     1.191801055757   120.81517879   272.05298910

---------------------------
INTERNAL COORDINATES (A.U.)
---------------------------
 C      0   0   0     0.000000000000     0.00000000     0.00000000
 B      1   0   0     2.943197322662     0.00000000     0.00000000
 H      1   2   0     2.079240646643   103.46708113     0.00000000
 H      1   2   3     2.053957954582   114.92834598   115.07642486
 H      1   2   3     2.053957966535   114.92835822   244.92355778
 H      2   1   3     2.252177544277   120.81519254    87.94730336
 H      2   1   3     2.252177601499   120.81517879   272.05298910

---------------------
BASIS SET INFORMATION
---------------------
There are 3 groups of distinct atoms

 Group   1 Type C   : 15s8p3d2f1g contracted to 7s4p3d2f1g pattern {8211111/5111/111/11/1}
 Group   2 Type B   : 15s8p3d2f1g contracted to 7s4p3d2f1g pattern {8211111/5111/111/11/1}
 Group   3 Type H   : 7s3p2d1f contracted to 4s3p2d1f pattern {4111/111/11/1}

Atom   0C    basis set group =>   1
Atom   1B    basis set group =>   2
Atom   2H    basis set group =>   3
Atom   3H    basis set group =>   3
Atom   4H    basis set group =>   3
Atom   5H    basis set group =>   3
Atom   6H    basis set group =>   3


           ************************************************************
           *        Program running with 18 parallel MPI-processes    *
           *              working on a common directory               *
           ************************************************************
------------------------------------------------------------------------------
                           ORCA GTO INTEGRAL CALCULATION
------------------------------------------------------------------------------

                         BASIS SET STATISTICS AND STARTUP INFO

 # of primitive gaussian shells          ...  123
 # of primitive gaussian functions       ...  319
 # of contracted shells                  ...   84
 # of contracted basis functions         ...  264
 Highest angular momentum                ...    4
 Maximum contraction depth               ...    8
 Integral package used                   ... LIBINT
 Integral threshhold            Thresh   ...  1.000e-12
 Primitive cut-off              TCut     ...  1.000e-14


------------------------------ INTEGRAL EVALUATION ----------------------------


 * One electron integrals 
 Pre-screening matrix                    ... done
 Shell pair data                         ... done (   0.001 sec)



           ************************************************************
           *        Program running with 18 parallel MPI-processes    *
           *              working on a common directory               *
           ************************************************************
-------------------------------------------------------------------------------
                                 ORCA SCF
-------------------------------------------------------------------------------

------------
SCF SETTINGS
------------
Hamiltonian:
 Density Functional     Method          .... DFT(GTOs)
 Exchange Functional    Exchange        .... Slater
   X-Alpha parameter    XAlpha          ....  0.666667
 Correlation Functional Correlation     .... VWN-5
 Gradients option       PostSCFGGA      .... off
   Density functional embedding theory  .... OFF


General Settings:
 Integral files         IntName         .... CH3BH2_def2-qzvpp_
 Hartree-Fock type      HFTyp           .... RHF
 Total Charge           Charge          ....    0
 Multiplicity           Mult            ....    1
 Number of Electrons    NEL             ....   16
 Basis Dimension        Dim             ....  264
 Nuclear Repulsion      ENuc            ....     31.8792731152 Eh

Convergence Acceleration:
 DIIS                   CNVDIIS         .... on
   Start iteration      DIISMaxIt       ....    12
   Startup error        DIISStart       ....  0.200000
   # of expansion vecs  DIISMaxEq       ....     5
   Bias factor          DIISBfac        ....   1.050
   Max. coefficient     DIISMaxC        ....  10.000
 Newton-Raphson         CNVNR           .... off
 SOSCF                  CNVSOSCF        .... on
   Start iteration      SOSCFMaxIt      ....   150
   Startup grad/error   SOSCFStart      ....  0.003300
 Level Shifting         CNVShift        .... on
   Level shift para.    LevelShift      ....    0.2500
   Turn off err/grad.   ShiftErr        ....    0.0010
 Zerner damping         CNVZerner       .... off
 Static damping         CNVDamp         .... on
   Fraction old density DampFac         ....    0.7000
   Max. Damping (<1)    DampMax         ....    0.9800
   Min. Damping (>=0)   DampMin         ....    0.0000
   Turn off err/grad.   DampErr         ....    0.1000
 Fernandez-Rico         CNVRico         .... off

SCF Procedure:
 Maximum # iterations   MaxIter         ....   125
 SCF integral mode      SCFMode         .... Direct
   Integral package                     .... LIBINT
 Reset frequency        DirectResetFreq ....    20
 Integral Threshold     Thresh          ....  1.000e-12 Eh
 Primitive CutOff       TCut            ....  1.000e-14 Eh

Convergence Tolerance:
 Convergence Check Mode ConvCheckMode   .... Total+1el-Energy
 Convergence forced     ConvForced      .... 0
 Energy Change          TolE            ....  1.000e-09 Eh
 1-El. energy change                    ....  1.000e-06 Eh
 Orbital Gradient       TolG            ....  2.000e-06
 Orbital Rotation angle TolX            ....  2.000e-06
 DIIS Error             TolErr          ....  1.000e-08


Diagonalization of the overlap matrix:
Smallest eigenvalue                        ... 9.737e-05
Time for diagonalization                   ...    0.012 sec
Threshold for overlap eigenvalues          ... 1.000e-08
Number of eigenvalues below threshold      ... 0
Time for construction of square roots      ...    0.007 sec
Total time needed                          ...    0.020 sec

-------------------
DFT GRID GENERATION
-------------------

General Integration Accuracy     IntAcc      ...  5.010
Radial Grid Type                 RadialGrid  ... Gauss-Chebyshev
Angular Grid (max. acc.)         AngularGrid ... Lebedev-434
Angular grid pruning method      GridPruning ... 3 (G Style)
Weight generation scheme         WeightScheme... Becke
Basis function cutoff            BFCut       ...    1.0000e-12
Integration weight cutoff        WCut        ...    1.0000e-14
Grids for H and He will be reduced by one unit

# of grid points (after initial pruning)     ...  54748 (   0.0 sec)
# of grid points (after weights+screening)   ...  52459 (   0.0 sec)
nearest neighbour list constructed           ...    0.0 sec
Grid point re-assignment to atoms done       ...    0.0 sec
Grid point division into batches done        ...    0.3 sec
Reduced shell lists constructed in    0.3 sec

Total number of grid points                  ...    52459
Total number of batches                      ...      824
Average number of points per batch           ...       63
Average number of grid points per atom       ...     7494
Average number of shells per batch           ...    77.19 (91.89%)
Average number of basis functions per batch  ...   246.30 (93.29%)
Average number of large shells per batch     ...    70.83 (91.76%)
Average number of large basis fcns per batch ...   227.21 (92.25%)
Maximum spatial batch extension              ...   1.71,  1.47,  1.59 au
Average spatial batch extension              ...   0.05,  0.05,  0.05 au

Time for grid setup =    0.355 sec

------------------------------
INITIAL GUESS: MODEL POTENTIAL
------------------------------
Loading Hartree-Fock densities                     ... done
Calculating cut-offs                               ... done
Setting up the integral package                    ... done
Initializing the effective Hamiltonian             ... done
Starting the Coulomb interaction                   ... done (   0.0 sec)
Reading the grid                                   ... done
Mapping shells                                     ... done
Starting the XC term evaluation                    ... done (   0.0 sec)
  promolecular density results
     # of electrons  =     15.997558789
     EX              =     -9.293749516
     EC              =     -0.931505532
     EX+EC           =    -10.225255048
Transforming the Hamiltonian                       ... done (   0.0 sec)
Diagonalizing the Hamiltonian                      ... done (   0.0 sec)
Back transforming the eigenvectors                 ... done (   0.0 sec)
Now organizing SCF variables                       ... done
                      ------------------
                      INITIAL GUESS DONE (   0.5 sec)
                      ------------------
--------------
SCF ITERATIONS
--------------
ITER       Energy         Delta-E        Max-DP      RMS-DP      [F,P]     Damp
               ***  Starting incremental Fock matrix formation  ***
  0    -65.1481061865   0.000000000000 0.03453009  0.00046716  0.2620437 0.7000
  1    -65.2033521381  -0.055245951571 0.02324670  0.00033852  0.1152207 0.7000
                               ***Turning on DIIS***
  2    -65.2228740686  -0.019521930569 0.02322068  0.00057467  0.0282853 0.0000
  3    -65.2495958331  -0.026721764496 0.01956293  0.00022795  0.0734437 0.0000
  4    -65.2593516431  -0.009755809985 0.00356835  0.00008773  0.0138168 0.0000
  5    -65.2599913653  -0.000639722206 0.00196707  0.00003900  0.0041546 0.0000
                      *** Initiating the SOSCF procedure ***
                           *** Shutting down DIIS ***
                      *** Re-Reading the Fockian *** 
                      *** Removing any level shift *** 
ITER      Energy       Delta-E        Grad      Rot      Max-DP    RMS-DP
  6    -65.26004040  -0.0000490305  0.000317  0.000317  0.002256  0.000037
               *** Restarting incremental Fock matrix formation ***
  7    -65.26004411  -0.0000037115  0.000097  0.000218  0.000253  0.000003
  8    -65.26004392   0.0000001922  0.000134  0.000132  0.000117  0.000002
  9    -65.26004433  -0.0000004136  0.000014  0.000040  0.000022  0.000000
 10    -65.26004433   0.0000000025  0.000021  0.000027  0.000015  0.000000
 11    -65.26004433  -0.0000000057  0.000001  0.000001  0.000002  0.000000
                  ***Gradient check signals convergence***
              ***Rediagonalizing the Fockian in SOSCF/NRSCF***

               *****************************************************
               *                     SUCCESS                       *
               *           SCF CONVERGED AFTER  12 CYCLES          *
               *****************************************************

Setting up the final grid:

General Integration Accuracy     IntAcc      ...  5.340
Radial Grid Type                 RadialGrid  ... Gauss-Chebyshev
Angular Grid (max. acc.)         AngularGrid ... Lebedev-590
Angular grid pruning method      GridPruning ... 3 (G Style)
Weight generation scheme         WeightScheme... Becke
Basis function cutoff            BFCut       ...    1.0000e-12
Integration weight cutoff        WCut        ...    1.0000e-14
Grids for H and He will be reduced by one unit

# of grid points (after initial pruning)     ...  87998 (   0.0 sec)
# of grid points (after weights+screening)   ...  84126 (   0.0 sec)
nearest neighbour list constructed           ...    0.0 sec
Grid point re-assignment to atoms done       ...    0.0 sec
Grid point division into batches done        ...    0.7 sec
Reduced shell lists constructed in    0.7 sec

Total number of grid points                  ...    84126
Total number of batches                      ...     1318
Average number of points per batch           ...       63
Average number of grid points per atom       ...    12018
Average number of shells per batch           ...    77.36 (92.10%)
Average number of basis functions per batch  ...   247.44 (93.73%)
Average number of large shells per batch     ...    70.91 (91.66%)
Average number of large basis fcns per batch ...   227.41 (91.91%)
Maximum spatial batch extension              ...   2.00,  1.26,  1.54 au
Average spatial batch extension              ...   0.04,  0.04,  0.04 au

Final grid set up in    0.8 sec
Final integration                            ... done (   0.1 sec)
Change in XC energy                          ...     0.000000619
Integrated number of electrons               ...    16.000000041
Previous integrated no of electrons          ...    16.000002896

----------------
TOTAL SCF ENERGY
----------------

Total Energy       :          -65.26004371 Eh           -1775.81607 eV

Components:
Nuclear Repulsion  :           31.87927312 Eh             867.47912 eV
Electronic Energy  :          -97.13931683 Eh           -2643.29519 eV
One Electron Energy:         -149.88013009 Eh           -4078.44568 eV
Two Electron Energy:           52.74081327 Eh            1435.15049 eV

Virial components:
Potential Energy   :         -129.95758354 Eh           -3536.32563 eV
Kinetic Energy     :           64.69753983 Eh            1760.50956 eV
Virial Ratio       :            2.00869436


DFT components:
N(Alpha)           :        8.000000020662 electrons
N(Beta)            :        8.000000020662 electrons
N(Total)           :       16.000000041324 electrons
E(X)               :       -9.600520812766 Eh       
E(C)               :       -0.954801122038 Eh       
E(XC)              :      -10.555321934805 Eh       
DFET-embed. en.    :        0.000000000000 Eh       

---------------
SCF CONVERGENCE
---------------

  Last Energy change         ...   -3.1264e-12  Tolerance :   1.0000e-09
  Last MAX-Density change    ...    4.4003e-07  Tolerance :   1.0000e-08
  Last RMS-Density change    ...    7.0467e-09  Tolerance :   1.0000e-09
  Last Orbital Gradient      ...    2.7332e-07  Tolerance :   2.0000e-06
  Last Orbital Rotation      ...    4.9736e-07  Tolerance :   2.0000e-06

             **** THE GBW FILE WAS UPDATED (CH3BH2_def2-qzvpp_.gbw) ****
             **** DENSITY FILE WAS UPDATED (CH3BH2_def2-qzvpp_.scfp) ****
             **** ENERGY FILE WAS UPDATED (CH3BH2_def2-qzvpp_.en.tmp) ****
             **** THE GBW FILE WAS UPDATED (CH3BH2_def2-qzvpp_.gbw) ****
             **** DENSITY FILE WAS UPDATED (CH3BH2_def2-qzvpp_.scfp) ****
----------------
ORBITAL ENERGIES
----------------

  NO   OCC          E(Eh)            E(eV) 
   0   2.0000      -9.763521      -265.6789 
   1   2.0000      -6.432599      -175.0399 
   2   2.0000      -0.636982       -17.3331 
   3   2.0000      -0.431864       -11.7516 
   4   2.0000      -0.375571       -10.2198 
   5   2.0000      -0.365275        -9.9396 
   6   2.0000      -0.297437        -8.0937 
   7   2.0000      -0.279134        -7.5956 
   8   0.0000      -0.094034        -2.5588 
   9   0.0000       0.010265         0.2793 
  10   0.0000       0.044543         1.2121 
  11   0.0000       0.048915         1.3311 
  12   0.0000       0.052927         1.4402 
  13   0.0000       0.083690         2.2773 
  14   0.0000       0.095518         2.5992 
  15   0.0000       0.105377         2.8674 
  16   0.0000       0.122481         3.3329 
  17   0.0000       0.135863         3.6970 
  18   0.0000       0.152454         4.1485 
  19   0.0000       0.159164         4.3311 
  20   0.0000       0.185514         5.0481 
  21   0.0000       0.255382         6.9493 
  22   0.0000       0.273706         7.4479 
  23   0.0000       0.275701         7.5022 
  24   0.0000       0.298330         8.1180 
  25   0.0000       0.299848         8.1593 
  26   0.0000       0.315271         8.5790 
  27   0.0000       0.318267         8.6605 
  28   0.0000       0.335045         9.1170 
  29   0.0000       0.407054        11.0765 
  30   0.0000       0.418187        11.3795 
  31   0.0000       0.429630        11.6908 
  32   0.0000       0.457602        12.4520 
  33   0.0000       0.474282        12.9059 
  34   0.0000       0.478086        13.0094 
  35   0.0000       0.530553        14.4371 
  36   0.0000       0.557053        15.1582 
  37   0.0000       0.591820        16.1043 
  38   0.0000       0.611311        16.6346 
  39   0.0000       0.635456        17.2916 
  40   0.0000       0.640902        17.4398 
  41   0.0000       0.659412        17.9435 
  42   0.0000       0.681508        18.5448 
  43   0.0000       0.696045        18.9404 
  44   0.0000       0.767460        20.8836 
  45   0.0000       0.786487        21.4014 
  46   0.0000       0.806170        21.9370 
  47   0.0000       0.840413        22.8688 
  48   0.0000       0.856290        23.3008 
  49   0.0000       0.896813        24.4035 
  50   0.0000       0.926525        25.2120 
  51   0.0000       0.935122        25.4460 
  52   0.0000       0.948124        25.7998 
  53   0.0000       0.977600        26.6018 
  54   0.0000       1.002773        27.2868 
  55   0.0000       1.025332        27.9007 
  56   0.0000       1.041905        28.3517 
  57   0.0000       1.071053        29.1448 
  58   0.0000       1.072203        29.1761 
  59   0.0000       1.119012        30.4499 
  60   0.0000       1.124920        30.6106 
  61   0.0000       1.190560        32.3968 
  62   0.0000       1.204672        32.7808 
  63   0.0000       1.218652        33.1612 
  64   0.0000       1.264166        34.3997 
  65   0.0000       1.279500        34.8170 
  66   0.0000       1.319976        35.9184 
  67   0.0000       1.337220        36.3876 
  68   0.0000       1.348153        36.6851 
  69   0.0000       1.376315        37.4514 
  70   0.0000       1.396325        37.9959 
  71   0.0000       1.421373        38.6775 
  72   0.0000       1.451369        39.4937 
  73   0.0000       1.540758        41.9262 
  74   0.0000       1.625930        44.2438 
  75   0.0000       1.718553        46.7642 
  76   0.0000       1.761278        47.9268 
  77   0.0000       1.793858        48.8134 
  78   0.0000       1.809079        49.2276 
  79   0.0000       1.819485        49.5107 
  80   0.0000       1.880822        51.1798 
  81   0.0000       1.927919        52.4613 
  82   0.0000       1.953243        53.1504 
  83   0.0000       1.989205        54.1290 
  84   0.0000       1.989612        54.1401 
  85   0.0000       2.018721        54.9322 
  86   0.0000       2.071141        56.3586 
  87   0.0000       2.077777        56.5392 
  88   0.0000       2.119694        57.6798 
  89   0.0000       2.152138        58.5627 
  90   0.0000       2.184335        59.4388 
  91   0.0000       2.187867        59.5349 
  92   0.0000       2.287569        62.2479 
  93   0.0000       2.316646        63.0392 
  94   0.0000       2.317758        63.0694 
  95   0.0000       2.367210        64.4151 
  96   0.0000       2.391759        65.0831 
  97   0.0000       2.423706        65.9524 
  98   0.0000       2.460164        66.9445 
  99   0.0000       2.490076        67.7584 
 100   0.0000       2.516565        68.4792 
 101   0.0000       2.521909        68.6246 
 102   0.0000       2.533781        68.9477 
 103   0.0000       2.562524        69.7298 
 104   0.0000       2.597457        70.6804 
 105   0.0000       2.619054        71.2681 
 106   0.0000       2.675680        72.8090 
 107   0.0000       2.698524        73.4306 
 108   0.0000       2.738556        74.5199 
 109   0.0000       2.801561        76.2344 
 110   0.0000       2.822233        76.7969 
 111   0.0000       2.842254        77.3417 
 112   0.0000       2.846594        77.4598 
 113   0.0000       2.891174        78.6728 
 114   0.0000       2.899823        78.9082 
 115   0.0000       2.956909        80.4616 
 116   0.0000       2.960937        80.5712 
 117   0.0000       2.994994        81.4979 
 118   0.0000       3.020605        82.1948 
 119   0.0000       3.080592        83.8272 
 120   0.0000       3.092396        84.1484 
 121   0.0000       3.171876        86.3111 
 122   0.0000       3.174285        86.3767 
 123   0.0000       3.221894        87.6722 
 124   0.0000       3.271679        89.0269 
 125   0.0000       3.320687        90.3605 
 126   0.0000       3.337370        90.8145 
 127   0.0000       3.390227        92.2528 
 128   0.0000       3.407110        92.7122 
 129   0.0000       3.443584        93.7047 
 130   0.0000       3.489258        94.9475 
 131   0.0000       3.542869        96.4064 
 132   0.0000       3.559448        96.8575 
 133   0.0000       3.633949        98.8848 
 134   0.0000       3.645705        99.2047 
 135   0.0000       3.725965       101.3887 
 136   0.0000       3.763985       102.4232 
 137   0.0000       3.764205       102.4292 
 138   0.0000       3.785878       103.0190 
 139   0.0000       3.808553       103.6360 
 140   0.0000       3.933515       107.0364 
 141   0.0000       3.964967       107.8922 
 142   0.0000       3.984644       108.4277 
 143   0.0000       4.031265       109.6963 
 144   0.0000       4.064736       110.6071 
 145   0.0000       4.192093       114.0726 
 146   0.0000       4.263332       116.0112 
 147   0.0000       4.288155       116.6866 
 148   0.0000       4.380727       119.2056 
 149   0.0000       4.448414       121.0475 
 150   0.0000       4.518319       122.9497 
 151   0.0000       4.588083       124.8481 
 152   0.0000       4.614920       125.5783 
 153   0.0000       4.688239       127.5735 
 154   0.0000       4.741881       129.0331 
 155   0.0000       5.032095       136.9303 
 156   0.0000       5.148797       140.1059 
 157   0.0000       5.299728       144.2129 
 158   0.0000       5.320385       144.7750 
 159   0.0000       5.360995       145.8801 
 160   0.0000       5.458676       148.5381 
 161   0.0000       5.680931       154.5860 
 162   0.0000       5.681896       154.6123 
 163   0.0000       5.740669       156.2115 
 164   0.0000       5.766143       156.9047 
 165   0.0000       5.785029       157.4187 
 166   0.0000       5.814341       158.2163 
 167   0.0000       5.871686       159.7767 
 168   0.0000       5.892007       160.3297 
 169   0.0000       5.908304       160.7731 
 170   0.0000       5.994046       163.1063 
 171   0.0000       6.048177       164.5793 
 172   0.0000       6.058278       164.8541 
 173   0.0000       6.105351       166.1350 
 174   0.0000       6.106474       166.1656 
 175   0.0000       6.112604       166.3324 
 176   0.0000       6.147483       167.2815 
 177   0.0000       6.156859       167.5367 
 178   0.0000       6.249494       170.0574 
 179   0.0000       6.309858       171.7000 
 180   0.0000       6.343598       172.6181 
 181   0.0000       6.375422       173.4840 
 182   0.0000       6.416040       174.5893 
 183   0.0000       6.485632       176.4830 
 184   0.0000       6.506388       177.0478 
 185   0.0000       6.597545       179.5283 
 186   0.0000       6.676753       181.6837 
 187   0.0000       6.691833       182.0940 
 188   0.0000       6.755796       183.8346 
 189   0.0000       6.773542       184.3175 
 190   0.0000       6.847994       186.3434 
 191   0.0000       6.960482       189.4044 
 192   0.0000       6.968276       189.6164 
 193   0.0000       7.001236       190.5133 
 194   0.0000       7.037540       191.5012 
 195   0.0000       7.122845       193.8225 
 196   0.0000       7.162371       194.8980 
 197   0.0000       7.198922       195.8926 
 198   0.0000       7.254595       197.4076 
 199   0.0000       7.270061       197.8284 
 200   0.0000       7.287041       198.2905 
 201   0.0000       7.384986       200.9557 
 202   0.0000       7.394728       201.2208 
 203   0.0000       7.419437       201.8931 
 204   0.0000       7.463048       203.0799 
 205   0.0000       7.511587       204.4007 
 206   0.0000       7.575416       206.1376 
 207   0.0000       7.601552       206.8487 
 208   0.0000       7.629907       207.6203 
 209   0.0000       7.642390       207.9600 
 210   0.0000       7.657241       208.3641 
 211   0.0000       7.667153       208.6338 
 212   0.0000       7.784361       211.8232 
 213   0.0000       7.796549       212.1549 
 214   0.0000       7.826924       212.9814 
 215   0.0000       7.917886       215.4566 
 216   0.0000       8.084233       219.9832 
 217   0.0000       8.084880       220.0008 
 218   0.0000       8.153794       221.8760 
 219   0.0000       8.163924       222.1517 
 220   0.0000       8.181183       222.6213 
 221   0.0000       8.199488       223.1194 
 222   0.0000       8.212799       223.4816 
 223   0.0000       8.232078       224.0062 
 224   0.0000       8.267628       224.9736 
 225   0.0000       8.288137       225.5317 
 226   0.0000       8.342660       227.0153 
 227   0.0000       8.364993       227.6230 
 228   0.0000       8.421626       229.1641 
 229   0.0000       8.447358       229.8643 
 230   0.0000       8.497596       231.2313 
 231   0.0000       8.499348       231.2790 
 232   0.0000       8.537085       232.3059 
 233   0.0000       8.676369       236.0960 
 234   0.0000       8.681261       236.2291 
 235   0.0000       8.718931       237.2542 
 236   0.0000       8.733649       237.6547 
 237   0.0000       8.749555       238.0875 
 238   0.0000       8.830381       240.2869 
 239   0.0000       8.857537       241.0258 
 240   0.0000       8.863358       241.1842 
 241   0.0000       8.958419       243.7710 
 242   0.0000       9.026821       245.6323 
 243   0.0000       9.093969       247.4595 
 244   0.0000       9.370551       254.9857 
 245   0.0000       9.413993       256.1678 
 246   0.0000       9.546656       259.7777 
 247   0.0000       9.572527       260.4817 
 248   0.0000       9.663153       262.9478 
 249   0.0000       9.745835       265.1976 
 250   0.0000       9.803893       266.7775 
 251   0.0000       9.833094       267.5721 
 252   0.0000       9.965765       271.1823 
 253   0.0000      10.160903       276.4922 
 254   0.0000      10.255412       279.0639 
 255   0.0000      10.468206       284.8544 
 256   0.0000      10.488118       285.3962 
 257   0.0000      11.763469       320.1003 
 258   0.0000      11.879557       323.2592 
 259   0.0000      13.038090       354.7845 
 260   0.0000      19.669952       535.2466 
 261   0.0000      28.842547       784.8456 
 262   0.0000     102.443868      2787.6394 
 263   0.0000     147.942858      4025.7298 

                    ********************************
                    * MULLIKEN POPULATION ANALYSIS *
                    ********************************

-----------------------
MULLIKEN ATOMIC CHARGES
-----------------------
   0 C :   -0.361164
   1 B :    0.148169
   2 H :    0.089890
   3 H :    0.090503
   4 H :    0.090503
   5 H :   -0.028950
   6 H :   -0.028950
Sum of atomic charges:    0.0000000

--------------------------------
MULLIKEN REDUCED ORBITAL CHARGES
--------------------------------
  0 C s       :     3.273399  s :     3.273399
      pz      :     0.996819  p :     3.052039
      px      :     0.967064
      py      :     1.088156
      dz2     :     0.006096  d :     0.033457
      dxz     :     0.002601
      dyz     :     0.020893
      dx2y2   :     0.004895
      dxy     :    -0.001027
      f0      :     0.000350  f :     0.002284
      f+1     :     0.000750
      f-1     :     0.000302
      f+2     :     0.001004
      f-2     :    -0.000525
      f+3     :     0.000085
      f-3     :     0.000318
      g0      :    -0.000013  g :    -0.000015
      g+1     :    -0.000042
      g-1     :    -0.000006
      g+2     :    -0.000017
      g-2     :     0.000046
      g+3     :    -0.000014
      g-3     :     0.000011
      g+4     :     0.000002
      g-4     :     0.000020
  1 B s       :     3.126398  s :     3.126398
      pz      :     0.861095  p :     1.667085
      px      :     0.097123
      py      :     0.708866
      dz2     :     0.008110  d :     0.049700
      dxz     :     0.000229
      dyz     :     0.020697
      dx2y2   :     0.007536
      dxy     :     0.013129
      f0      :     0.001390  f :     0.007605
      f+1     :     0.000330
      f-1     :     0.002422
      f+2     :     0.001657
      f-2     :    -0.000032
      f+3     :     0.001946
      f-3     :    -0.000108
      g0      :     0.000052  g :     0.001043
      g+1     :    -0.000001
      g-1     :     0.000323
      g+2     :     0.000126
      g-2     :     0.000073
      g+3     :    -0.000004
      g-3     :     0.000154
      g+4     :     0.000074
      g-4     :     0.000245
  2 H s       :     0.858886  s :     0.858886
      pz      :     0.016689  p :     0.045222
      px      :     0.012457
      py      :     0.016076
      dz2     :     0.000166  d :     0.005656
      dxz     :     0.002581
      dyz     :     0.000103
      dx2y2   :     0.000776
      dxy     :     0.002029
      f0      :     0.000069  f :     0.000346
      f+1     :    -0.000001
      f-1     :     0.000007
      f+2     :     0.000097
      f-2     :     0.000015
      f+3     :     0.000052
      f-3     :     0.000106
  3 H s       :     0.858744  s :     0.858744
      pz      :     0.013433  p :     0.044678
      px      :     0.016211
      py      :     0.015034
      dz2     :     0.001816  d :     0.005743
      dxz     :     0.001183
      dyz     :     0.001284
      dx2y2   :     0.000920
      dxy     :     0.000540
      f0      :     0.000120  f :     0.000331
      f+1     :     0.000017
      f-1     :     0.000033
      f+2     :     0.000096
      f-2     :     0.000034
      f+3     :     0.000017
      f-3     :     0.000014
  4 H s       :     0.858744  s :     0.858744
      pz      :     0.013433  p :     0.044678
      px      :     0.016211
      py      :     0.015034
      dz2     :     0.001816  d :     0.005743
      dxz     :     0.001183
      dyz     :     0.001284
      dx2y2   :     0.000920
      dxy     :     0.000540
      f0      :     0.000120  f :     0.000331
      f+1     :     0.000017
      f-1     :     0.000033
      f+2     :     0.000096
      f-2     :     0.000034
      f+3     :     0.000017
      f-3     :     0.000014
  5 H s       :     1.008616  s :     1.008616
      pz      :     0.008338  p :     0.019044
      px      :     0.000999
      py      :     0.009707
      dz2     :     0.000564  d :     0.001271
      dxz     :     0.000047
      dyz     :     0.000283
      dx2y2   :     0.000306
      dxy     :     0.000071
      f0      :     0.000023  f :     0.000019
      f+1     :    -0.000000
      f-1     :    -0.000013
      f+2     :     0.000005
      f-2     :    -0.000000
      f+3     :     0.000001
      f-3     :     0.000003
  6 H s       :     1.008616  s :     1.008616
      pz      :     0.008338  p :     0.019044
      px      :     0.000999
      py      :     0.009707
      dz2     :     0.000564  d :     0.001271
      dxz     :     0.000047
      dyz     :     0.000283
      dx2y2   :     0.000306
      dxy     :     0.000071
      f0      :     0.000023  f :     0.000019
      f+1     :    -0.000000
      f-1     :    -0.000013
      f+2     :     0.000005
      f-2     :    -0.000000
      f+3     :     0.000001
      f-3     :     0.000003


                     *******************************
                     * LOEWDIN POPULATION ANALYSIS *
                     *******************************

----------------------
LOEWDIN ATOMIC CHARGES
----------------------
   0 C :    0.269667
   1 B :   -0.068187
   2 H :   -0.016235
   3 H :   -0.045824
   4 H :   -0.045824
   5 H :   -0.046798
   6 H :   -0.046798

-------------------------------
LOEWDIN REDUCED ORBITAL CHARGES
-------------------------------
  0 C s       :     2.555327  s :     2.555327
      pz      :     0.933067  p :     2.873406
      px      :     0.900196
      py      :     1.040144
      dz2     :     0.047594  d :     0.256554
      dxz     :     0.030340
      dyz     :     0.105640
      dx2y2   :     0.066893
      dxy     :     0.006087
      f0      :     0.005184  f :     0.042938
      f+1     :     0.007464
      f-1     :     0.008086
      f+2     :     0.007512
      f-2     :     0.006293
      f+3     :     0.001619
      f-3     :     0.006779
      g0      :     0.000084  g :     0.002109
      g+1     :     0.000046
      g-1     :     0.000482
      g+2     :     0.000142
      g-2     :     0.000408
      g+3     :     0.000081
      g-3     :     0.000313
      g+4     :     0.000233
      g-4     :     0.000319
  1 B s       :     2.605514  s :     2.605514
      pz      :     0.936009  p :     1.943377
      px      :     0.132982
      py      :     0.874387
      dz2     :     0.059803  d :     0.400126
      dxz     :     0.000945
      dyz     :     0.196684
      dx2y2   :     0.063336
      dxy     :     0.079357
      f0      :     0.017535  f :     0.104457
      f+1     :     0.003623
      f-1     :     0.016989
      f+2     :     0.023757
      f-2     :     0.000405
      f+3     :     0.030755
      f-3     :     0.011392
      g0      :     0.000310  g :     0.014714
      g+1     :     0.000010
      g-1     :     0.003445
      g+2     :     0.001920
      g-2     :     0.000496
      g+3     :     0.000081
      g-3     :     0.002783
      g+4     :     0.001792
      g-4     :     0.003879
  2 H s       :     0.722818  s :     0.722818
      pz      :     0.056327  p :     0.214109
      px      :     0.082949
      py      :     0.074833
      dz2     :     0.004480  d :     0.069991
      dxz     :     0.024531
      dyz     :     0.000578
      dx2y2   :     0.015504
      dxy     :     0.024898
      f0      :     0.001155  f :     0.009317
      f+1     :     0.000949
      f-1     :     0.000309
      f+2     :     0.001835
      f-2     :     0.000195
      f+3     :     0.002558
      f-3     :     0.002315
  3 H s       :     0.761750  s :     0.761750
      pz      :     0.076175  p :     0.206607
      px      :     0.059251
      py      :     0.071181
      dz2     :     0.021032  d :     0.067817
      dxz     :     0.014725
      dyz     :     0.015963
      dx2y2   :     0.010744
      dxy     :     0.005353
      f0      :     0.002562  f :     0.009650
      f+1     :     0.001479
      f-1     :     0.001553
      f+2     :     0.002022
      f-2     :     0.001362
      f+3     :     0.000349
      f-3     :     0.000324
  4 H s       :     0.761750  s :     0.761750
      pz      :     0.076175  p :     0.206607
      px      :     0.059251
      py      :     0.071181
      dz2     :     0.021032  d :     0.067817
      dxz     :     0.014725
      dyz     :     0.015963
      dx2y2   :     0.010743
      dxy     :     0.005353
      f0      :     0.002562  f :     0.009650
      f+1     :     0.001479
      f-1     :     0.001553
      f+2     :     0.002022
      f-2     :     0.001362
      f+3     :     0.000349
      f-3     :     0.000324
  5 H s       :     0.915086  s :     0.915086
      pz      :     0.056611  p :     0.102864
      px      :     0.003649
      py      :     0.042604
      dz2     :     0.011656  d :     0.025847
      dxz     :     0.000599
      dyz     :     0.009777
      dx2y2   :     0.003197
      dxy     :     0.000618
      f0      :     0.001075  f :     0.003001
      f+1     :     0.000030
      f-1     :     0.001148
      f+2     :     0.000578
      f-2     :     0.000064
      f+3     :     0.000018
      f-3     :     0.000088
  6 H s       :     0.915086  s :     0.915086
      pz      :     0.056611  p :     0.102864
      px      :     0.003649
      py      :     0.042604
      dz2     :     0.011656  d :     0.025847
      dxz     :     0.000599
      dyz     :     0.009777
      dx2y2   :     0.003197
      dxy     :     0.000618
      f0      :     0.001075  f :     0.003001
      f+1     :     0.000030
      f-1     :     0.001148
      f+2     :     0.000578
      f-2     :     0.000064
      f+3     :     0.000018
      f-3     :     0.000088


                      *****************************
                      * MAYER POPULATION ANALYSIS *
                      *****************************

  NA   - Mulliken gross atomic population
  ZA   - Total nuclear charge
  QA   - Mulliken gross atomic charge
  VA   - Mayer's total valence
  BVA  - Mayer's bonded valence
  FA   - Mayer's free valence

  ATOM       NA         ZA         QA         VA         BVA        FA
  0 C      6.3612     6.0000    -0.3612     3.8470     3.8470     0.0000
  1 B      4.8518     5.0000     0.1482     3.0899     3.0899     0.0000
  2 H      0.9101     1.0000     0.0899     1.0248     1.0248    -0.0000
  3 H      0.9095     1.0000     0.0905     1.0191     1.0191     0.0000
  4 H      0.9095     1.0000     0.0905     1.0191     1.0191     0.0000
  5 H      1.0290     1.0000    -0.0290     0.9946     0.9946    -0.0000
  6 H      1.0290     1.0000    -0.0290     0.9946     0.9946     0.0000

  Mayer bond orders larger than 0.100000
B(  0-C ,  1-B ) :   1.0024 B(  0-C ,  2-H ) :   0.9117 B(  0-C ,  3-H ) :   0.9658 
B(  0-C ,  4-H ) :   0.9658 B(  1-B ,  5-H ) :   0.9844 B(  1-B ,  6-H ) :   0.9844 


-------
TIMINGS
-------

Total SCF time: 0 days 0 hours 0 min 15 sec 

Total time                  ....      15.864 sec
Sum of individual times     ....      15.619 sec  ( 98.5%)

Fock matrix formation       ....      14.146 sec  ( 89.2%)
  XC integration            ....       0.695 sec  (  4.9% of F)
    Basis function eval.    ....       0.111 sec  ( 16.0% of XC)
    Density eval.           ....       0.129 sec  ( 18.5% of XC)
    XC-Functional eval.     ....       0.016 sec  (  2.4% of XC)
    XC-Potential eval.      ....       0.213 sec  ( 30.6% of XC)
Diagonalization             ....       0.071 sec  (  0.4%)
Density matrix formation    ....       0.021 sec  (  0.1%)
Population analysis         ....       0.011 sec  (  0.1%)
Initial guess               ....       0.122 sec  (  0.8%)
Orbital Transformation      ....       0.000 sec  (  0.0%)
Orbital Orthonormalization  ....       0.000 sec  (  0.0%)
DIIS solution               ....       0.032 sec  (  0.2%)
SOSCF solution              ....       0.060 sec  (  0.4%)
Grid generation             ....       1.156 sec  (  7.3%)

-------------------------   --------------------
FINAL SINGLE POINT ENERGY       -65.260043712914
-------------------------   --------------------


                            ***************************************
                            *     ORCA property calculations      *
                            ***************************************

                                    ---------------------
                                    Active property flags
                                    ---------------------
   (+) Dipole Moment


------------------------------------------------------------------------------
                       ORCA ELECTRIC PROPERTIES CALCULATION
------------------------------------------------------------------------------

Dipole Moment Calculation                       ... on
Quadrupole Moment Calculation                   ... off
Polarizability Calculation                      ... off
GBWName                                         ... CH3BH2_def2-qzvpp_.gbw
Electron density file                           ... CH3BH2_def2-qzvpp_.scfp
The origin for moment calculation is the CENTER OF MASS  = (-0.016481,  0.064710 -0.000000)

-------------
DIPOLE MOMENT
-------------
                                X             Y             Z
Electronic contribution:     -0.19826       0.73478      -0.00000
Nuclear contribution   :      0.24617      -1.03742       0.00000
                        -----------------------------------------
Total Dipole Moment    :      0.04791      -0.30264       0.00000
                        -----------------------------------------
Magnitude (a.u.)       :      0.30641
Magnitude (Debye)      :      0.77883



--------------------
Rotational spectrum 
--------------------
 
Rotational constants in cm-1:     3.228710     0.723532     0.660823 
Rotational constants in MHz : 96794.286037 21690.947830 19810.964189 

 Dipole components along the rotational axes: 
x,y,z [a.u.] :    -0.302586    -0.000000    -0.048265 
x,y,z [Debye]:    -0.769112    -0.000001    -0.122680 

 

Timings for individual modules:

Sum of individual times         ...       16.663 sec (=   0.278 min)
GTO integral calculation        ...        0.547 sec (=   0.009 min)   3.3 %
SCF iterations                  ...       16.117 sec (=   0.269 min)  96.7 %
                             ****ORCA TERMINATED NORMALLY****
TOTAL RUN TIME: 0 days 0 hours 0 minutes 16 seconds 977 msec
