
                                 *****************
                                 * O   R   C   A *
                                 *****************

           --- An Ab Initio, DFT and Semiempirical electronic structure package ---

                  #######################################################
                  #                        -***-                        #
                  #          Department of theory and spectroscopy      #
                  #               Directorship: Frank Neese             #
                  #        Max Planck Institute fuer Kohlenforschung    #
                  #                Kaiser Wilhelm Platz 1               #
                  #                 D-45470 Muelheim/Ruhr               #
                  #                      Germany                        #
                  #                                                     #
                  #                  All rights reserved                #
                  #                        -***-                        #
                  #######################################################


                         Program Version 4.2.1 -  RELEASE  -


 With contributions from (in alphabetic order):
   Daniel Aravena         : Magnetic Suceptibility
   Michael Atanasov       : Ab Initio Ligand Field Theory (pilot matlab implementation)
   Alexander A. Auer      : GIAO ZORA, VPT2
   Ute Becker             : Parallelization
   Giovanni Bistoni       : ED, misc. LED, open-shell LED, HFLD
   Martin Brehm           : Molecular dynamics
   Dmytro Bykov           : SCF Hessian
   Vijay G. Chilkuri      : MRCI spin determinant printing, contributions to CSF-ICE
   Dipayan Datta          : RHF DLPNO-CCSD density
   Achintya Kumar Dutta   : EOM-CC, STEOM-CC
   Dmitry Ganyushin       : Spin-Orbit,Spin-Spin,Magnetic field MRCI
   Miquel Garcia          : C-PCM Hessian, Gaussian charge scheme
   Yang Guo               : DLPNO-NEVPT2, CIM, IAO-localization
   Andreas Hansen         : Spin unrestricted coupled pair/coupled cluster methods
   Benjamin Helmich-Paris : CASSCF linear response (MC-RPA)
   Lee Huntington         : MR-EOM, pCC
   Robert Izsak           : Overlap fitted RIJCOSX, COSX-SCS-MP3, EOM
   Christian Kollmar      : KDIIS, OOCD, Brueckner-CCSD(T), CCSD density
   Simone Kossmann        : Meta GGA functionals, TD-DFT gradient, OOMP2, MP2 Hessian
   Martin Krupicka        : AUTO-CI
   Lucas Lang             : DCDCAS
   Dagmar Lenk            : GEPOL surface, SMD
   Dimitrios Liakos       : Extrapolation schemes; Compound Job, initial MDCI parallelization
   Dimitrios Manganas     : Further ROCIS development; embedding schemes
   Dimitrios Pantazis     : SARC Basis sets
   Taras Petrenko         : DFT Hessian,TD-DFT gradient, ASA, ECA, R-Raman, ABS, FL, XAS/XES, NRVS
   Peter Pinski           : DLPNO-MP2, DLPNO-MP2 Gradient
   Christoph Reimann      : Effective Core Potentials
   Marius Retegan         : Local ZFS, SOC
   Christoph Riplinger    : Optimizer, TS searches, QM/MM, DLPNO-CCSD(T), (RO)-DLPNO pert. Triples
   Tobias Risthaus        : Range-separated hybrids, TD-DFT gradient, RPA, STAB
   Michael Roemelt        : Original ROCIS implementation
   Masaaki Saitow         : Open-shell DLPNO-CCSD energy and density
   Barbara Sandhoefer     : DKH picture change effects
   Avijit Sen             : IP-ROCIS
   Kantharuban Sivalingam : CASSCF convergence, NEVPT2, FIC-MRCI
   Bernardo de Souza      : ESD, SOC TD-DFT
   Georgi Stoychev        : AutoAux, RI-MP2 NMR
   Willem Van den Heuvel  : Paramagnetic NMR
   Boris Wezisla          : Elementary symmetry handling
   Frank Wennmohs         : Technical directorship


 We gratefully acknowledge several colleagues who have allowed us to
 interface, adapt or use parts of their codes:
   Stefan Grimme, W. Hujo, H. Kruse,             : VdW corrections, initial TS optimization,
                  C. Bannwarth                     DFT functionals, gCP, sTDA/sTD-DF
   Ed Valeev, F. Pavosevic, A. Kumar             : LibInt (2-el integral package), F12 methods
   Garnet Chan, S. Sharma, J. Yang, R. Olivares  : DMRG
   Ulf Ekstrom                                   : XCFun DFT Library
   Mihaly Kallay                                 : mrcc  (arbitrary order and MRCC methods)
   Andreas Klamt, Michael Diedenhofen            : otool_cosmo (COSMO solvation model)
   Jiri Pittner, Ondrej Demel                    : Mk-CCSD
   Frank Weinhold                                : gennbo (NPA and NBO analysis)
   Christopher J. Cramer and Donald G. Truhlar   : smd solvation model
   Lars Goerigk                                  : TD-DFT with DH, B97 family of functionals
   V. Asgeirsson, H. Jonsson                     : NEB implementation
   FAccTs GmbH                                   : IRC, NEB, NEB-TS, Multilevel, MM, QM/MM, CI optimization
   S Lehtola, MJT Oliveira, MAL Marques          : LibXC Library


 Your calculation uses the libint2 library for the computation of 2-el integrals
 For citations please refer to: http://libint.valeyev.net

 Your ORCA version has been built with support for libXC version: 4.2.3
 For citations please refer to: https://tddft.org/programs/libxc/

 This ORCA versions uses:
   CBLAS   interface :  Fast vector & matrix operations
   LAPACKE interface :  Fast linear algebra routines
   SCALAPACK package :  Parallel linear algebra routines


----- Orbital basis set information -----
Your calculation utilizes the basis: ZORA-def2-QZVPP 
   Exponents from def2-QZVPP [F. Weigend and R. Ahlrichs, Phys. Chem. Chem. Phys. 7, 3297 (2005)],
   recontracted for ZORA by D. A. Pantazis.

================================================================================
                                        WARNINGS
                       Please study these warnings very carefully!
================================================================================


INFO   : the flag for use of LIBINT has been found!

================================================================================
                                       INPUT FILE
================================================================================
NAME = CH3BH2_zora-def2-qzvpp_.inp
|  1> ! LDA zora-def2-qzvpp nori grid5 finalgrid6 verytightscf
|  2> %Pal NProcs 18 End
|  3> 
|  4> *xyz 0 1
|  5> C -0.0190572749 -0.6845195756 -0.0000000839
|  6> B -0.0207972952 0.8729523951 -0.0000000656
|  7> H 1.0512614815 -0.9395660726 0.0000010826
|  8> H -0.4362896177 -1.1431007759 0.8927422542
|  9> H -0.4362878975 -1.1431009662 -0.8927431359
| 10> H 0.0151838060 1.4835176231 -1.0228906497
| 11> H 0.0151867978 1.4835173722 1.0228905983
| 12> **                         ****END OF INPUT****
================================================================================

                       ****************************
                       * Single Point Calculation *
                       ****************************

---------------------------------
CARTESIAN COORDINATES (ANGSTROEM)
---------------------------------
  C     -0.019057   -0.684520   -0.000000
  B     -0.020797    0.872952   -0.000000
  H      1.051261   -0.939566    0.000001
  H     -0.436290   -1.143101    0.892742
  H     -0.436288   -1.143101   -0.892743
  H      0.015184    1.483518   -1.022891
  H      0.015187    1.483517    1.022891

----------------------------
CARTESIAN COORDINATES (A.U.)
----------------------------
  NO LB      ZA    FRAG     MASS         X           Y           Z
   0 C     6.0000    0    12.011   -0.036013   -1.293555   -0.000000
   1 B     5.0000    0    10.810   -0.039301    1.649641   -0.000000
   2 H     1.0000    0     1.008    1.986596   -1.775523    0.000002
   3 H     1.0000    0     1.008   -0.824468   -2.160147    1.687038
   4 H     1.0000    0     1.008   -0.824465   -2.160148   -1.687040
   5 H     1.0000    0     1.008    0.028693    2.803442   -1.932983
   6 H     1.0000    0     1.008    0.028699    2.803442    1.932983

--------------------------------
INTERNAL COORDINATES (ANGSTROEM)
--------------------------------
 C      0   0   0     0.000000000000     0.00000000     0.00000000
 B      1   0   0     1.557472942682     0.00000000     0.00000000
 H      1   2   0     1.100286760774   103.46708113     0.00000000
 H      1   2   3     1.086907736371   114.92834598   115.07642486
 H      1   2   3     1.086907742697   114.92835822   244.92355778
 H      2   1   3     1.191801025476   120.81519254    87.94730336
 H      2   1   3     1.191801055757   120.81517879   272.05298910

---------------------------
INTERNAL COORDINATES (A.U.)
---------------------------
 C      0   0   0     0.000000000000     0.00000000     0.00000000
 B      1   0   0     2.943197322662     0.00000000     0.00000000
 H      1   2   0     2.079240646643   103.46708113     0.00000000
 H      1   2   3     2.053957954582   114.92834598   115.07642486
 H      1   2   3     2.053957966535   114.92835822   244.92355778
 H      2   1   3     2.252177544277   120.81519254    87.94730336
 H      2   1   3     2.252177601499   120.81517879   272.05298910

---------------------
BASIS SET INFORMATION
---------------------
There are 3 groups of distinct atoms

 Group   1 Type C   : 15s8p3d2f1g contracted to 8s4p3d2f1g pattern {81111111/5111/111/11/1}
 Group   2 Type B   : 15s8p3d2f1g contracted to 8s4p3d2f1g pattern {81111111/5111/111/11/1}
 Group   3 Type H   : 7s3p2d1f contracted to 4s3p2d1f pattern {4111/111/11/1}

Atom   0C    basis set group =>   1
Atom   1B    basis set group =>   2
Atom   2H    basis set group =>   3
Atom   3H    basis set group =>   3
Atom   4H    basis set group =>   3
Atom   5H    basis set group =>   3
Atom   6H    basis set group =>   3


           ************************************************************
           *        Program running with 18 parallel MPI-processes    *
           *              working on a common directory               *
           ************************************************************
------------------------------------------------------------------------------
                           ORCA GTO INTEGRAL CALCULATION
------------------------------------------------------------------------------

                         BASIS SET STATISTICS AND STARTUP INFO

 # of primitive gaussian shells          ...  123
 # of primitive gaussian functions       ...  319
 # of contracted shells                  ...   86
 # of contracted basis functions         ...  266
 Highest angular momentum                ...    4
 Maximum contraction depth               ...    8
 Integral package used                   ... LIBINT
 Integral threshhold            Thresh   ...  1.000e-12
 Primitive cut-off              TCut     ...  1.000e-14


------------------------------ INTEGRAL EVALUATION ----------------------------


 * One electron integrals 
 Pre-screening matrix                    ... done
 Shell pair data                         ... done (   0.001 sec)



           ************************************************************
           *        Program running with 18 parallel MPI-processes    *
           *              working on a common directory               *
           ************************************************************
-------------------------------------------------------------------------------
                                 ORCA SCF
-------------------------------------------------------------------------------

------------
SCF SETTINGS
------------
Hamiltonian:
 Density Functional     Method          .... DFT(GTOs)
 Exchange Functional    Exchange        .... Slater
   X-Alpha parameter    XAlpha          ....  0.666667
 Correlation Functional Correlation     .... VWN-5
 Gradients option       PostSCFGGA      .... off
   Density functional embedding theory  .... OFF


General Settings:
 Integral files         IntName         .... CH3BH2_zora-def2-qzvpp_
 Hartree-Fock type      HFTyp           .... RHF
 Total Charge           Charge          ....    0
 Multiplicity           Mult            ....    1
 Number of Electrons    NEL             ....   16
 Basis Dimension        Dim             ....  266
 Nuclear Repulsion      ENuc            ....     31.8792731152 Eh

Convergence Acceleration:
 DIIS                   CNVDIIS         .... on
   Start iteration      DIISMaxIt       ....    12
   Startup error        DIISStart       ....  0.200000
   # of expansion vecs  DIISMaxEq       ....     5
   Bias factor          DIISBfac        ....   1.050
   Max. coefficient     DIISMaxC        ....  10.000
 Newton-Raphson         CNVNR           .... off
 SOSCF                  CNVSOSCF        .... on
   Start iteration      SOSCFMaxIt      ....   150
   Startup grad/error   SOSCFStart      ....  0.003300
 Level Shifting         CNVShift        .... on
   Level shift para.    LevelShift      ....    0.2500
   Turn off err/grad.   ShiftErr        ....    0.0010
 Zerner damping         CNVZerner       .... off
 Static damping         CNVDamp         .... on
   Fraction old density DampFac         ....    0.7000
   Max. Damping (<1)    DampMax         ....    0.9800
   Min. Damping (>=0)   DampMin         ....    0.0000
   Turn off err/grad.   DampErr         ....    0.1000
 Fernandez-Rico         CNVRico         .... off

SCF Procedure:
 Maximum # iterations   MaxIter         ....   125
 SCF integral mode      SCFMode         .... Direct
   Integral package                     .... LIBINT
 Reset frequency        DirectResetFreq ....    20
 Integral Threshold     Thresh          ....  1.000e-12 Eh
 Primitive CutOff       TCut            ....  1.000e-14 Eh

Convergence Tolerance:
 Convergence Check Mode ConvCheckMode   .... Total+1el-Energy
 Convergence forced     ConvForced      .... 0
 Energy Change          TolE            ....  1.000e-09 Eh
 1-El. energy change                    ....  1.000e-06 Eh
 Orbital Gradient       TolG            ....  2.000e-06
 Orbital Rotation angle TolX            ....  2.000e-06
 DIIS Error             TolErr          ....  1.000e-08


Diagonalization of the overlap matrix:
Smallest eigenvalue                        ... 9.795e-05
Time for diagonalization                   ...    0.008 sec
Threshold for overlap eigenvalues          ... 1.000e-08
Number of eigenvalues below threshold      ... 0
Time for construction of square roots      ...    0.008 sec
Total time needed                          ...    0.016 sec

-------------------
DFT GRID GENERATION
-------------------

General Integration Accuracy     IntAcc      ...  5.010
Radial Grid Type                 RadialGrid  ... Gauss-Chebyshev
Angular Grid (max. acc.)         AngularGrid ... Lebedev-434
Angular grid pruning method      GridPruning ... 3 (G Style)
Weight generation scheme         WeightScheme... Becke
Basis function cutoff            BFCut       ...    1.0000e-12
Integration weight cutoff        WCut        ...    1.0000e-14
Grids for H and He will be reduced by one unit

# of grid points (after initial pruning)     ...  54748 (   0.0 sec)
# of grid points (after weights+screening)   ...  52459 (   0.0 sec)
nearest neighbour list constructed           ...    0.0 sec
Grid point re-assignment to atoms done       ...    0.0 sec
Grid point division into batches done        ...    0.3 sec
Reduced shell lists constructed in    0.3 sec

Total number of grid points                  ...    52459
Total number of batches                      ...      824
Average number of points per batch           ...       63
Average number of grid points per atom       ...     7494
Average number of shells per batch           ...    77.64 (90.28%)
Average number of basis functions per batch  ...   246.74 (92.76%)
Average number of large shells per batch     ...    70.98 (91.42%)
Average number of large basis fcns per batch ...   227.36 (92.14%)
Maximum spatial batch extension              ...   1.71,  1.47,  1.59 au
Average spatial batch extension              ...   0.05,  0.05,  0.05 au

Time for grid setup =    0.365 sec

------------------------------
INITIAL GUESS: MODEL POTENTIAL
------------------------------
Loading Hartree-Fock densities                     ... done
Calculating cut-offs                               ... done
Setting up the integral package                    ... done
Initializing the effective Hamiltonian             ... done
Starting the Coulomb interaction                   ... done (   0.0 sec)
Reading the grid                                   ... done
Mapping shells                                     ... done
Starting the XC term evaluation                    ... done (   0.0 sec)
  promolecular density results
     # of electrons  =     15.997558789
     EX              =     -9.293749516
     EC              =     -0.931505532
     EX+EC           =    -10.225255048
Transforming the Hamiltonian                       ... done (   0.0 sec)
Diagonalizing the Hamiltonian                      ... done (   0.0 sec)
Back transforming the eigenvectors                 ... done (   0.0 sec)
Now organizing SCF variables                       ... done
                      ------------------
                      INITIAL GUESS DONE (   0.5 sec)
                      ------------------
--------------
SCF ITERATIONS
--------------
ITER       Energy         Delta-E        Max-DP      RMS-DP      [F,P]     Damp
               ***  Starting incremental Fock matrix formation  ***
  0    -65.1481163914   0.000000000000 0.03210798  0.00047106  0.2620576 0.7000
  1    -65.2033664050  -0.055250013579 0.02104041  0.00034021  0.1152256 0.7000
                               ***Turning on DIIS***
  2    -65.2228878407  -0.019521435733 0.02319633  0.00057654  0.0282853 0.0000
  3    -65.2496061379  -0.026718297177 0.01793908  0.00023176  0.0734478 0.0000
  4    -65.2593609186  -0.009754780661 0.00376427  0.00008852  0.0138436 0.0000
  5    -65.2600032344  -0.000642315849 0.00197449  0.00003965  0.0041846 0.0000
                      *** Initiating the SOSCF procedure ***
                           *** Shutting down DIIS ***
                      *** Re-Reading the Fockian *** 
                      *** Removing any level shift *** 
ITER      Energy       Delta-E        Grad      Rot      Max-DP    RMS-DP
  6    -65.26005262  -0.0000493889  0.000318  0.000318  0.002254  0.000037
               *** Restarting incremental Fock matrix formation ***
  7    -65.26005631  -0.0000036828  0.000095  0.000219  0.000229  0.000003
  8    -65.26005611   0.0000001959  0.000135  0.000133  0.000109  0.000002
  9    -65.26005653  -0.0000004159  0.000014  0.000040  0.000021  0.000000
 10    -65.26005652   0.0000000024  0.000021  0.000027  0.000015  0.000000
 11    -65.26005653  -0.0000000056  0.000001  0.000001  0.000001  0.000000
                  ***Gradient check signals convergence***
              ***Rediagonalizing the Fockian in SOSCF/NRSCF***

               *****************************************************
               *                     SUCCESS                       *
               *           SCF CONVERGED AFTER  12 CYCLES          *
               *****************************************************

Setting up the final grid:

General Integration Accuracy     IntAcc      ...  5.340
Radial Grid Type                 RadialGrid  ... Gauss-Chebyshev
Angular Grid (max. acc.)         AngularGrid ... Lebedev-590
Angular grid pruning method      GridPruning ... 3 (G Style)
Weight generation scheme         WeightScheme... Becke
Basis function cutoff            BFCut       ...    1.0000e-12
Integration weight cutoff        WCut        ...    1.0000e-14
Grids for H and He will be reduced by one unit

# of grid points (after initial pruning)     ...  87998 (   0.0 sec)
# of grid points (after weights+screening)   ...  84126 (   0.0 sec)
nearest neighbour list constructed           ...    0.0 sec
Grid point re-assignment to atoms done       ...    0.0 sec
Grid point division into batches done        ...    0.7 sec
Reduced shell lists constructed in    0.7 sec

Total number of grid points                  ...    84126
Total number of batches                      ...     1318
Average number of points per batch           ...       63
Average number of grid points per atom       ...    12018
Average number of shells per batch           ...    77.71 (90.36%)
Average number of basis functions per batch  ...   247.79 (93.15%)
Average number of large shells per batch     ...    71.08 (91.47%)
Average number of large basis fcns per batch ...   227.59 (91.85%)
Maximum spatial batch extension              ...   2.00,  1.26,  1.54 au
Average spatial batch extension              ...   0.04,  0.04,  0.04 au

Final grid set up in    0.8 sec
Final integration                            ... done (   0.1 sec)
Change in XC energy                          ...     0.000000611
Integrated number of electrons               ...    16.000000041
Previous integrated no of electrons          ...    16.000002875

----------------
TOTAL SCF ENERGY
----------------

Total Energy       :          -65.26005592 Eh           -1775.81640 eV

Components:
Nuclear Repulsion  :           31.87927312 Eh             867.47912 eV
Electronic Energy  :          -97.13932903 Eh           -2643.29553 eV
One Electron Energy:         -149.88007181 Eh           -4078.44410 eV
Two Electron Energy:           52.74074277 Eh            1435.14857 eV

Virial components:
Potential Energy   :         -129.95885035 Eh           -3536.36010 eV
Kinetic Energy     :           64.69879444 Eh            1760.54370 eV
Virial Ratio       :            2.00867499


DFT components:
N(Alpha)           :        8.000000020273 electrons
N(Beta)            :        8.000000020273 electrons
N(Total)           :       16.000000040547 electrons
E(X)               :       -9.600493256853 Eh       
E(C)               :       -0.954798707296 Eh       
E(XC)              :      -10.555291964148 Eh       
DFET-embed. en.    :        0.000000000000 Eh       

---------------
SCF CONVERGENCE
---------------

  Last Energy change         ...   -2.7427e-12  Tolerance :   1.0000e-09
  Last MAX-Density change    ...    5.6632e-07  Tolerance :   1.0000e-08
  Last RMS-Density change    ...    7.3913e-09  Tolerance :   1.0000e-09
  Last Orbital Gradient      ...    2.6970e-07  Tolerance :   2.0000e-06
  Last Orbital Rotation      ...    4.9294e-07  Tolerance :   2.0000e-06

             **** THE GBW FILE WAS UPDATED (CH3BH2_zora-def2-qzvpp_.gbw) ****
             **** DENSITY FILE WAS UPDATED (CH3BH2_zora-def2-qzvpp_.scfp) ****
             **** ENERGY FILE WAS UPDATED (CH3BH2_zora-def2-qzvpp_.en.tmp) ****
             **** THE GBW FILE WAS UPDATED (CH3BH2_zora-def2-qzvpp_.gbw) ****
             **** DENSITY FILE WAS UPDATED (CH3BH2_zora-def2-qzvpp_.scfp) ****
----------------
ORBITAL ENERGIES
----------------

  NO   OCC          E(Eh)            E(eV) 
   0   2.0000      -9.763467      -265.6774 
   1   2.0000      -6.432617      -175.0404 
   2   2.0000      -0.636991       -17.3334 
   3   2.0000      -0.431874       -11.7519 
   4   2.0000      -0.375593       -10.2204 
   5   2.0000      -0.365294        -9.9402 
   6   2.0000      -0.297445        -8.0939 
   7   2.0000      -0.279153        -7.5961 
   8   0.0000      -0.094037        -2.5589 
   9   0.0000       0.010263         0.2793 
  10   0.0000       0.044535         1.2119 
  11   0.0000       0.048907         1.3308 
  12   0.0000       0.052938         1.4405 
  13   0.0000       0.083680         2.2770 
  14   0.0000       0.095519         2.5992 
  15   0.0000       0.105375         2.8674 
  16   0.0000       0.122456         3.3322 
  17   0.0000       0.135868         3.6971 
  18   0.0000       0.152444         4.1482 
  19   0.0000       0.159161         4.3310 
  20   0.0000       0.185519         5.0482 
  21   0.0000       0.255397         6.9497 
  22   0.0000       0.273708         7.4480 
  23   0.0000       0.275677         7.5016 
  24   0.0000       0.298349         8.1185 
  25   0.0000       0.299888         8.1604 
  26   0.0000       0.315279         8.5792 
  27   0.0000       0.318295         8.6613 
  28   0.0000       0.335134         9.1194 
  29   0.0000       0.407067        11.0768 
  30   0.0000       0.418146        11.3783 
  31   0.0000       0.429662        11.6917 
  32   0.0000       0.457623        12.4526 
  33   0.0000       0.474313        12.9067 
  34   0.0000       0.478046        13.0083 
  35   0.0000       0.530557        14.4372 
  36   0.0000       0.557090        15.1592 
  37   0.0000       0.591812        16.1040 
  38   0.0000       0.611345        16.6355 
  39   0.0000       0.635468        17.2920 
  40   0.0000       0.640866        17.4388 
  41   0.0000       0.659442        17.9443 
  42   0.0000       0.681574        18.5466 
  43   0.0000       0.696127        18.9426 
  44   0.0000       0.767558        20.8863 
  45   0.0000       0.786663        21.4062 
  46   0.0000       0.806474        21.9453 
  47   0.0000       0.840430        22.8693 
  48   0.0000       0.856267        23.3002 
  49   0.0000       0.896844        24.4044 
  50   0.0000       0.926495        25.2112 
  51   0.0000       0.935228        25.4489 
  52   0.0000       0.948014        25.7968 
  53   0.0000       0.977594        26.6017 
  54   0.0000       1.002738        27.2859 
  55   0.0000       1.025768        27.9126 
  56   0.0000       1.041917        28.3520 
  57   0.0000       1.071134        29.1470 
  58   0.0000       1.072139        29.1744 
  59   0.0000       1.119223        30.4556 
  60   0.0000       1.124514        30.5996 
  61   0.0000       1.190589        32.3976 
  62   0.0000       1.204847        32.7855 
  63   0.0000       1.218562        33.1588 
  64   0.0000       1.264218        34.4011 
  65   0.0000       1.279224        34.8095 
  66   0.0000       1.319957        35.9179 
  67   0.0000       1.336938        36.3799 
  68   0.0000       1.348177        36.6858 
  69   0.0000       1.376306        37.4512 
  70   0.0000       1.396275        37.9946 
  71   0.0000       1.421373        38.6775 
  72   0.0000       1.451287        39.4915 
  73   0.0000       1.540697        41.9245 
  74   0.0000       1.625856        44.2418 
  75   0.0000       1.718418        46.7605 
  76   0.0000       1.761278        47.9268 
  77   0.0000       1.793855        48.8133 
  78   0.0000       1.809104        49.2282 
  79   0.0000       1.819488        49.5108 
  80   0.0000       1.880809        51.1794 
  81   0.0000       1.927972        52.4628 
  82   0.0000       1.953008        53.1440 
  83   0.0000       1.989227        54.1296 
  84   0.0000       1.989416        54.1347 
  85   0.0000       2.018694        54.9315 
  86   0.0000       2.071119        56.3580 
  87   0.0000       2.077997        56.5452 
  88   0.0000       2.119675        57.6793 
  89   0.0000       2.152115        58.5620 
  90   0.0000       2.184735        59.4497 
  91   0.0000       2.187898        59.5357 
  92   0.0000       2.287815        62.2546 
  93   0.0000       2.316841        63.0444 
  94   0.0000       2.317888        63.0729 
  95   0.0000       2.367396        64.4201 
  96   0.0000       2.391781        65.0837 
  97   0.0000       2.424453        65.9727 
  98   0.0000       2.460410        66.9512 
  99   0.0000       2.490036        67.7573 
 100   0.0000       2.516588        68.4798 
 101   0.0000       2.521939        68.6254 
 102   0.0000       2.533937        68.9519 
 103   0.0000       2.562906        69.7402 
 104   0.0000       2.597389        70.6786 
 105   0.0000       2.618816        71.2616 
 106   0.0000       2.675559        72.8057 
 107   0.0000       2.698597        73.4326 
 108   0.0000       2.738692        74.5236 
 109   0.0000       2.801623        76.2360 
 110   0.0000       2.822214        76.7963 
 111   0.0000       2.843131        77.3655 
 112   0.0000       2.847303        77.4790 
 113   0.0000       2.891573        78.6837 
 114   0.0000       2.899805        78.9077 
 115   0.0000       2.956985        80.4637 
 116   0.0000       2.961078        80.5750 
 117   0.0000       2.995238        81.5046 
 118   0.0000       3.020494        82.1918 
 119   0.0000       3.080372        83.8212 
 120   0.0000       3.092378        84.1479 
 121   0.0000       3.172403        86.3255 
 122   0.0000       3.174156        86.3732 
 123   0.0000       3.221008        87.6481 
 124   0.0000       3.271500        89.0220 
 125   0.0000       3.321113        90.3721 
 126   0.0000       3.337518        90.8185 
 127   0.0000       3.390299        92.2547 
 128   0.0000       3.407154        92.7134 
 129   0.0000       3.442768        93.6825 
 130   0.0000       3.489117        94.9437 
 131   0.0000       3.542888        96.4069 
 132   0.0000       3.559719        96.8649 
 133   0.0000       3.634000        98.8862 
 134   0.0000       3.645906        99.2101 
 135   0.0000       3.726292       101.3976 
 136   0.0000       3.764415       102.4349 
 137   0.0000       3.764736       102.4437 
 138   0.0000       3.786945       103.0480 
 139   0.0000       3.808810       103.6430 
 140   0.0000       3.933534       107.0369 
 141   0.0000       3.968551       107.9897 
 142   0.0000       3.985301       108.4456 
 143   0.0000       4.034235       109.7771 
 144   0.0000       4.065144       110.6182 
 145   0.0000       4.193364       114.1072 
 146   0.0000       4.259091       115.8957 
 147   0.0000       4.289006       116.7098 
 148   0.0000       4.381024       119.2137 
 149   0.0000       4.448451       121.0485 
 150   0.0000       4.519335       122.9773 
 151   0.0000       4.588079       124.8480 
 152   0.0000       4.622799       125.7928 
 153   0.0000       4.689055       127.5957 
 154   0.0000       4.741944       129.0349 
 155   0.0000       5.034249       136.9889 
 156   0.0000       5.159509       140.3974 
 157   0.0000       5.300634       144.2376 
 158   0.0000       5.321330       144.8008 
 159   0.0000       5.361825       145.9027 
 160   0.0000       5.460552       148.5892 
 161   0.0000       5.690281       154.8404 
 162   0.0000       5.691404       154.8710 
 163   0.0000       5.746558       156.3718 
 164   0.0000       5.766870       156.9245 
 165   0.0000       5.793755       157.6561 
 166   0.0000       5.815001       158.2342 
 167   0.0000       5.871611       159.7746 
 168   0.0000       5.897085       160.4678 
 169   0.0000       5.909160       160.7964 
 170   0.0000       5.998229       163.2201 
 171   0.0000       6.048711       164.5938 
 172   0.0000       6.061110       164.9312 
 173   0.0000       6.106071       166.1546 
 174   0.0000       6.108866       166.2307 
 175   0.0000       6.113786       166.3646 
 176   0.0000       6.149274       167.3303 
 177   0.0000       6.163173       167.7085 
 178   0.0000       6.251306       170.1067 
 179   0.0000       6.314307       171.8210 
 180   0.0000       6.348484       172.7510 
 181   0.0000       6.379224       173.5875 
 182   0.0000       6.417963       174.6416 
 183   0.0000       6.493170       176.6881 
 184   0.0000       6.506958       177.0633 
 185   0.0000       6.597846       179.5365 
 186   0.0000       6.676262       181.6703 
 187   0.0000       6.763912       184.0554 
 188   0.0000       6.765200       184.0904 
 189   0.0000       6.795862       184.9248 
 190   0.0000       6.851808       186.4472 
 191   0.0000       6.960893       189.4155 
 192   0.0000       6.987180       190.1308 
 193   0.0000       7.015086       190.8902 
 194   0.0000       7.056120       192.0068 
 195   0.0000       7.123969       193.8531 
 196   0.0000       7.161806       194.8827 
 197   0.0000       7.222767       196.5415 
 198   0.0000       7.276299       197.9982 
 199   0.0000       7.281416       198.1374 
 200   0.0000       7.296431       198.5460 
 201   0.0000       7.394376       201.2112 
 202   0.0000       7.396100       201.2581 
 203   0.0000       7.425847       202.0676 
 204   0.0000       7.469123       203.2452 
 205   0.0000       7.514842       204.4892 
 206   0.0000       7.582837       206.3395 
 207   0.0000       7.603520       206.9023 
 208   0.0000       7.635371       207.7690 
 209   0.0000       7.650600       208.1834 
 210   0.0000       7.667597       208.6459 
 211   0.0000       7.671556       208.7537 
 212   0.0000       7.800203       212.2543 
 213   0.0000       7.808103       212.4693 
 214   0.0000       7.834425       213.1855 
 215   0.0000       7.918280       215.4674 
 216   0.0000       8.087959       220.0845 
 217   0.0000       8.090064       220.1418 
 218   0.0000       8.156716       221.9555 
 219   0.0000       8.160565       222.0603 
 220   0.0000       8.194526       222.9844 
 221   0.0000       8.199757       223.1267 
 222   0.0000       8.214603       223.5307 
 223   0.0000       8.231237       223.9833 
 224   0.0000       8.268274       224.9912 
 225   0.0000       8.298151       225.8042 
 226   0.0000       8.347550       227.1484 
 227   0.0000       8.365817       227.6454 
 228   0.0000       8.422052       229.1757 
 229   0.0000       8.447560       229.8698 
 230   0.0000       8.495957       231.1867 
 231   0.0000       8.511335       231.6052 
 232   0.0000       8.537147       232.3076 
 233   0.0000       8.677545       236.1280 
 234   0.0000       8.683938       236.3020 
 235   0.0000       8.721235       237.3169 
 236   0.0000       8.737054       237.7473 
 237   0.0000       8.748611       238.0618 
 238   0.0000       8.832285       240.3387 
 239   0.0000       8.858702       241.0575 
 240   0.0000       8.864748       241.2221 
 241   0.0000       8.961860       243.8646 
 242   0.0000       9.033295       245.8084 
 243   0.0000       9.093807       247.4551 
 244   0.0000       9.376868       255.1576 
 245   0.0000       9.426823       256.5169 
 246   0.0000       9.554178       259.9824 
 247   0.0000       9.581468       260.7250 
 248   0.0000       9.677768       263.3455 
 249   0.0000       9.747201       265.2348 
 250   0.0000       9.804351       266.7899 
 251   0.0000       9.833749       267.5899 
 252   0.0000       9.980044       271.5708 
 253   0.0000      10.162303       276.5303 
 254   0.0000      10.256801       279.1017 
 255   0.0000      10.468960       284.8749 
 256   0.0000      10.530629       286.5530 
 257   0.0000      11.834781       322.0408 
 258   0.0000      11.950525       325.1903 
 259   0.0000      13.060964       355.4069 
 260   0.0000      18.882348       513.8148 
 261   0.0000      27.725973       754.4621 
 262   0.0000      69.614009      1894.2935 
 263   0.0000     101.159898      2752.7008 
 264   0.0000     354.892398      9657.1131 
 265   0.0000     519.292787     14130.6751 

                    ********************************
                    * MULLIKEN POPULATION ANALYSIS *
                    ********************************

-----------------------
MULLIKEN ATOMIC CHARGES
-----------------------
   0 C :   -0.052068
   1 B :    0.320977
   2 H :   -0.009417
   3 H :   -0.019681
   4 H :   -0.019681
   5 H :   -0.110064
   6 H :   -0.110065
Sum of atomic charges:    0.0000000

--------------------------------
MULLIKEN REDUCED ORBITAL CHARGES
--------------------------------
  0 C s       :     3.195704  s :     3.195704
      pz      :     0.903569  p :     2.846679
      px      :     0.882189
      py      :     1.060921
      dz2     :     0.000358  d :     0.009795
      dxz     :    -0.002111
      dyz     :     0.013823
      dx2y2   :    -0.000071
      dxy     :    -0.002204
      f0      :     0.000203  f :     0.000100
      f+1     :     0.000160
      f-1     :    -0.000235
      f+2     :     0.001002
      f-2     :    -0.001068
      f+3     :    -0.000090
      f-3     :     0.000128
      g0      :    -0.000026  g :    -0.000209
      g+1     :    -0.000074
      g-1     :    -0.000037
      g+2     :    -0.000036
      g-2     :     0.000008
      g+3     :    -0.000023
      g-3     :     0.000001
      g+4     :    -0.000014
      g-4     :    -0.000008
  1 B s       :     3.063567  s :     3.063567
      pz      :     0.793372  p :     1.576104
      px      :     0.097209
      py      :     0.685523
      dz2     :     0.003982  d :     0.033381
      dxz     :     0.000244
      dyz     :     0.009772
      dx2y2   :     0.006196
      dxy     :     0.013186
      f0      :     0.001234  f :     0.005261
      f+1     :     0.000316
      f-1     :     0.000739
      f+2     :     0.001202
      f-2     :    -0.000031
      f+3     :     0.001954
      f-3     :    -0.000152
      g0      :     0.000051  g :     0.000711
      g+1     :    -0.000002
      g-1     :     0.000137
      g+2     :     0.000008
      g-2     :     0.000076
      g+3     :    -0.000006
      g-3     :     0.000123
      g+4     :     0.000073
      g-4     :     0.000250
  2 H s       :     0.947652  s :     0.947652
      pz      :     0.017552  p :     0.054771
      px      :     0.020002
      py      :     0.017217
      dz2     :     0.000392  d :     0.006576
      dxz     :     0.002716
      dyz     :     0.000092
      dx2y2   :     0.001167
      dxy     :     0.002209
      f0      :     0.000073  f :     0.000418
      f+1     :     0.000022
      f-1     :     0.000008
      f+2     :     0.000105
      f-2     :     0.000014
      f+3     :     0.000073
      f-3     :     0.000123
  3 H s       :     0.958235  s :     0.958235
      pz      :     0.019415  p :     0.054363
      px      :     0.017956
      py      :     0.016992
      dz2     :     0.001989  d :     0.006680
      dxz     :     0.001437
      dyz     :     0.001698
      dx2y2   :     0.000964
      dxy     :     0.000593
      f0      :     0.000124  f :     0.000402
      f+1     :     0.000035
      f-1     :     0.000060
      f+2     :     0.000100
      f-2     :     0.000050
      f+3     :     0.000020
      f-3     :     0.000014
  4 H s       :     0.958236  s :     0.958236
      pz      :     0.019415  p :     0.054363
      px      :     0.017956
      py      :     0.016992
      dz2     :     0.001989  d :     0.006680
      dxz     :     0.001437
      dyz     :     0.001698
      dx2y2   :     0.000963
      dxy     :     0.000593
      f0      :     0.000124  f :     0.000402
      f+1     :     0.000035
      f-1     :     0.000060
      f+2     :     0.000100
      f-2     :     0.000050
      f+3     :     0.000020
      f-3     :     0.000014
  5 H s       :     1.083059  s :     1.083059
      pz      :     0.013026  p :     0.025368
      px      :     0.001002
      py      :     0.011340
      dz2     :     0.000671  d :     0.001605
      dxz     :     0.000046
      dyz     :     0.000494
      dx2y2   :     0.000322
      dxy     :     0.000072
      f0      :     0.000024  f :     0.000033
      f+1     :    -0.000000
      f-1     :    -0.000001
      f+2     :     0.000006
      f-2     :    -0.000000
      f+3     :     0.000001
      f-3     :     0.000003
  6 H s       :     1.083059  s :     1.083059
      pz      :     0.013026  p :     0.025368
      px      :     0.001002
      py      :     0.011340
      dz2     :     0.000671  d :     0.001605
      dxz     :     0.000046
      dyz     :     0.000494
      dx2y2   :     0.000322
      dxy     :     0.000072
      f0      :     0.000024  f :     0.000033
      f+1     :    -0.000000
      f-1     :    -0.000001
      f+2     :     0.000006
      f-2     :    -0.000000
      f+3     :     0.000001
      f-3     :     0.000003


                     *******************************
                     * LOEWDIN POPULATION ANALYSIS *
                     *******************************

----------------------
LOEWDIN ATOMIC CHARGES
----------------------
   0 C :    0.270693
   1 B :   -0.067195
   2 H :   -0.016521
   3 H :   -0.046140
   4 H :   -0.046140
   5 H :   -0.047349
   6 H :   -0.047349

-------------------------------
LOEWDIN REDUCED ORBITAL CHARGES
-------------------------------
  0 C s       :     2.554897  s :     2.554897
      pz      :     0.932627  p :     2.872330
      px      :     0.899703
      py      :     1.040001
      dz2     :     0.047640  d :     0.256743
      dxz     :     0.030394
      dyz     :     0.105708
      dx2y2   :     0.066899
      dxy     :     0.006102
      f0      :     0.005184  f :     0.043185
      f+1     :     0.007551
      f-1     :     0.008145
      f+2     :     0.007500
      f-2     :     0.006365
      f+3     :     0.001647
      f-3     :     0.006793
      g0      :     0.000086  g :     0.002152
      g+1     :     0.000050
      g-1     :     0.000487
      g+2     :     0.000144
      g-2     :     0.000423
      g+3     :     0.000084
      g-3     :     0.000314
      g+4     :     0.000237
      g-4     :     0.000327
  1 B s       :     2.605022  s :     2.605022
      pz      :     0.935357  p :     1.942534
      px      :     0.132979
      py      :     0.874198
      dz2     :     0.059861  d :     0.400273
      dxz     :     0.000949
      dyz     :     0.196743
      dx2y2   :     0.063329
      dxy     :     0.079391
      f0      :     0.017557  f :     0.104580
      f+1     :     0.003626
      f-1     :     0.017041
      f+2     :     0.023788
      f-2     :     0.000406
      f+3     :     0.030778
      f-3     :     0.011385
      g0      :     0.000310  g :     0.014786
      g+1     :     0.000010
      g-1     :     0.003483
      g+2     :     0.001946
      g-2     :     0.000495
      g+3     :     0.000082
      g-3     :     0.002789
      g+4     :     0.001791
      g-4     :     0.003880
  2 H s       :     0.723067  s :     0.723067
      pz      :     0.056315  p :     0.214162
      px      :     0.083016
      py      :     0.074831
      dz2     :     0.004480  d :     0.069985
      dxz     :     0.024530
      dyz     :     0.000580
      dx2y2   :     0.015495
      dxy     :     0.024901
      f0      :     0.001152  f :     0.009306
      f+1     :     0.000948
      f-1     :     0.000310
      f+2     :     0.001835
      f-2     :     0.000193
      f+3     :     0.002557
      f-3     :     0.002311
  3 H s       :     0.762051  s :     0.762051
      pz      :     0.076216  p :     0.206643
      px      :     0.059251
      py      :     0.071176
      dz2     :     0.021024  d :     0.067807
      dxz     :     0.014719
      dyz     :     0.015964
      dx2y2   :     0.010743
      dxy     :     0.005357
      f0      :     0.002561  f :     0.009639
      f+1     :     0.001477
      f-1     :     0.001549
      f+2     :     0.002022
      f-2     :     0.001359
      f+3     :     0.000348
      f-3     :     0.000324
  4 H s       :     0.762051  s :     0.762051
      pz      :     0.076216  p :     0.206643
      px      :     0.059251
      py      :     0.071176
      dz2     :     0.021024  d :     0.067807
      dxz     :     0.014719
      dyz     :     0.015964
      dx2y2   :     0.010743
      dxy     :     0.005357
      f0      :     0.002561  f :     0.009639
      f+1     :     0.001477
      f-1     :     0.001549
      f+2     :     0.002022
      f-2     :     0.001359
      f+3     :     0.000348
      f-3     :     0.000324
  5 H s       :     0.915609  s :     0.915609
      pz      :     0.056650  p :     0.102920
      px      :     0.003648
      py      :     0.042622
      dz2     :     0.011646  d :     0.025817
      dxz     :     0.000599
      dyz     :     0.009763
      dx2y2   :     0.003193
      dxy     :     0.000617
      f0      :     0.001075  f :     0.003003
      f+1     :     0.000030
      f-1     :     0.001149
      f+2     :     0.000578
      f-2     :     0.000064
      f+3     :     0.000018
      f-3     :     0.000088
  6 H s       :     0.915609  s :     0.915609
      pz      :     0.056650  p :     0.102920
      px      :     0.003648
      py      :     0.042622
      dz2     :     0.011646  d :     0.025817
      dxz     :     0.000599
      dyz     :     0.009763
      dx2y2   :     0.003193
      dxy     :     0.000617
      f0      :     0.001075  f :     0.003003
      f+1     :     0.000030
      f-1     :     0.001149
      f+2     :     0.000578
      f-2     :     0.000064
      f+3     :     0.000018
      f-3     :     0.000088


                      *****************************
                      * MAYER POPULATION ANALYSIS *
                      *****************************

  NA   - Mulliken gross atomic population
  ZA   - Total nuclear charge
  QA   - Mulliken gross atomic charge
  VA   - Mayer's total valence
  BVA  - Mayer's bonded valence
  FA   - Mayer's free valence

  ATOM       NA         ZA         QA         VA         BVA        FA
  0 C      6.0521     6.0000    -0.0521     3.8582     3.8582     0.0000
  1 B      4.6790     5.0000     0.3210     3.0643     3.0643     0.0000
  2 H      1.0094     1.0000    -0.0094     1.0419     1.0419     0.0000
  3 H      1.0197     1.0000    -0.0197     1.0349     1.0349     0.0000
  4 H      1.0197     1.0000    -0.0197     1.0349     1.0349     0.0000
  5 H      1.1101     1.0000    -0.1101     0.9828     0.9828     0.0000
  6 H      1.1101     1.0000    -0.1101     0.9828     0.9828     0.0000

  Mayer bond orders larger than 0.100000
B(  0-C ,  1-B ) :   0.9888 B(  0-C ,  2-H ) :   0.9160 B(  0-C ,  3-H ) :   0.9760 
B(  0-C ,  4-H ) :   0.9760 B(  1-B ,  5-H ) :   0.9741 B(  1-B ,  6-H ) :   0.9741 


-------
TIMINGS
-------

Total SCF time: 0 days 0 hours 0 min 15 sec 

Total time                  ....      15.874 sec
Sum of individual times     ....      15.633 sec  ( 98.5%)

Fock matrix formation       ....      14.144 sec  ( 89.1%)
  XC integration            ....       0.614 sec  (  4.3% of F)
    Basis function eval.    ....       0.113 sec  ( 18.4% of XC)
    Density eval.           ....       0.129 sec  ( 21.0% of XC)
    XC-Functional eval.     ....       0.017 sec  (  2.7% of XC)
    XC-Potential eval.      ....       0.213 sec  ( 34.7% of XC)
Diagonalization             ....       0.082 sec  (  0.5%)
Density matrix formation    ....       0.020 sec  (  0.1%)
Population analysis         ....       0.012 sec  (  0.1%)
Initial guess               ....       0.114 sec  (  0.7%)
Orbital Transformation      ....       0.000 sec  (  0.0%)
Orbital Orthonormalization  ....       0.000 sec  (  0.0%)
DIIS solution               ....       0.033 sec  (  0.2%)
SOSCF solution              ....       0.059 sec  (  0.4%)
Grid generation             ....       1.169 sec  (  7.4%)

-------------------------   --------------------
FINAL SINGLE POINT ENERGY       -65.260055918429
-------------------------   --------------------


                            ***************************************
                            *     ORCA property calculations      *
                            ***************************************

                                    ---------------------
                                    Active property flags
                                    ---------------------
   (+) Dipole Moment


------------------------------------------------------------------------------
                       ORCA ELECTRIC PROPERTIES CALCULATION
------------------------------------------------------------------------------

Dipole Moment Calculation                       ... on
Quadrupole Moment Calculation                   ... off
Polarizability Calculation                      ... off
GBWName                                         ... CH3BH2_zora-def2-qzvpp_.gbw
Electron density file                           ... CH3BH2_zora-def2-qzvpp_.scfp
The origin for moment calculation is the CENTER OF MASS  = (-0.016481,  0.064710 -0.000000)

-------------
DIPOLE MOMENT
-------------
                                X             Y             Z
Electronic contribution:     -0.19835       0.73446      -0.00000
Nuclear contribution   :      0.24617      -1.03742       0.00000
                        -----------------------------------------
Total Dipole Moment    :      0.04782      -0.30296       0.00000
                        -----------------------------------------
Magnitude (a.u.)       :      0.30671
Magnitude (Debye)      :      0.77959



--------------------
Rotational spectrum 
--------------------
 
Rotational constants in cm-1:     3.228710     0.723532     0.660823 
Rotational constants in MHz : 96794.286037 21690.947830 19810.964189 

 Dipole components along the rotational axes: 
x,y,z [a.u.] :    -0.302902    -0.000000    -0.048178 
x,y,z [Debye]:    -0.769917    -0.000001    -0.122458 

 

Timings for individual modules:

Sum of individual times         ...       16.686 sec (=   0.278 min)
GTO integral calculation        ...        0.584 sec (=   0.010 min)   3.5 %
SCF iterations                  ...       16.102 sec (=   0.268 min)  96.5 %
                             ****ORCA TERMINATED NORMALLY****
TOTAL RUN TIME: 0 days 0 hours 0 minutes 17 seconds 27 msec
