
                                 *****************
                                 * O   R   C   A *
                                 *****************

           --- An Ab Initio, DFT and Semiempirical electronic structure package ---

                  #######################################################
                  #                        -***-                        #
                  #          Department of theory and spectroscopy      #
                  #               Directorship: Frank Neese             #
                  #        Max Planck Institute fuer Kohlenforschung    #
                  #                Kaiser Wilhelm Platz 1               #
                  #                 D-45470 Muelheim/Ruhr               #
                  #                      Germany                        #
                  #                                                     #
                  #                  All rights reserved                #
                  #                        -***-                        #
                  #######################################################


                         Program Version 4.2.1 -  RELEASE  -


 With contributions from (in alphabetic order):
   Daniel Aravena         : Magnetic Suceptibility
   Michael Atanasov       : Ab Initio Ligand Field Theory (pilot matlab implementation)
   Alexander A. Auer      : GIAO ZORA, VPT2
   Ute Becker             : Parallelization
   Giovanni Bistoni       : ED, misc. LED, open-shell LED, HFLD
   Martin Brehm           : Molecular dynamics
   Dmytro Bykov           : SCF Hessian
   Vijay G. Chilkuri      : MRCI spin determinant printing, contributions to CSF-ICE
   Dipayan Datta          : RHF DLPNO-CCSD density
   Achintya Kumar Dutta   : EOM-CC, STEOM-CC
   Dmitry Ganyushin       : Spin-Orbit,Spin-Spin,Magnetic field MRCI
   Miquel Garcia          : C-PCM Hessian, Gaussian charge scheme
   Yang Guo               : DLPNO-NEVPT2, CIM, IAO-localization
   Andreas Hansen         : Spin unrestricted coupled pair/coupled cluster methods
   Benjamin Helmich-Paris : CASSCF linear response (MC-RPA)
   Lee Huntington         : MR-EOM, pCC
   Robert Izsak           : Overlap fitted RIJCOSX, COSX-SCS-MP3, EOM
   Christian Kollmar      : KDIIS, OOCD, Brueckner-CCSD(T), CCSD density
   Simone Kossmann        : Meta GGA functionals, TD-DFT gradient, OOMP2, MP2 Hessian
   Martin Krupicka        : AUTO-CI
   Lucas Lang             : DCDCAS
   Dagmar Lenk            : GEPOL surface, SMD
   Dimitrios Liakos       : Extrapolation schemes; Compound Job, initial MDCI parallelization
   Dimitrios Manganas     : Further ROCIS development; embedding schemes
   Dimitrios Pantazis     : SARC Basis sets
   Taras Petrenko         : DFT Hessian,TD-DFT gradient, ASA, ECA, R-Raman, ABS, FL, XAS/XES, NRVS
   Peter Pinski           : DLPNO-MP2, DLPNO-MP2 Gradient
   Christoph Reimann      : Effective Core Potentials
   Marius Retegan         : Local ZFS, SOC
   Christoph Riplinger    : Optimizer, TS searches, QM/MM, DLPNO-CCSD(T), (RO)-DLPNO pert. Triples
   Tobias Risthaus        : Range-separated hybrids, TD-DFT gradient, RPA, STAB
   Michael Roemelt        : Original ROCIS implementation
   Masaaki Saitow         : Open-shell DLPNO-CCSD energy and density
   Barbara Sandhoefer     : DKH picture change effects
   Avijit Sen             : IP-ROCIS
   Kantharuban Sivalingam : CASSCF convergence, NEVPT2, FIC-MRCI
   Bernardo de Souza      : ESD, SOC TD-DFT
   Georgi Stoychev        : AutoAux, RI-MP2 NMR
   Willem Van den Heuvel  : Paramagnetic NMR
   Boris Wezisla          : Elementary symmetry handling
   Frank Wennmohs         : Technical directorship


 We gratefully acknowledge several colleagues who have allowed us to
 interface, adapt or use parts of their codes:
   Stefan Grimme, W. Hujo, H. Kruse,             : VdW corrections, initial TS optimization,
                  C. Bannwarth                     DFT functionals, gCP, sTDA/sTD-DF
   Ed Valeev, F. Pavosevic, A. Kumar             : LibInt (2-el integral package), F12 methods
   Garnet Chan, S. Sharma, J. Yang, R. Olivares  : DMRG
   Ulf Ekstrom                                   : XCFun DFT Library
   Mihaly Kallay                                 : mrcc  (arbitrary order and MRCC methods)
   Andreas Klamt, Michael Diedenhofen            : otool_cosmo (COSMO solvation model)
   Jiri Pittner, Ondrej Demel                    : Mk-CCSD
   Frank Weinhold                                : gennbo (NPA and NBO analysis)
   Christopher J. Cramer and Donald G. Truhlar   : smd solvation model
   Lars Goerigk                                  : TD-DFT with DH, B97 family of functionals
   V. Asgeirsson, H. Jonsson                     : NEB implementation
   FAccTs GmbH                                   : IRC, NEB, NEB-TS, Multilevel, MM, QM/MM, CI optimization
   S Lehtola, MJT Oliveira, MAL Marques          : LibXC Library


 Your calculation uses the libint2 library for the computation of 2-el integrals
 For citations please refer to: http://libint.valeyev.net

 Your ORCA version has been built with support for libXC version: 4.2.3
 For citations please refer to: https://tddft.org/programs/libxc/

 This ORCA versions uses:
   CBLAS   interface :  Fast vector & matrix operations
   LAPACKE interface :  Fast linear algebra routines
   SCALAPACK package :  Parallel linear algebra routines


----- Orbital basis set information -----
Your calculation utilizes the basis: cc-pCVDZ 
             H : cc-pVDZ. Obtained from the ccRepo (grant-hill.group.shef.ac.uk/ccrepo) Feb. 2017
                 T. H. Dunning, Jr., J. Chem. Phys. 90, 1007 (1989)
            He : cc-pVDZ. Obtained from the ccRepo (grant-hill.group.shef.ac.uk/ccrepo) Feb. 2017
                 D. E. Woon, T. H. Dunning, Jr., J. Chem. Phys. 100, 2975 (1994)
  Li-Be, Na-Mg : Obtained from the ccRepo (grant-hill.group.shef.ac.uk/ccrepo) Feb. 2017
                 B. P. Prascher, D. E. Woon, K. A. Peterson, T. H. Dunning, Jr., A. K. Wilson, Theor. Chem. Acc. 128, 69 (2011)
          B-Ne : Obtained from the ccRepo (grant-hill.group.shef.ac.uk/ccrepo) Feb. 2017
                 D. E. Woon, T. H. Dunning, Jr., J. Chem. Phys. 103, 4572 (1995)
                  K. A. Peterson, T. H. Dunning, Jr., J. Chem. Phys. 117, 10548 (2002)
         Al-Ar : Obtained from the EMSL Basis Set Exchange (bse.pnl.gov) Feb. 2017
                 K. A. Peterson, T. H. Dunning, Jr., J. Chem. Phys. 117, 10548 (2002)
            Ca : Obtained from the Peterson Research Group Website (tyr0.chem.wsu.edu/~kipeters) Feb. 2017
                 J. Koput, K. A. Peterson, J. Phys. Chem. 106, 9595 (2002)
         Ga-Kr : Obtained from the Peterson Research Group Website (tyr0.chem.wsu.edu/~kipeters) Feb. 2017
                 N. J. DeYonker, K. A. Peterson, A. K. Wilson, J. Phys. Chem. A 111, 11383 (2007)

================================================================================
                                        WARNINGS
                       Please study these warnings very carefully!
================================================================================


INFO   : the flag for use of LIBINT has been found!

================================================================================
                                       INPUT FILE
================================================================================
NAME = CH3BH2_cc-pcvdz_.inp
|  1> ! LDA cc-pcvdz nori grid5 finalgrid6 verytightscf
|  2> %Pal NProcs 18 End
|  3> 
|  4> *xyz 0 1
|  5> C -0.0190572749 -0.6845195756 -0.0000000839
|  6> B -0.0207972952 0.8729523951 -0.0000000656
|  7> H 1.0512614815 -0.9395660726 0.0000010826
|  8> H -0.4362896177 -1.1431007759 0.8927422542
|  9> H -0.4362878975 -1.1431009662 -0.8927431359
| 10> H 0.0151838060 1.4835176231 -1.0228906497
| 11> H 0.0151867978 1.4835173722 1.0228905983
| 12> **                         ****END OF INPUT****
================================================================================

                       ****************************
                       * Single Point Calculation *
                       ****************************

---------------------------------
CARTESIAN COORDINATES (ANGSTROEM)
---------------------------------
  C     -0.019057   -0.684520   -0.000000
  B     -0.020797    0.872952   -0.000000
  H      1.051261   -0.939566    0.000001
  H     -0.436290   -1.143101    0.892742
  H     -0.436288   -1.143101   -0.892743
  H      0.015184    1.483518   -1.022891
  H      0.015187    1.483517    1.022891

----------------------------
CARTESIAN COORDINATES (A.U.)
----------------------------
  NO LB      ZA    FRAG     MASS         X           Y           Z
   0 C     6.0000    0    12.011   -0.036013   -1.293555   -0.000000
   1 B     5.0000    0    10.810   -0.039301    1.649641   -0.000000
   2 H     1.0000    0     1.008    1.986596   -1.775523    0.000002
   3 H     1.0000    0     1.008   -0.824468   -2.160147    1.687038
   4 H     1.0000    0     1.008   -0.824465   -2.160148   -1.687040
   5 H     1.0000    0     1.008    0.028693    2.803442   -1.932983
   6 H     1.0000    0     1.008    0.028699    2.803442    1.932983

--------------------------------
INTERNAL COORDINATES (ANGSTROEM)
--------------------------------
 C      0   0   0     0.000000000000     0.00000000     0.00000000
 B      1   0   0     1.557472942682     0.00000000     0.00000000
 H      1   2   0     1.100286760774   103.46708113     0.00000000
 H      1   2   3     1.086907736371   114.92834598   115.07642486
 H      1   2   3     1.086907742697   114.92835822   244.92355778
 H      2   1   3     1.191801025476   120.81519254    87.94730336
 H      2   1   3     1.191801055757   120.81517879   272.05298910

---------------------------
INTERNAL COORDINATES (A.U.)
---------------------------
 C      0   0   0     0.000000000000     0.00000000     0.00000000
 B      1   0   0     2.943197322662     0.00000000     0.00000000
 H      1   2   0     2.079240646643   103.46708113     0.00000000
 H      1   2   3     2.053957954582   114.92834598   115.07642486
 H      1   2   3     2.053957966535   114.92835822   244.92355778
 H      2   1   3     2.252177544277   120.81519254    87.94730336
 H      2   1   3     2.252177601499   120.81517879   272.05298910

---------------------
BASIS SET INFORMATION
---------------------
There are 3 groups of distinct atoms

 Group   1 Type C   : 18s5p1d contracted to 4s3p1d pattern {8811/311/1}
 Group   2 Type B   : 18s5p1d contracted to 4s3p1d pattern {8811/311/1}
 Group   3 Type H   : 4s1p contracted to 2s1p pattern {31/1}

Atom   0C    basis set group =>   1
Atom   1B    basis set group =>   2
Atom   2H    basis set group =>   3
Atom   3H    basis set group =>   3
Atom   4H    basis set group =>   3
Atom   5H    basis set group =>   3
Atom   6H    basis set group =>   3


           ************************************************************
           *        Program running with 18 parallel MPI-processes    *
           *              working on a common directory               *
           ************************************************************
------------------------------------------------------------------------------
                           ORCA GTO INTEGRAL CALCULATION
------------------------------------------------------------------------------

                         BASIS SET STATISTICS AND STARTUP INFO

 # of primitive gaussian shells          ...   73
 # of primitive gaussian functions       ...  111
 # of contracted shells                  ...   31
 # of contracted basis functions         ...   61
 Highest angular momentum                ...    2
 Maximum contraction depth               ...    8
 Integral package used                   ... LIBINT
 Integral threshhold            Thresh   ...  1.000e-12
 Primitive cut-off              TCut     ...  1.000e-14


------------------------------ INTEGRAL EVALUATION ----------------------------


 * One electron integrals 
 Pre-screening matrix                    ... done
 Shell pair data                         ... done (   0.000 sec)



           ************************************************************
           *        Program running with 18 parallel MPI-processes    *
           *              working on a common directory               *
           ************************************************************
-------------------------------------------------------------------------------
                                 ORCA SCF
-------------------------------------------------------------------------------

------------
SCF SETTINGS
------------
Hamiltonian:
 Density Functional     Method          .... DFT(GTOs)
 Exchange Functional    Exchange        .... Slater
   X-Alpha parameter    XAlpha          ....  0.666667
 Correlation Functional Correlation     .... VWN-5
 Gradients option       PostSCFGGA      .... off
   Density functional embedding theory  .... OFF


General Settings:
 Integral files         IntName         .... CH3BH2_cc-pcvdz_
 Hartree-Fock type      HFTyp           .... RHF
 Total Charge           Charge          ....    0
 Multiplicity           Mult            ....    1
 Number of Electrons    NEL             ....   16
 Basis Dimension        Dim             ....   61
 Nuclear Repulsion      ENuc            ....     31.8792731152 Eh

Convergence Acceleration:
 DIIS                   CNVDIIS         .... on
   Start iteration      DIISMaxIt       ....    12
   Startup error        DIISStart       ....  0.200000
   # of expansion vecs  DIISMaxEq       ....     5
   Bias factor          DIISBfac        ....   1.050
   Max. coefficient     DIISMaxC        ....  10.000
 Newton-Raphson         CNVNR           .... off
 SOSCF                  CNVSOSCF        .... on
   Start iteration      SOSCFMaxIt      ....   150
   Startup grad/error   SOSCFStart      ....  0.003300
 Level Shifting         CNVShift        .... on
   Level shift para.    LevelShift      ....    0.2500
   Turn off err/grad.   ShiftErr        ....    0.0010
 Zerner damping         CNVZerner       .... off
 Static damping         CNVDamp         .... on
   Fraction old density DampFac         ....    0.7000
   Max. Damping (<1)    DampMax         ....    0.9800
   Min. Damping (>=0)   DampMin         ....    0.0000
   Turn off err/grad.   DampErr         ....    0.1000
 Fernandez-Rico         CNVRico         .... off

SCF Procedure:
 Maximum # iterations   MaxIter         ....   125
 SCF integral mode      SCFMode         .... Direct
   Integral package                     .... LIBINT
 Reset frequency        DirectResetFreq ....    20
 Integral Threshold     Thresh          ....  1.000e-12 Eh
 Primitive CutOff       TCut            ....  1.000e-14 Eh

Convergence Tolerance:
 Convergence Check Mode ConvCheckMode   .... Total+1el-Energy
 Convergence forced     ConvForced      .... 0
 Energy Change          TolE            ....  1.000e-09 Eh
 1-El. energy change                    ....  1.000e-06 Eh
 Orbital Gradient       TolG            ....  2.000e-06
 Orbital Rotation angle TolX            ....  2.000e-06
 DIIS Error             TolErr          ....  1.000e-08


Diagonalization of the overlap matrix:
Smallest eigenvalue                        ... 9.942e-03
Time for diagonalization                   ...    0.002 sec
Threshold for overlap eigenvalues          ... 1.000e-08
Number of eigenvalues below threshold      ... 0
Time for construction of square roots      ...    0.001 sec
Total time needed                          ...    0.003 sec

-------------------
DFT GRID GENERATION
-------------------

General Integration Accuracy     IntAcc      ...  5.010
Radial Grid Type                 RadialGrid  ... Gauss-Chebyshev
Angular Grid (max. acc.)         AngularGrid ... Lebedev-434
Angular grid pruning method      GridPruning ... 3 (G Style)
Weight generation scheme         WeightScheme... Becke
Basis function cutoff            BFCut       ...    1.0000e-12
Integration weight cutoff        WCut        ...    1.0000e-14
Grids for H and He will be reduced by one unit

# of grid points (after initial pruning)     ...  54748 (   0.0 sec)
# of grid points (after weights+screening)   ...  52459 (   0.0 sec)
nearest neighbour list constructed           ...    0.0 sec
Grid point re-assignment to atoms done       ...    0.0 sec
Grid point division into batches done        ...    0.3 sec
Reduced shell lists constructed in    0.3 sec

Total number of grid points                  ...    52459
Total number of batches                      ...      824
Average number of points per batch           ...       63
Average number of grid points per atom       ...     7494
Average number of shells per batch           ...    29.34 (94.65%)
Average number of basis functions per batch  ...    57.13 (93.65%)
Average number of large shells per batch     ...    28.23 (96.23%)
Average number of large basis fcns per batch ...    54.53 (95.46%)
Maximum spatial batch extension              ...   1.71,  1.47,  1.59 au
Average spatial batch extension              ...   0.05,  0.05,  0.05 au

Time for grid setup =    0.337 sec

------------------------------
INITIAL GUESS: MODEL POTENTIAL
------------------------------
Loading Hartree-Fock densities                     ... done
Calculating cut-offs                               ... done
Setting up the integral package                    ... done
Initializing the effective Hamiltonian             ... done
Starting the Coulomb interaction                   ... done (   0.0 sec)
Reading the grid                                   ... done
Mapping shells                                     ... done
Starting the XC term evaluation                    ... done (   0.0 sec)
  promolecular density results
     # of electrons  =     15.997558789
     EX              =     -9.293749516
     EC              =     -0.931505532
     EX+EC           =    -10.225255048
Transforming the Hamiltonian                       ... done (   0.0 sec)
Diagonalizing the Hamiltonian                      ... done (   0.0 sec)
Back transforming the eigenvectors                 ... done (   0.0 sec)
Now organizing SCF variables                       ... done
                      ------------------
                      INITIAL GUESS DONE (   0.4 sec)
                      ------------------
--------------
SCF ITERATIONS
--------------
ITER       Energy         Delta-E        Max-DP      RMS-DP      [F,P]     Damp
               ***  Starting incremental Fock matrix formation  ***
  0    -65.1259135542   0.000000000000 0.07485233  0.00332724  0.2194896 0.7000
  1    -65.1755749283  -0.049661374077 0.04819829  0.00247213  0.1023841 0.7000
                               ***Turning on DIIS***
  2    -65.1933767443  -0.017801816065 0.06347896  0.00397782  0.0274104 0.0000
  3    -65.2175525703  -0.024175825926 0.03309251  0.00164880  0.0642576 0.0000
  4    -65.2263138096  -0.008761239335 0.00935768  0.00062806  0.0124209 0.0000
  5    -65.2269478380  -0.000634028415 0.00298289  0.00022228  0.0041754 0.0000
                      *** Initiating the SOSCF procedure ***
                           *** Shutting down DIIS ***
                      *** Re-Reading the Fockian *** 
                      *** Removing any level shift *** 
ITER      Energy       Delta-E        Grad      Rot      Max-DP    RMS-DP
  6    -65.22699660  -0.0000487663  0.000342  0.000342  0.001543  0.000115
               *** Restarting incremental Fock matrix formation ***
  7    -65.22699999  -0.0000033864  0.000099  0.000210  0.000345  0.000018
  8    -65.22699990   0.0000000930  0.000136  0.000122  0.000201  0.000011
  9    -65.22700012  -0.0000002192  0.000016  0.000035  0.000051  0.000002
 10    -65.22700012   0.0000000016  0.000021  0.000022  0.000031  0.000001
                  ***Gradient check signals convergence***
              ***Rediagonalizing the Fockian in SOSCF/NRSCF***

               *****************************************************
               *                     SUCCESS                       *
               *           SCF CONVERGED AFTER  11 CYCLES          *
               *****************************************************

Setting up the final grid:

General Integration Accuracy     IntAcc      ...  5.340
Radial Grid Type                 RadialGrid  ... Gauss-Chebyshev
Angular Grid (max. acc.)         AngularGrid ... Lebedev-590
Angular grid pruning method      GridPruning ... 3 (G Style)
Weight generation scheme         WeightScheme... Becke
Basis function cutoff            BFCut       ...    1.0000e-12
Integration weight cutoff        WCut        ...    1.0000e-14
Grids for H and He will be reduced by one unit

# of grid points (after initial pruning)     ...  87998 (   0.0 sec)
# of grid points (after weights+screening)   ...  84126 (   0.0 sec)
nearest neighbour list constructed           ...    0.0 sec
Grid point re-assignment to atoms done       ...    0.0 sec
Grid point division into batches done        ...    0.7 sec
Reduced shell lists constructed in    0.7 sec

Total number of grid points                  ...    84126
Total number of batches                      ...     1318
Average number of points per batch           ...       63
Average number of grid points per atom       ...    12018
Average number of shells per batch           ...    29.43 (94.92%)
Average number of basis functions per batch  ...    57.19 (93.75%)
Average number of large shells per batch     ...    28.41 (96.56%)
Average number of large basis fcns per batch ...    54.87 (95.94%)
Maximum spatial batch extension              ...   2.00,  1.26,  1.54 au
Average spatial batch extension              ...   0.04,  0.04,  0.04 au

Final grid set up in    0.7 sec
Final integration                            ... done (   0.0 sec)
Change in XC energy                          ...     0.000001137
Integrated number of electrons               ...    16.000000534
Previous integrated no of electrons          ...    16.000002229

----------------
TOTAL SCF ENERGY
----------------

Total Energy       :          -65.22699898 Eh           -1774.91688 eV

Components:
Nuclear Repulsion  :           31.87927312 Eh             867.47912 eV
Electronic Energy  :          -97.10627210 Eh           -2642.39600 eV
One Electron Energy:         -149.84035955 Eh           -4077.36347 eV
Two Electron Energy:           52.73408745 Eh            1434.96747 eV

Virial components:
Potential Energy   :         -129.78239305 Eh           -3531.55846 eV
Kinetic Energy     :           64.55539406 Eh            1756.64158 eV
Virial Ratio       :            2.01040354


DFT components:
N(Alpha)           :        8.000000267185 electrons
N(Beta)            :        8.000000267185 electrons
N(Total)           :       16.000000534369 electrons
E(X)               :       -9.603407052712 Eh       
E(C)               :       -0.955535729268 Eh       
E(XC)              :      -10.558942781980 Eh       
DFET-embed. en.    :        0.000000000000 Eh       

---------------
SCF CONVERGENCE
---------------

  Last Energy change         ...   -3.4367e-09  Tolerance :   1.0000e-09
  Last MAX-Density change    ...    1.2417e-06  Tolerance :   1.0000e-08
  Last RMS-Density change    ...    5.7688e-08  Tolerance :   1.0000e-09
  Last Orbital Gradient      ...    3.3229e-07  Tolerance :   2.0000e-06
  Last Orbital Rotation      ...    6.7156e-07  Tolerance :   2.0000e-06

             **** THE GBW FILE WAS UPDATED (CH3BH2_cc-pcvdz_.gbw) ****
             **** DENSITY FILE WAS UPDATED (CH3BH2_cc-pcvdz_.scfp) ****
             **** ENERGY FILE WAS UPDATED (CH3BH2_cc-pcvdz_.en.tmp) ****
             **** THE GBW FILE WAS UPDATED (CH3BH2_cc-pcvdz_.gbw) ****
             **** DENSITY FILE WAS UPDATED (CH3BH2_cc-pcvdz_.scfp) ****
----------------
ORBITAL ENERGIES
----------------

  NO   OCC          E(Eh)            E(eV) 
   0   2.0000      -9.771986      -265.9093 
   1   2.0000      -6.437437      -175.1716 
   2   2.0000      -0.633892       -17.2491 
   3   2.0000      -0.428125       -11.6499 
   4   2.0000      -0.370493       -10.0816 
   5   2.0000      -0.360461        -9.8087 
   6   2.0000      -0.292066        -7.9475 
   7   2.0000      -0.273476        -7.4417 
   8   0.0000      -0.088474        -2.4075 
   9   0.0000       0.053532         1.4567 
  10   0.0000       0.094258         2.5649 
  11   0.0000       0.100047         2.7224 
  12   0.0000       0.129313         3.5188 
  13   0.0000       0.160306         4.3622 
  14   0.0000       0.172491         4.6937 
  15   0.0000       0.248119         6.7517 
  16   0.0000       0.296722         8.0742 
  17   0.0000       0.305446         8.3116 
  18   0.0000       0.324909         8.8412 
  19   0.0000       0.422714        11.5026 
  20   0.0000       0.518330        14.1045 
  21   0.0000       0.539826        14.6894 
  22   0.0000       0.550322        14.9750 
  23   0.0000       0.572736        15.5849 
  24   0.0000       0.590641        16.0721 
  25   0.0000       0.633433        17.2366 
  26   0.0000       0.641846        17.4655 
  27   0.0000       0.661012        17.9871 
  28   0.0000       0.685053        18.6412 
  29   0.0000       0.922188        25.0940 
  30   0.0000       0.973749        26.4971 
  31   0.0000       1.045099        28.4386 
  32   0.0000       1.104675        30.0597 
  33   0.0000       1.184814        32.2404 
  34   0.0000       1.208714        32.8908 
  35   0.0000       1.358714        36.9725 
  36   0.0000       1.526866        41.5481 
  37   0.0000       1.538992        41.8781 
  38   0.0000       1.558178        42.4002 
  39   0.0000       1.592781        43.3418 
  40   0.0000       1.609742        43.8033 
  41   0.0000       1.687749        45.9260 
  42   0.0000       1.689445        45.9721 
  43   0.0000       1.914707        52.1018 
  44   0.0000       1.931992        52.5722 
  45   0.0000       2.008829        54.6630 
  46   0.0000       2.076388        56.5014 
  47   0.0000       2.124056        57.7985 
  48   0.0000       2.237857        60.8952 
  49   0.0000       2.273736        61.8715 
  50   0.0000       2.327844        63.3438 
  51   0.0000       2.444121        66.5079 
  52   0.0000       2.530630        68.8619 
  53   0.0000      12.794989       348.1694 
  54   0.0000      14.769819       401.9072 
  55   0.0000      15.425169       419.7402 
  56   0.0000      15.465181       420.8290 
  57   0.0000      18.935711       515.2669 
  58   0.0000      22.041688       599.7848 
  59   0.0000      22.326748       607.5417 
  60   0.0000      22.407587       609.7414 

                    ********************************
                    * MULLIKEN POPULATION ANALYSIS *
                    ********************************

-----------------------
MULLIKEN ATOMIC CHARGES
-----------------------
   0 C :   -0.149393
   1 B :   -0.100763
   2 H :    0.093313
   3 H :    0.069124
   4 H :    0.069124
   5 H :    0.009298
   6 H :    0.009298
Sum of atomic charges:   -0.0000000

--------------------------------
MULLIKEN REDUCED ORBITAL CHARGES
--------------------------------
  0 C s       :     3.070543  s :     3.070543
      pz      :     0.981476  p :     3.055300
      px      :     0.991492
      py      :     1.082332
      dz2     :     0.004737  d :     0.023550
      dxz     :     0.002269
      dyz     :     0.010535
      dx2y2   :     0.005288
      dxy     :     0.000722
  1 B s       :     3.051368  s :     3.051368
      pz      :     0.973512  p :     1.990224
      px      :     0.115007
      py      :     0.901705
      dz2     :     0.008806  d :     0.059172
      dxz     :     0.000152
      dyz     :     0.026324
      dx2y2   :     0.009993
      dxy     :     0.013898
  2 H s       :     0.875280  s :     0.875280
      pz      :     0.007555  p :     0.031407
      px      :     0.014746
      py      :     0.009107
  3 H s       :     0.900719  s :     0.900719
      pz      :     0.012777  p :     0.030157
      px      :     0.008111
      py      :     0.009269
  4 H s       :     0.900719  s :     0.900719
      pz      :     0.012777  p :     0.030157
      px      :     0.008111
      py      :     0.009269
  5 H s       :     0.978148  s :     0.978148
      pz      :     0.008108  p :     0.012555
      px      :     0.000280
      py      :     0.004167
  6 H s       :     0.978148  s :     0.978148
      pz      :     0.008108  p :     0.012555
      px      :     0.000280
      py      :     0.004167


                     *******************************
                     * LOEWDIN POPULATION ANALYSIS *
                     *******************************

----------------------
LOEWDIN ATOMIC CHARGES
----------------------
   0 C :   -0.139962
   1 B :   -0.054641
   2 H :    0.098092
   3 H :    0.060006
   4 H :    0.060006
   5 H :   -0.011750
   6 H :   -0.011750

-------------------------------
LOEWDIN REDUCED ORBITAL CHARGES
-------------------------------
  0 C s       :     2.800719  s :     2.800719
      pz      :     1.051207  p :     3.239703
      px      :     1.027846
      py      :     1.160651
      dz2     :     0.020564  d :     0.099540
      dxz     :     0.013009
      dyz     :     0.037095
      dx2y2   :     0.025524
      dxy     :     0.003349
  1 B s       :     2.813347  s :     2.813347
      pz      :     0.987728  p :     2.050347
      px      :     0.132210
      py      :     0.930408
      dz2     :     0.034117  d :     0.190947
      dxz     :     0.000341
      dyz     :     0.094469
      dx2y2   :     0.029537
      dxy     :     0.032483
  2 H s       :     0.820502  s :     0.820502
      pz      :     0.017144  p :     0.081407
      px      :     0.040426
      py      :     0.023837
  3 H s       :     0.858882  s :     0.858882
      pz      :     0.035635  p :     0.081112
      px      :     0.020712
      py      :     0.024765
  4 H s       :     0.858882  s :     0.858882
      pz      :     0.035635  p :     0.081112
      px      :     0.020712
      py      :     0.024765
  5 H s       :     0.970635  s :     0.970635
      pz      :     0.024702  p :     0.041115
      px      :     0.000856
      py      :     0.015557
  6 H s       :     0.970635  s :     0.970635
      pz      :     0.024702  p :     0.041115
      px      :     0.000856
      py      :     0.015557


                      *****************************
                      * MAYER POPULATION ANALYSIS *
                      *****************************

  NA   - Mulliken gross atomic population
  ZA   - Total nuclear charge
  QA   - Mulliken gross atomic charge
  VA   - Mayer's total valence
  BVA  - Mayer's bonded valence
  FA   - Mayer's free valence

  ATOM       NA         ZA         QA         VA         BVA        FA
  0 C      6.1494     6.0000    -0.1494     4.0078     4.0078     0.0000
  1 B      5.1008     5.0000    -0.1008     3.2916     3.2916    -0.0000
  2 H      0.9067     1.0000     0.0933     0.9832     0.9832    -0.0000
  3 H      0.9309     1.0000     0.0691     0.9760     0.9760    -0.0000
  4 H      0.9309     1.0000     0.0691     0.9760     0.9760     0.0000
  5 H      0.9907     1.0000     0.0093     0.9634     0.9634    -0.0000
  6 H      0.9907     1.0000     0.0093     0.9634     0.9634    -0.0000

  Mayer bond orders larger than 0.100000
B(  0-C ,  1-B ) :   1.2210 B(  0-C ,  2-H ) :   0.8985 B(  0-C ,  3-H ) :   0.9477 
B(  0-C ,  4-H ) :   0.9477 B(  1-B ,  5-H ) :   0.9681 B(  1-B ,  6-H ) :   0.9681 


-------
TIMINGS
-------

Total SCF time: 0 days 0 hours 0 min 2 sec 

Total time                  ....       2.986 sec
Sum of individual times     ....       2.810 sec  ( 94.1%)

Fock matrix formation       ....       1.647 sec  ( 55.2%)
  XC integration            ....       0.158 sec  (  9.6% of F)
    Basis function eval.    ....       0.052 sec  ( 33.2% of XC)
    Density eval.           ....       0.014 sec  (  8.7% of XC)
    XC-Functional eval.     ....       0.013 sec  (  8.5% of XC)
    XC-Potential eval.      ....       0.014 sec  (  8.8% of XC)
Diagonalization             ....       0.003 sec  (  0.1%)
Density matrix formation    ....       0.001 sec  (  0.0%)
Population analysis         ....       0.001 sec  (  0.0%)
Initial guess               ....       0.078 sec  (  2.6%)
Orbital Transformation      ....       0.000 sec  (  0.0%)
Orbital Orthonormalization  ....       0.000 sec  (  0.0%)
DIIS solution               ....       0.001 sec  (  0.0%)
SOSCF solution              ....       0.002 sec  (  0.1%)
Grid generation             ....       1.077 sec  ( 36.0%)

-------------------------   --------------------
FINAL SINGLE POINT ENERGY       -65.226998981334
-------------------------   --------------------


                            ***************************************
                            *     ORCA property calculations      *
                            ***************************************

                                    ---------------------
                                    Active property flags
                                    ---------------------
   (+) Dipole Moment


------------------------------------------------------------------------------
                       ORCA ELECTRIC PROPERTIES CALCULATION
------------------------------------------------------------------------------

Dipole Moment Calculation                       ... on
Quadrupole Moment Calculation                   ... off
Polarizability Calculation                      ... off
GBWName                                         ... CH3BH2_cc-pcvdz_.gbw
Electron density file                           ... CH3BH2_cc-pcvdz_.scfp
The origin for moment calculation is the CENTER OF MASS  = (-0.016481,  0.064710 -0.000000)

-------------
DIPOLE MOMENT
-------------
                                X             Y             Z
Electronic contribution:     -0.18085       0.69692      -0.00000
Nuclear contribution   :      0.24617      -1.03742       0.00000
                        -----------------------------------------
Total Dipole Moment    :      0.06532      -0.34050       0.00000
                        -----------------------------------------
Magnitude (a.u.)       :      0.34671
Magnitude (Debye)      :      0.88126



--------------------
Rotational spectrum 
--------------------
 
Rotational constants in cm-1:     3.228710     0.723532     0.660823 
Rotational constants in MHz : 96794.286037 21690.947830 19810.964189 

 Dipole components along the rotational axes: 
x,y,z [a.u.] :    -0.340419    -0.000000    -0.065727 
x,y,z [Debye]:    -0.865277    -0.000001    -0.167064 

 

Timings for individual modules:

Sum of individual times         ...        3.737 sec (=   0.062 min)
GTO integral calculation        ...        0.491 sec (=   0.008 min)  13.1 %
SCF iterations                  ...        3.246 sec (=   0.054 min)  86.9 %
                             ****ORCA TERMINATED NORMALLY****
TOTAL RUN TIME: 0 days 0 hours 0 minutes 4 seconds 46 msec
