
                                 *****************
                                 * O   R   C   A *
                                 *****************

           --- An Ab Initio, DFT and Semiempirical electronic structure package ---

                  #######################################################
                  #                        -***-                        #
                  #          Department of theory and spectroscopy      #
                  #               Directorship: Frank Neese             #
                  #        Max Planck Institute fuer Kohlenforschung    #
                  #                Kaiser Wilhelm Platz 1               #
                  #                 D-45470 Muelheim/Ruhr               #
                  #                      Germany                        #
                  #                                                     #
                  #                  All rights reserved                #
                  #                        -***-                        #
                  #######################################################


                         Program Version 4.2.1 -  RELEASE  -


 With contributions from (in alphabetic order):
   Daniel Aravena         : Magnetic Suceptibility
   Michael Atanasov       : Ab Initio Ligand Field Theory (pilot matlab implementation)
   Alexander A. Auer      : GIAO ZORA, VPT2
   Ute Becker             : Parallelization
   Giovanni Bistoni       : ED, misc. LED, open-shell LED, HFLD
   Martin Brehm           : Molecular dynamics
   Dmytro Bykov           : SCF Hessian
   Vijay G. Chilkuri      : MRCI spin determinant printing, contributions to CSF-ICE
   Dipayan Datta          : RHF DLPNO-CCSD density
   Achintya Kumar Dutta   : EOM-CC, STEOM-CC
   Dmitry Ganyushin       : Spin-Orbit,Spin-Spin,Magnetic field MRCI
   Miquel Garcia          : C-PCM Hessian, Gaussian charge scheme
   Yang Guo               : DLPNO-NEVPT2, CIM, IAO-localization
   Andreas Hansen         : Spin unrestricted coupled pair/coupled cluster methods
   Benjamin Helmich-Paris : CASSCF linear response (MC-RPA)
   Lee Huntington         : MR-EOM, pCC
   Robert Izsak           : Overlap fitted RIJCOSX, COSX-SCS-MP3, EOM
   Christian Kollmar      : KDIIS, OOCD, Brueckner-CCSD(T), CCSD density
   Simone Kossmann        : Meta GGA functionals, TD-DFT gradient, OOMP2, MP2 Hessian
   Martin Krupicka        : AUTO-CI
   Lucas Lang             : DCDCAS
   Dagmar Lenk            : GEPOL surface, SMD
   Dimitrios Liakos       : Extrapolation schemes; Compound Job, initial MDCI parallelization
   Dimitrios Manganas     : Further ROCIS development; embedding schemes
   Dimitrios Pantazis     : SARC Basis sets
   Taras Petrenko         : DFT Hessian,TD-DFT gradient, ASA, ECA, R-Raman, ABS, FL, XAS/XES, NRVS
   Peter Pinski           : DLPNO-MP2, DLPNO-MP2 Gradient
   Christoph Reimann      : Effective Core Potentials
   Marius Retegan         : Local ZFS, SOC
   Christoph Riplinger    : Optimizer, TS searches, QM/MM, DLPNO-CCSD(T), (RO)-DLPNO pert. Triples
   Tobias Risthaus        : Range-separated hybrids, TD-DFT gradient, RPA, STAB
   Michael Roemelt        : Original ROCIS implementation
   Masaaki Saitow         : Open-shell DLPNO-CCSD energy and density
   Barbara Sandhoefer     : DKH picture change effects
   Avijit Sen             : IP-ROCIS
   Kantharuban Sivalingam : CASSCF convergence, NEVPT2, FIC-MRCI
   Bernardo de Souza      : ESD, SOC TD-DFT
   Georgi Stoychev        : AutoAux, RI-MP2 NMR
   Willem Van den Heuvel  : Paramagnetic NMR
   Boris Wezisla          : Elementary symmetry handling
   Frank Wennmohs         : Technical directorship


 We gratefully acknowledge several colleagues who have allowed us to
 interface, adapt or use parts of their codes:
   Stefan Grimme, W. Hujo, H. Kruse,             : VdW corrections, initial TS optimization,
                  C. Bannwarth                     DFT functionals, gCP, sTDA/sTD-DF
   Ed Valeev, F. Pavosevic, A. Kumar             : LibInt (2-el integral package), F12 methods
   Garnet Chan, S. Sharma, J. Yang, R. Olivares  : DMRG
   Ulf Ekstrom                                   : XCFun DFT Library
   Mihaly Kallay                                 : mrcc  (arbitrary order and MRCC methods)
   Andreas Klamt, Michael Diedenhofen            : otool_cosmo (COSMO solvation model)
   Jiri Pittner, Ondrej Demel                    : Mk-CCSD
   Frank Weinhold                                : gennbo (NPA and NBO analysis)
   Christopher J. Cramer and Donald G. Truhlar   : smd solvation model
   Lars Goerigk                                  : TD-DFT with DH, B97 family of functionals
   V. Asgeirsson, H. Jonsson                     : NEB implementation
   FAccTs GmbH                                   : IRC, NEB, NEB-TS, Multilevel, MM, QM/MM, CI optimization
   S Lehtola, MJT Oliveira, MAL Marques          : LibXC Library


 Your calculation uses the libint2 library for the computation of 2-el integrals
 For citations please refer to: http://libint.valeyev.net

 Your ORCA version has been built with support for libXC version: 4.2.3
 For citations please refer to: https://tddft.org/programs/libxc/

 This ORCA versions uses:
   CBLAS   interface :  Fast vector & matrix operations
   LAPACKE interface :  Fast linear algebra routines
   SCALAPACK package :  Parallel linear algebra routines


----- Orbital basis set information -----
Your calculation utilizes the basis: cc-pV5Z 
    H, B-Ne : Obtained from the ccRepo (grant-hill.group.shef.ac.uk/ccrepo) Feb. 2017
              T. H. Dunning, Jr., J. Chem. Phys. 90, 1007 (1989)
         He : Obtained from the ccRepo (grant-hill.group.shef.ac.uk/ccrepo) Feb. 2017
              D. E. Woon, T. H. Dunning, Jr., J. Chem. Phys. 100, 2975 (1994)
  Li-Be, Mg : Obtained from the ccRepo (grant-hill.group.shef.ac.uk/ccrepo) Feb. 2017
              B. P. Prascher, D. E. Woon, K. A. Peterson, T. H. Dunning, Jr., A. K. Wilson, Theor. Chem. Acc. 128, 69 (2011)
         Na : Obtained from the Peterson Research Group Website (tyr0.chem.wsu.edu/~kipeters) Feb. 2017
              B. P. Prascher, D. E. Woon, K. A. Peterson, T. H. Dunning, Jr., A. K. Wilson, Theor. Chem. Acc. 128, 69 (2011)
      Al-Ar : Obtained from the ccRepo (grant-hill.group.shef.ac.uk/ccrepo) Feb. 2017
              D. E. Woon, T. H. Dunning, Jr., J. Chem. Phys. 98, 1358 (1993)
         Ca : Obtained from the Peterson Research Group Website (tyr0.chem.wsu.edu/~kipeters) Feb. 2017
              J. Koput, K. A. Peterson, J. Phys. Chem. 106, 9595 (2002)
      Sc-Zn : Obtained from the ccRepo (grant-hill.group.shef.ac.uk/ccrepo) Feb. 2017
              N. B. Balabanov, K. A. Peterson, J. Chem. Phys. 123, 064107 (2005)
              N. B. Balabanov, K. A. Peterson, J. Chem. Phys. 125, 074110 (2006)
      Ga-Kr : Obtained from the ccRepo (grant-hill.group.shef.ac.uk/ccrepo) Feb. 2017
              A. K. Wilson, D. E. Woon, K. A. Peterson, T. H. Dunning, Jr., J. Chem. Phys. 110, 7667 (1999)

================================================================================
                                        WARNINGS
                       Please study these warnings very carefully!
================================================================================


INFO   : the flag for use of LIBINT has been found!

================================================================================
                                       INPUT FILE
================================================================================
NAME = CO2_cc-pv5z_.inp
|  1> ! LDA cc-pv5z nori grid5 finalgrid6 verytightscf
|  2> %Pal NProcs 18 End
|  3> 
|  4> *xyz 0 1
|  5> C 0.0000 0.0000 0.0000
|  6> O 0.0000 0.0000 1.1621
|  7> O 0.0000 0.0000 -1.1621
|  8> **                         ****END OF INPUT****
================================================================================

                       ****************************
                       * Single Point Calculation *
                       ****************************

---------------------------------
CARTESIAN COORDINATES (ANGSTROEM)
---------------------------------
  C      0.000000    0.000000    0.000000
  O      0.000000    0.000000    1.162100
  O      0.000000    0.000000   -1.162100

----------------------------
CARTESIAN COORDINATES (A.U.)
----------------------------
  NO LB      ZA    FRAG     MASS         X           Y           Z
   0 C     6.0000    0    12.011    0.000000    0.000000    0.000000
   1 O     8.0000    0    15.999    0.000000    0.000000    2.196051
   2 O     8.0000    0    15.999    0.000000    0.000000   -2.196051

--------------------------------
INTERNAL COORDINATES (ANGSTROEM)
--------------------------------
 C      0   0   0     0.000000000000     0.00000000     0.00000000
 O      1   0   0     1.162100000000     0.00000000     0.00000000
 O      1   2   0     1.162100000000   180.00000000     0.00000000

---------------------------
INTERNAL COORDINATES (A.U.)
---------------------------
 C      0   0   0     0.000000000000     0.00000000     0.00000000
 O      1   0   0     2.196050740230     0.00000000     0.00000000
 O      1   2   0     2.196050740230   180.00000000     0.00000000

---------------------
BASIS SET INFORMATION
---------------------
There are 2 groups of distinct atoms

 Group   1 Type C   : 24s8p4d3f2g1h contracted to 6s5p4d3f2g1h pattern {10101111/41111/1111/111/11/1}
 Group   2 Type O   : 24s8p4d3f2g1h contracted to 6s5p4d3f2g1h pattern {10101111/41111/1111/111/11/1}

Atom   0C    basis set group =>   1
Atom   1O    basis set group =>   2
Atom   2O    basis set group =>   2


           ************************************************************
           *        Program running with 18 parallel MPI-processes    *
           *              working on a common directory               *
           ************************************************************
------------------------------------------------------------------------------
                           ORCA GTO INTEGRAL CALCULATION
------------------------------------------------------------------------------

                         BASIS SET STATISTICS AND STARTUP INFO

 # of primitive gaussian shells          ...  126
 # of primitive gaussian functions       ...  354
 # of contracted shells                  ...   63
 # of contracted basis functions         ...  273
 Highest angular momentum                ...    5
 Maximum contraction depth               ...   10
 Integral package used                   ... LIBINT
 Integral threshhold            Thresh   ...  1.000e-12
 Primitive cut-off              TCut     ...  1.000e-14


------------------------------ INTEGRAL EVALUATION ----------------------------


 * One electron integrals 
 Pre-screening matrix                    ... done
 Shell pair data                         ... done (   0.000 sec)



           ************************************************************
           *        Program running with 18 parallel MPI-processes    *
           *              working on a common directory               *
           ************************************************************
-------------------------------------------------------------------------------
                                 ORCA SCF
-------------------------------------------------------------------------------

------------
SCF SETTINGS
------------
Hamiltonian:
 Density Functional     Method          .... DFT(GTOs)
 Exchange Functional    Exchange        .... Slater
   X-Alpha parameter    XAlpha          ....  0.666667
 Correlation Functional Correlation     .... VWN-5
 Gradients option       PostSCFGGA      .... off
   Density functional embedding theory  .... OFF


General Settings:
 Integral files         IntName         .... CO2_cc-pv5z_
 Hartree-Fock type      HFTyp           .... RHF
 Total Charge           Charge          ....    0
 Multiplicity           Mult            ....    1
 Number of Electrons    NEL             ....   22
 Basis Dimension        Dim             ....  273
 Nuclear Repulsion      ENuc            ....     58.2864492405 Eh

Convergence Acceleration:
 DIIS                   CNVDIIS         .... on
   Start iteration      DIISMaxIt       ....    12
   Startup error        DIISStart       ....  0.200000
   # of expansion vecs  DIISMaxEq       ....     5
   Bias factor          DIISBfac        ....   1.050
   Max. coefficient     DIISMaxC        ....  10.000
 Newton-Raphson         CNVNR           .... off
 SOSCF                  CNVSOSCF        .... on
   Start iteration      SOSCFMaxIt      ....   150
   Startup grad/error   SOSCFStart      ....  0.003300
 Level Shifting         CNVShift        .... on
   Level shift para.    LevelShift      ....    0.2500
   Turn off err/grad.   ShiftErr        ....    0.0010
 Zerner damping         CNVZerner       .... off
 Static damping         CNVDamp         .... on
   Fraction old density DampFac         ....    0.7000
   Max. Damping (<1)    DampMax         ....    0.9800
   Min. Damping (>=0)   DampMin         ....    0.0000
   Turn off err/grad.   DampErr         ....    0.1000
 Fernandez-Rico         CNVRico         .... off

SCF Procedure:
 Maximum # iterations   MaxIter         ....   125
 SCF integral mode      SCFMode         .... Direct
   Integral package                     .... LIBINT
 Reset frequency        DirectResetFreq ....    20
 Integral Threshold     Thresh          ....  1.000e-12 Eh
 Primitive CutOff       TCut            ....  1.000e-14 Eh

Convergence Tolerance:
 Convergence Check Mode ConvCheckMode   .... Total+1el-Energy
 Convergence forced     ConvForced      .... 0
 Energy Change          TolE            ....  1.000e-09 Eh
 1-El. energy change                    ....  1.000e-06 Eh
 Orbital Gradient       TolG            ....  2.000e-06
 Orbital Rotation angle TolX            ....  2.000e-06
 DIIS Error             TolErr          ....  1.000e-08


Diagonalization of the overlap matrix:
Smallest eigenvalue                        ... 3.280e-05
Time for diagonalization                   ...    0.014 sec
Threshold for overlap eigenvalues          ... 1.000e-08
Number of eigenvalues below threshold      ... 0
Time for construction of square roots      ...    0.008 sec
Total time needed                          ...    0.023 sec

-------------------
DFT GRID GENERATION
-------------------

General Integration Accuracy     IntAcc      ...  5.010
Radial Grid Type                 RadialGrid  ... Gauss-Chebyshev
Angular Grid (max. acc.)         AngularGrid ... Lebedev-434
Angular grid pruning method      GridPruning ... 3 (G Style)
Weight generation scheme         WeightScheme... Becke
Basis function cutoff            BFCut       ...    1.0000e-12
Integration weight cutoff        WCut        ...    1.0000e-14
Grids for H and He will be reduced by one unit

# of grid points (after initial pruning)     ...  32382 (   0.0 sec)
# of grid points (after weights+screening)   ...  31994 (   0.0 sec)
nearest neighbour list constructed           ...    0.0 sec
Grid point re-assignment to atoms done       ...    0.0 sec
Grid point division into batches done        ...    0.2 sec
Reduced shell lists constructed in    0.2 sec

Total number of grid points                  ...    31994
Total number of batches                      ...      501
Average number of points per batch           ...       63
Average number of grid points per atom       ...    10665
Average number of shells per batch           ...    30.41 (48.28%)
Average number of basis functions per batch  ...   129.45 (47.42%)
Average number of large shells per batch     ...    23.03 (75.74%)
Average number of large basis fcns per batch ...    94.90 (73.31%)
Maximum spatial batch extension              ...  27.58, 27.58,  2.19 au
Average spatial batch extension              ...   0.40,  0.37,  0.12 au

Time for grid setup =    0.311 sec

------------------------------
INITIAL GUESS: MODEL POTENTIAL
------------------------------
Loading Hartree-Fock densities                     ... done
Calculating cut-offs                               ... done
Setting up the integral package                    ... done
Initializing the effective Hamiltonian             ... done
Starting the Coulomb interaction                   ... done (   0.0 sec)
Reading the grid                                   ... done
Mapping shells                                     ... done
Starting the XC term evaluation                    ... done (   0.0 sec)
  promolecular density results
     # of electrons  =     21.999994215
     EX              =    -19.410232655
     EC              =     -1.510707646
     EX+EC           =    -20.920940300
Transforming the Hamiltonian                       ... done (   0.0 sec)
Diagonalizing the Hamiltonian                      ... done (   0.0 sec)
Back transforming the eigenvectors                 ... done (   0.0 sec)
Now organizing SCF variables                       ... done
                      ------------------
                      INITIAL GUESS DONE (   0.4 sec)
                      ------------------
--------------
SCF ITERATIONS
--------------
ITER       Energy         Delta-E        Max-DP      RMS-DP      [F,P]     Damp
               ***  Starting incremental Fock matrix formation  ***
  0   -187.1818555444   0.000000000000 0.02364616  0.00043811  0.2165118 0.7000
  1   -187.2376108086  -0.055755264287 0.01066922  0.00022060  0.0617080 0.7000
                               ***Turning on DIIS***
  2   -187.2496873612  -0.012076552601 0.01073613  0.00025007  0.0249871 0.0000
  3   -187.2838205541  -0.034133192816 0.00761410  0.00016264  0.0271255 0.0000
  4   -187.2846180276  -0.000797473562 0.00509924  0.00007271  0.0241127 0.0000
  5   -187.2858224696  -0.001204442032 0.00118134  0.00001901  0.0052101 0.0000
                      *** Initiating the SOSCF procedure ***
                           *** Shutting down DIIS ***
                      *** Re-Reading the Fockian *** 
                      *** Removing any level shift *** 
ITER      Energy       Delta-E        Grad      Rot      Max-DP    RMS-DP
  6   -187.28589295  -0.0000704766  0.000259  0.000259  0.000266  0.000004
               *** Restarting incremental Fock matrix formation ***
  7   -187.28589721  -0.0000042673  0.000251  0.000552  0.000209  0.000004
  8   -187.28589592   0.0000012982  0.000515  0.000334  0.000137  0.000002
  9   -187.28589754  -0.0000016277  0.000005  0.000004  0.000007  0.000000
 10   -187.28589754  -0.0000000003  0.000002  0.000002  0.000001  0.000000
 11   -187.28589754  -0.0000000001  0.000001  0.000001  0.000001  0.000000
                 **** Energy Check signals convergence ****
              ***Rediagonalizing the Fockian in SOSCF/NRSCF***

               *****************************************************
               *                     SUCCESS                       *
               *           SCF CONVERGED AFTER  12 CYCLES          *
               *****************************************************

Setting up the final grid:

General Integration Accuracy     IntAcc      ...  5.340
Radial Grid Type                 RadialGrid  ... Gauss-Chebyshev
Angular Grid (max. acc.)         AngularGrid ... Lebedev-590
Angular grid pruning method      GridPruning ... 3 (G Style)
Weight generation scheme         WeightScheme... Becke
Basis function cutoff            BFCut       ...    1.0000e-12
Integration weight cutoff        WCut        ...    1.0000e-14
Grids for H and He will be reduced by one unit

# of grid points (after initial pruning)     ...  49704 (   0.0 sec)
# of grid points (after weights+screening)   ...  49052 (   0.0 sec)
nearest neighbour list constructed           ...    0.0 sec
Grid point re-assignment to atoms done       ...    0.0 sec
Grid point division into batches done        ...    0.6 sec
Reduced shell lists constructed in    0.6 sec

Total number of grid points                  ...    49052
Total number of batches                      ...      768
Average number of points per batch           ...       63
Average number of grid points per atom       ...    16351
Average number of shells per batch           ...    27.11 (43.04%)
Average number of basis functions per batch  ...   114.43 (41.92%)
Average number of large shells per batch     ...    19.86 (73.26%)
Average number of large basis fcns per batch ...    79.05 (69.08%)
Maximum spatial batch extension              ...  23.52, 23.52,  2.17 au
Average spatial batch extension              ...   0.31,  0.31,  0.11 au

Final grid set up in    0.6 sec
Final integration                            ... done (   0.1 sec)
Change in XC energy                          ...    -0.000002385
Integrated number of electrons               ...    21.999998702
Previous integrated no of electrons          ...    21.999995511

----------------
TOTAL SCF ENERGY
----------------

Total Energy       :         -187.28589993 Eh           -5096.30843 eV

Components:
Nuclear Repulsion  :           58.28644924 Eh            1586.05492 eV
Electronic Energy  :         -245.57234917 Eh           -6682.36335 eV
One Electron Energy:         -372.61719877 Eh          -10139.42946 eV
Two Electron Energy:          127.04484960 Eh            3457.06611 eV

Virial components:
Potential Energy   :         -373.54654168 Eh          -10164.71816 eV
Kinetic Energy     :          186.26064176 Eh            5068.40974 eV
Virial Ratio       :            2.00550443


DFT components:
N(Alpha)           :       10.999999351207 electrons
N(Beta)            :       10.999999351207 electrons
N(Total)           :       21.999998702414 electrons
E(X)               :      -19.565796441673 Eh       
E(C)               :       -1.520136355255 Eh       
E(XC)              :      -21.085932796927 Eh       
DFET-embed. en.    :        0.000000000000 Eh       

---------------
SCF CONVERGENCE
---------------

  Last Energy change         ...   -2.1885e-12  Tolerance :   1.0000e-09
  Last MAX-Density change    ...    2.0658e-07  Tolerance :   1.0000e-08
  Last RMS-Density change    ...    2.6723e-09  Tolerance :   1.0000e-09
  Last Orbital Gradient      ...    2.1293e-07  Tolerance :   2.0000e-06
  Last Orbital Rotation      ...    1.6075e-07  Tolerance :   2.0000e-06

             **** THE GBW FILE WAS UPDATED (CO2_cc-pv5z_.gbw) ****
             **** DENSITY FILE WAS UPDATED (CO2_cc-pv5z_.scfp) ****
             **** ENERGY FILE WAS UPDATED (CO2_cc-pv5z_.en.tmp) ****
             **** THE GBW FILE WAS UPDATED (CO2_cc-pv5z_.gbw) ****
             **** DENSITY FILE WAS UPDATED (CO2_cc-pv5z_.scfp) ****
----------------
ORBITAL ENERGIES
----------------

  NO   OCC          E(Eh)            E(eV) 
   0   2.0000     -18.690470      -508.5935 
   1   2.0000     -18.690468      -508.5935 
   2   2.0000      -9.963370      -271.1171 
   3   2.0000      -1.070167       -29.1207 
   4   2.0000      -1.035102       -28.1665 
   5   2.0000      -0.508134       -13.8270 
   6   2.0000      -0.478097       -13.0097 
   7   2.0000      -0.478097       -13.0097 
   8   2.0000      -0.471947       -12.8423 
   9   2.0000      -0.342290        -9.3142 
  10   2.0000      -0.342290        -9.3142 
  11   0.0000      -0.023132        -0.6295 
  12   0.0000      -0.023132        -0.6295 
  13   0.0000      -0.020573        -0.5598 
  14   0.0000       0.094703         2.5770 
  15   0.0000       0.094703         2.5770 
  16   0.0000       0.103143         2.8067 
  17   0.0000       0.180644         4.9156 
  18   0.0000       0.229762         6.2521 
  19   0.0000       0.239564         6.5189 
  20   0.0000       0.239564         6.5189 
  21   0.0000       0.270639         7.3645 
  22   0.0000       0.310547         8.4504 
  23   0.0000       0.310547         8.4504 
  24   0.0000       0.382776        10.4159 
  25   0.0000       0.382776        10.4159 
  26   0.0000       0.536959        14.6114 
  27   0.0000       0.547692        14.9035 
  28   0.0000       0.547692        14.9035 
  29   0.0000       0.575635        15.6638 
  30   0.0000       0.659703        17.9514 
  31   0.0000       0.659703        17.9514 
  32   0.0000       0.702481        19.1155 
  33   0.0000       0.740000        20.1364 
  34   0.0000       0.740000        20.1364 
  35   0.0000       0.801753        21.8168 
  36   0.0000       0.838287        22.8109 
  37   0.0000       0.945230        25.7210 
  38   0.0000       0.983950        26.7746 
  39   0.0000       0.983950        26.7746 
  40   0.0000       0.988829        26.9074 
  41   0.0000       0.988829        26.9074 
  42   0.0000       1.078509        29.3477 
  43   0.0000       1.078509        29.3477 
  44   0.0000       1.163069        31.6487 
  45   0.0000       1.163069        31.6487 
  46   0.0000       1.230023        33.4706 
  47   0.0000       1.265060        34.4240 
  48   0.0000       1.265060        34.4240 
  49   0.0000       1.371495        37.3203 
  50   0.0000       1.371495        37.3203 
  51   0.0000       1.442028        39.2396 
  52   0.0000       1.442028        39.2396 
  53   0.0000       1.472566        40.0706 
  54   0.0000       1.528318        41.5877 
  55   0.0000       1.528318        41.5877 
  56   0.0000       1.630910        44.3793 
  57   0.0000       1.689630        45.9772 
  58   0.0000       1.689630        45.9772 
  59   0.0000       1.762350        47.9560 
  60   0.0000       1.825653        49.6786 
  61   0.0000       1.945850        52.9493 
  62   0.0000       1.945850        52.9493 
  63   0.0000       2.011349        54.7316 
  64   0.0000       2.011349        54.7316 
  65   0.0000       2.265766        61.6546 
  66   0.0000       2.265766        61.6546 
  67   0.0000       2.381397        64.8011 
  68   0.0000       2.467792        67.1520 
  69   0.0000       2.467792        67.1520 
  70   0.0000       2.527458        68.7756 
  71   0.0000       2.527458        68.7756 
  72   0.0000       2.530464        68.8574 
  73   0.0000       2.530464        68.8574 
  74   0.0000       2.568235        69.8852 
  75   0.0000       2.648712        72.0751 
  76   0.0000       2.648712        72.0751 
  77   0.0000       2.681754        72.9742 
  78   0.0000       2.681754        72.9742 
  79   0.0000       2.893506        78.7363 
  80   0.0000       2.979506        81.0765 
  81   0.0000       2.979506        81.0765 
  82   0.0000       2.982446        81.1565 
  83   0.0000       2.982446        81.1565 
  84   0.0000       2.989773        81.3559 
  85   0.0000       3.100575        84.3709 
  86   0.0000       3.100575        84.3709 
  87   0.0000       3.204634        87.2025 
  88   0.0000       3.299383        89.7808 
  89   0.0000       3.385831        92.1332 
  90   0.0000       3.385831        92.1332 
  91   0.0000       3.410188        92.7959 
  92   0.0000       3.410188        92.7959 
  93   0.0000       3.415139        92.9306 
  94   0.0000       3.415139        92.9306 
  95   0.0000       3.494126        95.0800 
  96   0.0000       3.805873       103.5631 
  97   0.0000       3.805873       103.5631 
  98   0.0000       3.818173       103.8978 
  99   0.0000       3.818173       103.8978 
 100   0.0000       3.869805       105.3028 
 101   0.0000       3.869805       105.3028 
 102   0.0000       3.942294       107.2753 
 103   0.0000       3.942294       107.2753 
 104   0.0000       3.996744       108.7569 
 105   0.0000       4.102666       111.6392 
 106   0.0000       4.102666       111.6392 
 107   0.0000       4.308834       117.2493 
 108   0.0000       4.365157       118.7820 
 109   0.0000       4.365157       118.7820 
 110   0.0000       4.614328       125.5623 
 111   0.0000       4.614329       125.5623 
 112   0.0000       4.939093       134.3995 
 113   0.0000       5.124577       139.4468 
 114   0.0000       5.400447       146.9536 
 115   0.0000       5.400449       146.9537 
 116   0.0000       5.463457       148.6682 
 117   0.0000       5.463457       148.6682 
 118   0.0000       5.571329       151.6036 
 119   0.0000       5.571332       151.6037 
 120   0.0000       5.630207       153.2057 
 121   0.0000       5.630207       153.2057 
 122   0.0000       6.218121       169.2037 
 123   0.0000       6.218121       169.2037 
 124   0.0000       6.244549       169.9228 
 125   0.0000       6.244549       169.9228 
 126   0.0000       6.275836       170.7742 
 127   0.0000       6.294211       171.2742 
 128   0.0000       6.294211       171.2742 
 129   0.0000       6.378998       173.5814 
 130   0.0000       6.548949       178.2060 
 131   0.0000       6.548949       178.2060 
 132   0.0000       6.583664       179.1506 
 133   0.0000       6.583664       179.1506 
 134   0.0000       6.683763       181.8744 
 135   0.0000       6.683764       181.8745 
 136   0.0000       6.757333       183.8764 
 137   0.0000       6.757333       183.8764 
 138   0.0000       6.819363       185.5643 
 139   0.0000       6.819365       185.5644 
 140   0.0000       6.839198       186.1040 
 141   0.0000       7.017241       190.9488 
 142   0.0000       7.056258       192.0105 
 143   0.0000       7.056259       192.0106 
 144   0.0000       7.115662       193.6270 
 145   0.0000       7.115662       193.6270 
 146   0.0000       7.122017       193.7999 
 147   0.0000       7.140409       194.3004 
 148   0.0000       7.140409       194.3004 
 149   0.0000       7.227948       196.6825 
 150   0.0000       7.227948       196.6825 
 151   0.0000       7.273560       197.9236 
 152   0.0000       7.418433       201.8658 
 153   0.0000       7.418434       201.8658 
 154   0.0000       7.736762       210.5280 
 155   0.0000       7.736764       210.5281 
 156   0.0000       8.170310       222.3254 
 157   0.0000       8.201190       223.1657 
 158   0.0000       8.201190       223.1657 
 159   0.0000       8.347591       227.1495 
 160   0.0000       8.347591       227.1495 
 161   0.0000       8.484830       230.8840 
 162   0.0000       8.628747       234.8001 
 163   0.0000       8.628747       234.8001 
 164   0.0000       8.634900       234.9676 
 165   0.0000       8.634903       234.9677 
 166   0.0000       9.124527       248.2910 
 167   0.0000       9.124528       248.2910 
 168   0.0000       9.349296       254.4073 
 169   0.0000       9.349296       254.4073 
 170   0.0000       9.384371       255.3617 
 171   0.0000       9.384371       255.3617 
 172   0.0000       9.387001       255.4333 
 173   0.0000       9.387001       255.4333 
 174   0.0000       9.413111       256.1438 
 175   0.0000       9.413111       256.1438 
 176   0.0000       9.452559       257.2172 
 177   0.0000       9.452559       257.2172 
 178   0.0000       9.887939       269.0645 
 179   0.0000       9.998260       272.0665 
 180   0.0000       9.998261       272.0665 
 181   0.0000      10.047501       273.4064 
 182   0.0000      10.306478       280.4535 
 183   0.0000      10.306478       280.4535 
 184   0.0000      10.504003       285.8284 
 185   0.0000      10.547713       287.0179 
 186   0.0000      10.547713       287.0179 
 187   0.0000      11.031504       300.1825 
 188   0.0000      11.224574       305.4362 
 189   0.0000      11.224576       305.4362 
 190   0.0000      11.350424       308.8607 
 191   0.0000      11.350424       308.8607 
 192   0.0000      11.409272       310.4621 
 193   0.0000      12.213166       332.3371 
 194   0.0000      12.858982       349.9107 
 195   0.0000      12.858982       349.9107 
 196   0.0000      13.056093       355.2743 
 197   0.0000      13.056093       355.2743 
 198   0.0000      13.543657       368.5417 
 199   0.0000      13.543657       368.5417 
 200   0.0000      13.550879       368.7382 
 201   0.0000      13.550879       368.7382 
 202   0.0000      13.554126       368.8265 
 203   0.0000      13.554128       368.8266 
 204   0.0000      13.659965       371.7065 
 205   0.0000      13.759330       374.4104 
 206   0.0000      13.759333       374.4105 
 207   0.0000      13.927093       378.9755 
 208   0.0000      13.927093       378.9755 
 209   0.0000      14.881208       404.9383 
 210   0.0000      14.881208       404.9383 
 211   0.0000      15.260453       415.2580 
 212   0.0000      15.260453       415.2580 
 213   0.0000      15.310928       416.6315 
 214   0.0000      15.412128       419.3853 
 215   0.0000      15.412130       419.3854 
 216   0.0000      15.679188       426.6524 
 217   0.0000      15.679188       426.6524 
 218   0.0000      15.934953       433.6121 
 219   0.0000      15.934953       433.6121 
 220   0.0000      15.940679       433.7679 
 221   0.0000      15.940683       433.7680 
 222   0.0000      16.039291       436.4513 
 223   0.0000      16.435910       447.2438 
 224   0.0000      16.879957       459.3270 
 225   0.0000      16.879957       459.3270 
 226   0.0000      16.940179       460.9657 
 227   0.0000      17.688131       481.3185 
 228   0.0000      17.688210       481.3207 
 229   0.0000      17.691798       481.4183 
 230   0.0000      17.691878       481.4205 
 231   0.0000      17.938472       488.1306 
 232   0.0000      17.938472       488.1306 
 233   0.0000      17.972108       489.0459 
 234   0.0000      17.972108       489.0459 
 235   0.0000      18.172717       494.5048 
 236   0.0000      18.172717       494.5048 
 237   0.0000      18.207514       495.4516 
 238   0.0000      18.207514       495.4516 
 239   0.0000      18.319629       498.5024 
 240   0.0000      18.403727       500.7909 
 241   0.0000      18.403730       500.7910 
 242   0.0000      18.441325       501.8140 
 243   0.0000      18.441335       501.8142 
 244   0.0000      18.630668       506.9663 
 245   0.0000      18.630668       506.9663 
 246   0.0000      18.795077       511.4400 
 247   0.0000      18.803289       511.6635 
 248   0.0000      18.803291       511.6636 
 249   0.0000      18.903394       514.3875 
 250   0.0000      18.903394       514.3875 
 251   0.0000      19.079242       519.1726 
 252   0.0000      20.036252       545.2141 
 253   0.0000      20.036257       545.2143 
 254   0.0000      20.993465       571.2612 
 255   0.0000      20.993465       571.2612 
 256   0.0000      21.012594       571.7818 
 257   0.0000      21.012594       571.7818 
 258   0.0000      21.086742       573.7994 
 259   0.0000      21.086788       573.8007 
 260   0.0000      21.408275       582.5488 
 261   0.0000      21.483598       584.5984 
 262   0.0000      21.483644       584.5997 
 263   0.0000      22.501624       612.3003 
 264   0.0000      22.501624       612.3003 
 265   0.0000      22.734740       618.6437 
 266   0.0000      22.906336       623.3131 
 267   0.0000      22.906336       623.3131 
 268   0.0000      23.647162       643.4720 
 269   0.0000      24.475489       666.0119 
 270   0.0000      38.109500      1037.0122 
 271   0.0000      61.558063      1675.0800 
 272   0.0000      62.719382      1706.6811 

                    ********************************
                    * MULLIKEN POPULATION ANALYSIS *
                    ********************************

-----------------------
MULLIKEN ATOMIC CHARGES
-----------------------
   0 C :    0.574382
   1 O :   -0.287191
   2 O :   -0.287191
Sum of atomic charges:   -0.0000000

--------------------------------
MULLIKEN REDUCED ORBITAL CHARGES
--------------------------------
  0 C s       :     2.767314  s :     2.767314
      pz      :     0.726624  p :     2.362453
      px      :     0.817915
      py      :     0.817915
      dz2     :     0.091679  d :     0.258782
      dxz     :     0.083552
      dyz     :     0.083552
      dx2y2   :     0.000000
      dxy     :     0.000000
      f0      :     0.007619  f :     0.032516
      f+1     :     0.012449
      f-1     :     0.012449
      f+2     :    -0.000000
      f-2     :    -0.000000
      f+3     :     0.000000
      f-3     :     0.000000
      g0      :     0.002840  g :     0.003321
      g+1     :     0.000240
      g-1     :     0.000240
      g+2     :    -0.000000
      g-2     :     0.000000
      g+3     :    -0.000000
      g-3     :    -0.000000
      g+4     :     0.000000
      g-4     :     0.000000
      h0      :     0.000615  h :     0.001232
      h+1     :     0.000309
      h-1     :     0.000309
      h+2     :    -0.000000
      h-2     :    -0.000000
      h+3     :    -0.000000
      h-3     :    -0.000000
      h+4     :     0.000000
      h-4     :     0.000000
      h+5     :     0.000000
      h-5     :     0.000000
  1 O s       :     3.751171  s :     3.751171
      pz      :     1.424302  p :     4.478985
      px      :     1.527342
      py      :     1.527342
      dz2     :     0.024086  d :     0.050727
      dxz     :     0.013320
      dyz     :     0.013320
      dx2y2   :     0.000000
      dxy     :     0.000000
      f0      :     0.001925  f :     0.005601
      f+1     :     0.001838
      f-1     :     0.001838
      f+2     :    -0.000000
      f-2     :    -0.000000
      f+3     :     0.000000
      f-3     :     0.000000
      g0      :     0.000160  g :     0.000671
      g+1     :     0.000255
      g-1     :     0.000255
      g+2     :    -0.000000
      g-2     :    -0.000000
      g+3     :     0.000000
      g-3     :     0.000000
      g+4     :     0.000000
      g-4     :     0.000000
      h0      :     0.000010  h :     0.000036
      h+1     :     0.000013
      h-1     :     0.000013
      h+2     :    -0.000000
      h-2     :    -0.000000
      h+3     :    -0.000000
      h-3     :    -0.000000
      h+4     :     0.000000
      h-4     :     0.000000
      h+5     :     0.000000
      h-5     :     0.000000
  2 O s       :     3.751171  s :     3.751171
      pz      :     1.424302  p :     4.478985
      px      :     1.527342
      py      :     1.527342
      dz2     :     0.024086  d :     0.050727
      dxz     :     0.013320
      dyz     :     0.013320
      dx2y2   :     0.000000
      dxy     :     0.000000
      f0      :     0.001925  f :     0.005601
      f+1     :     0.001838
      f-1     :     0.001838
      f+2     :    -0.000000
      f-2     :     0.000000
      f+3     :     0.000000
      f-3     :     0.000000
      g0      :     0.000160  g :     0.000671
      g+1     :     0.000255
      g-1     :     0.000255
      g+2     :    -0.000000
      g-2     :    -0.000000
      g+3     :     0.000000
      g-3     :     0.000000
      g+4     :     0.000000
      g-4     :     0.000000
      h0      :     0.000010  h :     0.000036
      h+1     :     0.000013
      h-1     :     0.000013
      h+2     :    -0.000000
      h-2     :    -0.000000
      h+3     :    -0.000000
      h-3     :    -0.000000
      h+4     :     0.000000
      h-4     :     0.000000
      h+5     :     0.000000
      h-5     :     0.000000


                     *******************************
                     * LOEWDIN POPULATION ANALYSIS *
                     *******************************

----------------------
LOEWDIN ATOMIC CHARGES
----------------------
   0 C :   -1.126877
   1 O :    0.563439
   2 O :    0.563439

-------------------------------
LOEWDIN REDUCED ORBITAL CHARGES
-------------------------------
  0 C s       :     2.666440  s :     2.666440
      pz      :     1.230155  p :     2.711646
      px      :     0.740746
      py      :     0.740746
      dz2     :     0.390924  d :     1.213764
      dxz     :     0.411420
      dyz     :     0.411420
      dx2y2   :     0.000000
      dxy     :     0.000000
      f0      :     0.146095  f :     0.317602
      f+1     :     0.085753
      f-1     :     0.085753
      f+2     :     0.000000
      f-2     :     0.000000
      f+3     :     0.000000
      f-3     :     0.000000
      g0      :     0.031144  g :     0.193370
      g+1     :     0.081113
      g-1     :     0.081113
      g+2     :     0.000000
      g-2     :     0.000000
      g+3     :     0.000000
      g-3     :     0.000000
      g+4     :     0.000000
      g-4     :     0.000000
      h0      :     0.006916  h :     0.024056
      h+1     :     0.008570
      h-1     :     0.008570
      h+2     :     0.000000
      h-2     :     0.000000
      h+3     :     0.000000
      h-3     :     0.000000
      h+4     :     0.000000
      h-4     :     0.000000
      h+5     :     0.000000
      h-5     :     0.000000
  1 O s       :     3.221088  s :     3.221088
      pz      :     1.473038  p :     4.036549
      px      :     1.281755
      py      :     1.281755
      dz2     :     0.050158  d :     0.121816
      dxz     :     0.035829
      dyz     :     0.035829
      dx2y2   :     0.000000
      dxy     :     0.000000
      f0      :     0.015256  f :     0.047706
      f+1     :     0.016225
      f-1     :     0.016225
      f+2     :     0.000000
      f-2     :     0.000000
      f+3     :     0.000000
      f-3     :     0.000000
      g0      :     0.004452  g :     0.009086
      g+1     :     0.002317
      g-1     :     0.002317
      g+2     :     0.000000
      g-2     :     0.000000
      g+3     :     0.000000
      g-3     :     0.000000
      g+4     :     0.000000
      g-4     :     0.000000
      h0      :     0.000171  h :     0.000318
      h+1     :     0.000073
      h-1     :     0.000073
      h+2     :     0.000000
      h-2     :     0.000000
      h+3     :     0.000000
      h-3     :     0.000000
      h+4     :     0.000000
      h-4     :     0.000000
      h+5     :     0.000000
      h-5     :     0.000000
  2 O s       :     3.221088  s :     3.221088
      pz      :     1.473038  p :     4.036549
      px      :     1.281755
      py      :     1.281755
      dz2     :     0.050158  d :     0.121816
      dxz     :     0.035829
      dyz     :     0.035829
      dx2y2   :     0.000000
      dxy     :     0.000000
      f0      :     0.015256  f :     0.047706
      f+1     :     0.016225
      f-1     :     0.016225
      f+2     :     0.000000
      f-2     :     0.000000
      f+3     :     0.000000
      f-3     :     0.000000
      g0      :     0.004452  g :     0.009086
      g+1     :     0.002317
      g-1     :     0.002317
      g+2     :     0.000000
      g-2     :     0.000000
      g+3     :     0.000000
      g-3     :     0.000000
      g+4     :     0.000000
      g-4     :     0.000000
      h0      :     0.000171  h :     0.000318
      h+1     :     0.000073
      h-1     :     0.000073
      h+2     :     0.000000
      h-2     :     0.000000
      h+3     :     0.000000
      h-3     :     0.000000
      h+4     :     0.000000
      h-4     :     0.000000
      h+5     :     0.000000
      h-5     :     0.000000


                      *****************************
                      * MAYER POPULATION ANALYSIS *
                      *****************************

  NA   - Mulliken gross atomic population
  ZA   - Total nuclear charge
  QA   - Mulliken gross atomic charge
  VA   - Mayer's total valence
  BVA  - Mayer's bonded valence
  FA   - Mayer's free valence

  ATOM       NA         ZA         QA         VA         BVA        FA
  0 C      5.4256     6.0000     0.5744     4.4227     4.4227    -0.0000
  1 O      8.2872     8.0000    -0.2872     2.4619     2.4619    -0.0000
  2 O      8.2872     8.0000    -0.2872     2.4619     2.4619    -0.0000

  Mayer bond orders larger than 0.100000
B(  0-C ,  1-O ) :   2.2114 B(  0-C ,  2-O ) :   2.2114 B(  1-O ,  2-O ) :   0.2505 


-------
TIMINGS
-------

Total SCF time: 0 days 0 hours 0 min 36 sec 

Total time                  ....      36.741 sec
Sum of individual times     ....      36.486 sec  ( 99.3%)

Fock matrix formation       ....      35.268 sec  ( 96.0%)
  XC integration            ....       0.369 sec  (  1.0% of F)
    Basis function eval.    ....       0.060 sec  ( 16.3% of XC)
    Density eval.           ....       0.074 sec  ( 20.0% of XC)
    XC-Functional eval.     ....       0.010 sec  (  2.8% of XC)
    XC-Potential eval.      ....       0.153 sec  ( 41.6% of XC)
Diagonalization             ....       0.087 sec  (  0.2%)
Density matrix formation    ....       0.018 sec  (  0.0%)
Population analysis         ....       0.013 sec  (  0.0%)
Initial guess               ....       0.102 sec  (  0.3%)
Orbital Transformation      ....       0.000 sec  (  0.0%)
Orbital Orthonormalization  ....       0.000 sec  (  0.0%)
DIIS solution               ....       0.036 sec  (  0.1%)
SOSCF solution              ....       0.062 sec  (  0.2%)
Grid generation             ....       0.902 sec  (  2.5%)

-------------------------   --------------------
FINAL SINGLE POINT ENERGY      -187.285899928282
-------------------------   --------------------


                            ***************************************
                            *     ORCA property calculations      *
                            ***************************************

                                    ---------------------
                                    Active property flags
                                    ---------------------
   (+) Dipole Moment


------------------------------------------------------------------------------
                       ORCA ELECTRIC PROPERTIES CALCULATION
------------------------------------------------------------------------------

Dipole Moment Calculation                       ... on
Quadrupole Moment Calculation                   ... off
Polarizability Calculation                      ... off
GBWName                                         ... CO2_cc-pv5z_.gbw
Electron density file                           ... CO2_cc-pv5z_.scfp
The origin for moment calculation is the CENTER OF MASS  = ( 0.000000,  0.000000  0.000000)

-------------
DIPOLE MOMENT
-------------
                                X             Y             Z
Electronic contribution:      0.00000      -0.00000       0.00000
Nuclear contribution   :      0.00000       0.00000       0.00000
                        -----------------------------------------
Total Dipole Moment    :      0.00000      -0.00000       0.00000
                        -----------------------------------------
Magnitude (a.u.)       :      0.00000
Magnitude (Debye)      :      0.00000



--------------------
Rotational spectrum 
--------------------
 
Rotational constants in cm-1:     0.000000     0.390110     0.390110 
Rotational constants in MHz :     0.000000 11695.203081 11695.203081 

 Dipole components along the rotational axes: 
x,y,z [a.u.] :     0.000000    -0.000000     0.000000 
x,y,z [Debye]:     0.000000    -0.000000     0.000000 

 

Timings for individual modules:

Sum of individual times         ...       37.896 sec (=   0.632 min)
GTO integral calculation        ...        0.929 sec (=   0.015 min)   2.5 %
SCF iterations                  ...       36.968 sec (=   0.616 min)  97.5 %
                             ****ORCA TERMINATED NORMALLY****
TOTAL RUN TIME: 0 days 0 hours 0 minutes 38 seconds 230 msec
