
                                 *****************
                                 * O   R   C   A *
                                 *****************

           --- An Ab Initio, DFT and Semiempirical electronic structure package ---

                  #######################################################
                  #                        -***-                        #
                  #          Department of theory and spectroscopy      #
                  #               Directorship: Frank Neese             #
                  #        Max Planck Institute fuer Kohlenforschung    #
                  #                Kaiser Wilhelm Platz 1               #
                  #                 D-45470 Muelheim/Ruhr               #
                  #                      Germany                        #
                  #                                                     #
                  #                  All rights reserved                #
                  #                        -***-                        #
                  #######################################################


                         Program Version 4.2.1 -  RELEASE  -


 With contributions from (in alphabetic order):
   Daniel Aravena         : Magnetic Suceptibility
   Michael Atanasov       : Ab Initio Ligand Field Theory (pilot matlab implementation)
   Alexander A. Auer      : GIAO ZORA, VPT2
   Ute Becker             : Parallelization
   Giovanni Bistoni       : ED, misc. LED, open-shell LED, HFLD
   Martin Brehm           : Molecular dynamics
   Dmytro Bykov           : SCF Hessian
   Vijay G. Chilkuri      : MRCI spin determinant printing, contributions to CSF-ICE
   Dipayan Datta          : RHF DLPNO-CCSD density
   Achintya Kumar Dutta   : EOM-CC, STEOM-CC
   Dmitry Ganyushin       : Spin-Orbit,Spin-Spin,Magnetic field MRCI
   Miquel Garcia          : C-PCM Hessian, Gaussian charge scheme
   Yang Guo               : DLPNO-NEVPT2, CIM, IAO-localization
   Andreas Hansen         : Spin unrestricted coupled pair/coupled cluster methods
   Benjamin Helmich-Paris : CASSCF linear response (MC-RPA)
   Lee Huntington         : MR-EOM, pCC
   Robert Izsak           : Overlap fitted RIJCOSX, COSX-SCS-MP3, EOM
   Christian Kollmar      : KDIIS, OOCD, Brueckner-CCSD(T), CCSD density
   Simone Kossmann        : Meta GGA functionals, TD-DFT gradient, OOMP2, MP2 Hessian
   Martin Krupicka        : AUTO-CI
   Lucas Lang             : DCDCAS
   Dagmar Lenk            : GEPOL surface, SMD
   Dimitrios Liakos       : Extrapolation schemes; Compound Job, initial MDCI parallelization
   Dimitrios Manganas     : Further ROCIS development; embedding schemes
   Dimitrios Pantazis     : SARC Basis sets
   Taras Petrenko         : DFT Hessian,TD-DFT gradient, ASA, ECA, R-Raman, ABS, FL, XAS/XES, NRVS
   Peter Pinski           : DLPNO-MP2, DLPNO-MP2 Gradient
   Christoph Reimann      : Effective Core Potentials
   Marius Retegan         : Local ZFS, SOC
   Christoph Riplinger    : Optimizer, TS searches, QM/MM, DLPNO-CCSD(T), (RO)-DLPNO pert. Triples
   Tobias Risthaus        : Range-separated hybrids, TD-DFT gradient, RPA, STAB
   Michael Roemelt        : Original ROCIS implementation
   Masaaki Saitow         : Open-shell DLPNO-CCSD energy and density
   Barbara Sandhoefer     : DKH picture change effects
   Avijit Sen             : IP-ROCIS
   Kantharuban Sivalingam : CASSCF convergence, NEVPT2, FIC-MRCI
   Bernardo de Souza      : ESD, SOC TD-DFT
   Georgi Stoychev        : AutoAux, RI-MP2 NMR
   Willem Van den Heuvel  : Paramagnetic NMR
   Boris Wezisla          : Elementary symmetry handling
   Frank Wennmohs         : Technical directorship


 We gratefully acknowledge several colleagues who have allowed us to
 interface, adapt or use parts of their codes:
   Stefan Grimme, W. Hujo, H. Kruse,             : VdW corrections, initial TS optimization,
                  C. Bannwarth                     DFT functionals, gCP, sTDA/sTD-DF
   Ed Valeev, F. Pavosevic, A. Kumar             : LibInt (2-el integral package), F12 methods
   Garnet Chan, S. Sharma, J. Yang, R. Olivares  : DMRG
   Ulf Ekstrom                                   : XCFun DFT Library
   Mihaly Kallay                                 : mrcc  (arbitrary order and MRCC methods)
   Andreas Klamt, Michael Diedenhofen            : otool_cosmo (COSMO solvation model)
   Jiri Pittner, Ondrej Demel                    : Mk-CCSD
   Frank Weinhold                                : gennbo (NPA and NBO analysis)
   Christopher J. Cramer and Donald G. Truhlar   : smd solvation model
   Lars Goerigk                                  : TD-DFT with DH, B97 family of functionals
   V. Asgeirsson, H. Jonsson                     : NEB implementation
   FAccTs GmbH                                   : IRC, NEB, NEB-TS, Multilevel, MM, QM/MM, CI optimization
   S Lehtola, MJT Oliveira, MAL Marques          : LibXC Library


 Your calculation uses the libint2 library for the computation of 2-el integrals
 For citations please refer to: http://libint.valeyev.net

 Your ORCA version has been built with support for libXC version: 4.2.3
 For citations please refer to: https://tddft.org/programs/libxc/

 This ORCA versions uses:
   CBLAS   interface :  Fast vector & matrix operations
   LAPACKE interface :  Fast linear algebra routines
   SCALAPACK package :  Parallel linear algebra routines


----- Orbital basis set information -----
Your calculation utilizes the basis: cc-pCVQZ 
             H : cc-pVQZ. Obtained from the ccRepo (grant-hill.group.shef.ac.uk/ccrepo) Feb. 2017
                 T. H. Dunning, Jr., J. Chem. Phys. 90, 1007 (1989)
            He : cc-pVQZ. Obtained from the ccRepo (grant-hill.group.shef.ac.uk/ccrepo) Feb. 2017
                 D. E. Woon, T. H. Dunning, Jr., J. Chem. Phys. 100, 2975 (1994)
  Li-Be, Na-Mg : Obtained from the ccRepo (grant-hill.group.shef.ac.uk/ccrepo) Feb. 2017
                 B. P. Prascher, D. E. Woon, K. A. Peterson, T. H. Dunning, Jr., A. K. Wilson, Theor. Chem. Acc. 128, 69 (2011)
          B-Ne : Obtained from the ccRepo (grant-hill.group.shef.ac.uk/ccrepo) Feb. 2017
                 D. E. Woon, T. H. Dunning, Jr., J. Chem. Phys. 103, 4572 (1995)
                  K. A. Peterson, T. H. Dunning, Jr., J. Chem. Phys. 117, 10548 (2002)
         Al-Ar : Obtained from the EMSL Basis Set Exchange (bse.pnl.gov) Feb. 2017
                 K. A. Peterson, T. H. Dunning, Jr., J. Chem. Phys. 117, 10548 (2002)
            Ca : Obtained from the Peterson Research Group Website (tyr0.chem.wsu.edu/~kipeters) Feb. 2017
                 J. Koput, K. A. Peterson, J. Phys. Chem. A 106, 9595 (2002)
         Ga-Kr : Obtained from the Peterson Research Group Website (tyr0.chem.wsu.edu/~kipeters) Feb. 2017
                 N. J. DeYonker, K. A. Peterson, A. K. Wilson, J. Phys. Chem. A 111, 11383 (2007)

================================================================================
                                        WARNINGS
                       Please study these warnings very carefully!
================================================================================


INFO   : the flag for use of LIBINT has been found!

================================================================================
                                       INPUT FILE
================================================================================
NAME = CO2_cc-pcvqz_.inp
|  1> ! LDA cc-pcvqz nori grid5 finalgrid6 verytightscf
|  2> %Pal NProcs 18 End
|  3> 
|  4> *xyz 0 1
|  5> C 0.0000 0.0000 0.0000
|  6> O 0.0000 0.0000 1.1621
|  7> O 0.0000 0.0000 -1.1621
|  8> **                         ****END OF INPUT****
================================================================================

                       ****************************
                       * Single Point Calculation *
                       ****************************

---------------------------------
CARTESIAN COORDINATES (ANGSTROEM)
---------------------------------
  C      0.000000    0.000000    0.000000
  O      0.000000    0.000000    1.162100
  O      0.000000    0.000000   -1.162100

----------------------------
CARTESIAN COORDINATES (A.U.)
----------------------------
  NO LB      ZA    FRAG     MASS         X           Y           Z
   0 C     6.0000    0    12.011    0.000000    0.000000    0.000000
   1 O     8.0000    0    15.999    0.000000    0.000000    2.196051
   2 O     8.0000    0    15.999    0.000000    0.000000   -2.196051

--------------------------------
INTERNAL COORDINATES (ANGSTROEM)
--------------------------------
 C      0   0   0     0.000000000000     0.00000000     0.00000000
 O      1   0   0     1.162100000000     0.00000000     0.00000000
 O      1   2   0     1.162100000000   180.00000000     0.00000000

---------------------------
INTERNAL COORDINATES (A.U.)
---------------------------
 C      0   0   0     0.000000000000     0.00000000     0.00000000
 O      1   0   0     2.196050740230     0.00000000     0.00000000
 O      1   2   0     2.196050740230   180.00000000     0.00000000

---------------------
BASIS SET INFORMATION
---------------------
There are 2 groups of distinct atoms

 Group   1 Type C   : 24s9p5d3f1g contracted to 8s7p5d3f1g pattern {99111111/3111111/11111/111/1}
 Group   2 Type O   : 24s9p5d3f1g contracted to 8s7p5d3f1g pattern {99111111/3111111/11111/111/1}

Atom   0C    basis set group =>   1
Atom   1O    basis set group =>   2
Atom   2O    basis set group =>   2


           ************************************************************
           *        Program running with 18 parallel MPI-processes    *
           *              working on a common directory               *
           ************************************************************
------------------------------------------------------------------------------
                           ORCA GTO INTEGRAL CALCULATION
------------------------------------------------------------------------------

                         BASIS SET STATISTICS AND STARTUP INFO

 # of primitive gaussian shells          ...  126
 # of primitive gaussian functions       ...  318
 # of contracted shells                  ...   72
 # of contracted basis functions         ...  252
 Highest angular momentum                ...    4
 Maximum contraction depth               ...    9
 Integral package used                   ... LIBINT
 Integral threshhold            Thresh   ...  1.000e-12
 Primitive cut-off              TCut     ...  1.000e-14


------------------------------ INTEGRAL EVALUATION ----------------------------


 * One electron integrals 
 Pre-screening matrix                    ... done
 Shell pair data                         ... done (   0.001 sec)



           ************************************************************
           *        Program running with 18 parallel MPI-processes    *
           *              working on a common directory               *
           ************************************************************
-------------------------------------------------------------------------------
                                 ORCA SCF
-------------------------------------------------------------------------------

------------
SCF SETTINGS
------------
Hamiltonian:
 Density Functional     Method          .... DFT(GTOs)
 Exchange Functional    Exchange        .... Slater
   X-Alpha parameter    XAlpha          ....  0.666667
 Correlation Functional Correlation     .... VWN-5
 Gradients option       PostSCFGGA      .... off
   Density functional embedding theory  .... OFF


General Settings:
 Integral files         IntName         .... CO2_cc-pcvqz_
 Hartree-Fock type      HFTyp           .... RHF
 Total Charge           Charge          ....    0
 Multiplicity           Mult            ....    1
 Number of Electrons    NEL             ....   22
 Basis Dimension        Dim             ....  252
 Nuclear Repulsion      ENuc            ....     58.2864492405 Eh

Convergence Acceleration:
 DIIS                   CNVDIIS         .... on
   Start iteration      DIISMaxIt       ....    12
   Startup error        DIISStart       ....  0.200000
   # of expansion vecs  DIISMaxEq       ....     5
   Bias factor          DIISBfac        ....   1.050
   Max. coefficient     DIISMaxC        ....  10.000
 Newton-Raphson         CNVNR           .... off
 SOSCF                  CNVSOSCF        .... on
   Start iteration      SOSCFMaxIt      ....   150
   Startup grad/error   SOSCFStart      ....  0.003300
 Level Shifting         CNVShift        .... on
   Level shift para.    LevelShift      ....    0.2500
   Turn off err/grad.   ShiftErr        ....    0.0010
 Zerner damping         CNVZerner       .... off
 Static damping         CNVDamp         .... on
   Fraction old density DampFac         ....    0.7000
   Max. Damping (<1)    DampMax         ....    0.9800
   Min. Damping (>=0)   DampMin         ....    0.0000
   Turn off err/grad.   DampErr         ....    0.1000
 Fernandez-Rico         CNVRico         .... off

SCF Procedure:
 Maximum # iterations   MaxIter         ....   125
 SCF integral mode      SCFMode         .... Direct
   Integral package                     .... LIBINT
 Reset frequency        DirectResetFreq ....    20
 Integral Threshold     Thresh          ....  1.000e-12 Eh
 Primitive CutOff       TCut            ....  1.000e-14 Eh

Convergence Tolerance:
 Convergence Check Mode ConvCheckMode   .... Total+1el-Energy
 Convergence forced     ConvForced      .... 0
 Energy Change          TolE            ....  1.000e-09 Eh
 1-El. energy change                    ....  1.000e-06 Eh
 Orbital Gradient       TolG            ....  2.000e-06
 Orbital Rotation angle TolX            ....  2.000e-06
 DIIS Error             TolErr          ....  1.000e-08


Diagonalization of the overlap matrix:
Smallest eigenvalue                        ... 1.256e-04
Time for diagonalization                   ...    0.009 sec
Threshold for overlap eigenvalues          ... 1.000e-08
Number of eigenvalues below threshold      ... 0
Time for construction of square roots      ...    0.008 sec
Total time needed                          ...    0.017 sec

-------------------
DFT GRID GENERATION
-------------------

General Integration Accuracy     IntAcc      ...  5.010
Radial Grid Type                 RadialGrid  ... Gauss-Chebyshev
Angular Grid (max. acc.)         AngularGrid ... Lebedev-434
Angular grid pruning method      GridPruning ... 3 (G Style)
Weight generation scheme         WeightScheme... Becke
Basis function cutoff            BFCut       ...    1.0000e-12
Integration weight cutoff        WCut        ...    1.0000e-14
Grids for H and He will be reduced by one unit

# of grid points (after initial pruning)     ...  32382 (   0.0 sec)
# of grid points (after weights+screening)   ...  31994 (   0.0 sec)
nearest neighbour list constructed           ...    0.0 sec
Grid point re-assignment to atoms done       ...    0.0 sec
Grid point division into batches done        ...    0.2 sec
Reduced shell lists constructed in    0.2 sec

Total number of grid points                  ...    31994
Total number of batches                      ...      501
Average number of points per batch           ...       63
Average number of grid points per atom       ...    10665
Average number of shells per batch           ...    22.69 (31.51%)
Average number of basis functions per batch  ...    85.03 (33.74%)
Average number of large shells per batch     ...    16.59 (73.10%)
Average number of large basis fcns per batch ...    58.17 (68.41%)
Maximum spatial batch extension              ...  27.58, 27.58,  2.19 au
Average spatial batch extension              ...   0.40,  0.37,  0.12 au

Time for grid setup =    0.309 sec

------------------------------
INITIAL GUESS: MODEL POTENTIAL
------------------------------
Loading Hartree-Fock densities                     ... done
Calculating cut-offs                               ... done
Setting up the integral package                    ... done
Initializing the effective Hamiltonian             ... done
Starting the Coulomb interaction                   ... done (   0.0 sec)
Reading the grid                                   ... done
Mapping shells                                     ... done
Starting the XC term evaluation                    ... done (   0.0 sec)
  promolecular density results
     # of electrons  =     21.999994215
     EX              =    -19.410232655
     EC              =     -1.510707646
     EX+EC           =    -20.920940300
Transforming the Hamiltonian                       ... done (   0.0 sec)
Diagonalizing the Hamiltonian                      ... done (   0.0 sec)
Back transforming the eigenvectors                 ... done (   0.0 sec)
Now organizing SCF variables                       ... done
                      ------------------
                      INITIAL GUESS DONE (   0.4 sec)
                      ------------------
--------------
SCF ITERATIONS
--------------
ITER       Energy         Delta-E        Max-DP      RMS-DP      [F,P]     Damp
               ***  Starting incremental Fock matrix formation  ***
  0   -187.1796411946   0.000000000000 0.02797026  0.00055906  0.1936895 0.7000
  1   -187.2351379802  -0.055496785602 0.01481017  0.00029672  0.0638576 0.7000
                               ***Turning on DIIS***
  2   -187.2472054544  -0.012067474255 0.01257621  0.00032321  0.0235630 0.0000
  3   -187.2812222382  -0.034016783777 0.01093171  0.00022309  0.0272536 0.0000
  4   -187.2819190453  -0.000696807095 0.00558810  0.00008587  0.0241161 0.0000
  5   -187.2831963777  -0.001277332400 0.00161801  0.00002152  0.0058647 0.0000
                      *** Initiating the SOSCF procedure ***
                           *** Shutting down DIIS ***
                      *** Re-Reading the Fockian *** 
                      *** Removing any level shift *** 
ITER      Energy       Delta-E        Grad      Rot      Max-DP    RMS-DP
  6   -187.28327971  -0.0000833278  0.000321  0.000321  0.000295  0.000004
               *** Restarting incremental Fock matrix formation ***
  7   -187.28328337  -0.0000036614  0.000258  0.000565  0.000281  0.000005
  8   -187.28328213   0.0000012367  0.000527  0.000341  0.000145  0.000003
  9   -187.28328368  -0.0000015544  0.000006  0.000005  0.000010  0.000000
 10   -187.28328368  -0.0000000003  0.000002  0.000002  0.000002  0.000000
 11   -187.28328368  -0.0000000001  0.000001  0.000001  0.000001  0.000000
                 **** Energy Check signals convergence ****
              ***Rediagonalizing the Fockian in SOSCF/NRSCF***

               *****************************************************
               *                     SUCCESS                       *
               *           SCF CONVERGED AFTER  12 CYCLES          *
               *****************************************************

Setting up the final grid:

General Integration Accuracy     IntAcc      ...  5.340
Radial Grid Type                 RadialGrid  ... Gauss-Chebyshev
Angular Grid (max. acc.)         AngularGrid ... Lebedev-590
Angular grid pruning method      GridPruning ... 3 (G Style)
Weight generation scheme         WeightScheme... Becke
Basis function cutoff            BFCut       ...    1.0000e-12
Integration weight cutoff        WCut        ...    1.0000e-14
Grids for H and He will be reduced by one unit

# of grid points (after initial pruning)     ...  49704 (   0.0 sec)
# of grid points (after weights+screening)   ...  49052 (   0.0 sec)
nearest neighbour list constructed           ...    0.0 sec
Grid point re-assignment to atoms done       ...    0.0 sec
Grid point division into batches done        ...    0.6 sec
Reduced shell lists constructed in    0.6 sec

Total number of grid points                  ...    49052
Total number of batches                      ...      768
Average number of points per batch           ...       63
Average number of grid points per atom       ...    16351
Average number of shells per batch           ...    20.45 (28.41%)
Average number of basis functions per batch  ...    74.86 (29.71%)
Average number of large shells per batch     ...    15.16 (74.11%)
Average number of large basis fcns per batch ...    53.34 (71.25%)
Maximum spatial batch extension              ...  23.52, 23.52,  2.17 au
Average spatial batch extension              ...   0.31,  0.31,  0.11 au

Final grid set up in    0.6 sec
Final integration                            ... done (   0.0 sec)
Change in XC energy                          ...    -0.000002479
Integrated number of electrons               ...    21.999999010
Previous integrated no of electrons          ...    21.999995854

----------------
TOTAL SCF ENERGY
----------------

Total Energy       :         -187.28328616 Eh           -5096.23730 eV

Components:
Nuclear Repulsion  :           58.28644924 Eh            1586.05492 eV
Electronic Energy  :         -245.56973540 Eh           -6682.29222 eV
One Electron Energy:         -372.62916170 Eh          -10139.75498 eV
Two Electron Energy:          127.05942629 Eh            3457.46276 eV

Virial components:
Potential Energy   :         -373.57755723 Eh          -10165.56214 eV
Kinetic Energy     :          186.29427107 Eh            5069.32484 eV
Virial Ratio       :            2.00530889


DFT components:
N(Alpha)           :       10.999999504785 electrons
N(Beta)            :       10.999999504785 electrons
N(Total)           :       21.999999009570 electrons
E(X)               :      -19.565542634342 Eh       
E(C)               :       -1.520294240444 Eh       
E(XC)              :      -21.085836874787 Eh       
DFET-embed. en.    :        0.000000000000 Eh       

---------------
SCF CONVERGENCE
---------------

  Last Energy change         ...   -2.3590e-12  Tolerance :   1.0000e-09
  Last MAX-Density change    ...    3.3152e-07  Tolerance :   1.0000e-08
  Last RMS-Density change    ...    4.0064e-09  Tolerance :   1.0000e-09
  Last Orbital Gradient      ...    2.4130e-07  Tolerance :   2.0000e-06
  Last Orbital Rotation      ...    1.6518e-07  Tolerance :   2.0000e-06

             **** THE GBW FILE WAS UPDATED (CO2_cc-pcvqz_.gbw) ****
             **** DENSITY FILE WAS UPDATED (CO2_cc-pcvqz_.scfp) ****
             **** ENERGY FILE WAS UPDATED (CO2_cc-pcvqz_.en.tmp) ****
             **** THE GBW FILE WAS UPDATED (CO2_cc-pcvqz_.gbw) ****
             **** DENSITY FILE WAS UPDATED (CO2_cc-pcvqz_.scfp) ****
----------------
ORBITAL ENERGIES
----------------

  NO   OCC          E(Eh)            E(eV) 
   0   2.0000     -18.690628      -508.5979 
   1   2.0000     -18.690628      -508.5978 
   2   2.0000      -9.963036      -271.1080 
   3   2.0000      -1.069193       -29.0942 
   4   2.0000      -1.034094       -28.1391 
   5   2.0000      -0.507128       -13.7996 
   6   2.0000      -0.477031       -12.9807 
   7   2.0000      -0.477031       -12.9807 
   8   2.0000      -0.470879       -12.8133 
   9   2.0000      -0.341102        -9.2818 
  10   2.0000      -0.341102        -9.2818 
  11   0.0000      -0.021098        -0.5741 
  12   0.0000      -0.021098        -0.5741 
  13   0.0000      -0.011340        -0.3086 
  14   0.0000       0.150670         4.0999 
  15   0.0000       0.161386         4.3915 
  16   0.0000       0.161386         4.3915 
  17   0.0000       0.226263         6.1569 
  18   0.0000       0.308254         8.3880 
  19   0.0000       0.350595         9.5402 
  20   0.0000       0.350595         9.5402 
  21   0.0000       0.360832         9.8187 
  22   0.0000       0.374814        10.1992 
  23   0.0000       0.374814        10.1992 
  24   0.0000       0.535776        14.5792 
  25   0.0000       0.535776        14.5792 
  26   0.0000       0.709599        19.3092 
  27   0.0000       0.762437        20.7470 
  28   0.0000       0.762437        20.7470 
  29   0.0000       0.804478        21.8909 
  30   0.0000       0.854238        23.2450 
  31   0.0000       0.917130        24.9564 
  32   0.0000       0.917130        24.9564 
  33   0.0000       1.031016        28.0554 
  34   0.0000       1.081172        29.4202 
  35   0.0000       1.081172        29.4202 
  36   0.0000       1.152562        31.3628 
  37   0.0000       1.184890        32.2425 
  38   0.0000       1.184890        32.2425 
  39   0.0000       1.222682        33.2709 
  40   0.0000       1.356929        36.9239 
  41   0.0000       1.356929        36.9239 
  42   0.0000       1.398368        38.0515 
  43   0.0000       1.398368        38.0515 
  44   0.0000       1.543787        42.0086 
  45   0.0000       1.543787        42.0086 
  46   0.0000       1.606762        43.7222 
  47   0.0000       1.656779        45.0833 
  48   0.0000       1.656779        45.0833 
  49   0.0000       1.948068        53.0096 
  50   0.0000       1.948068        53.0096 
  51   0.0000       1.979237        53.8578 
  52   0.0000       1.979237        53.8578 
  53   0.0000       2.088886        56.8415 
  54   0.0000       2.192537        59.6620 
  55   0.0000       2.192537        59.6620 
  56   0.0000       2.595818        70.6358 
  57   0.0000       2.715758        73.8995 
  58   0.0000       2.715758        73.8995 
  59   0.0000       2.720418        74.0263 
  60   0.0000       2.788209        75.8710 
  61   0.0000       2.788209        75.8710 
  62   0.0000       2.840876        77.3042 
  63   0.0000       2.910790        79.2066 
  64   0.0000       2.910790        79.2066 
  65   0.0000       3.129247        85.1511 
  66   0.0000       3.129247        85.1511 
  67   0.0000       3.308137        90.0190 
  68   0.0000       3.308138        90.0190 
  69   0.0000       3.311789        90.1184 
  70   0.0000       3.428014        93.2810 
  71   0.0000       3.540062        96.3300 
  72   0.0000       3.540062        96.3300 
  73   0.0000       3.656245        99.4915 
  74   0.0000       3.673015        99.9478 
  75   0.0000       3.673015        99.9478 
  76   0.0000       3.710199       100.9597 
  77   0.0000       3.710200       100.9597 
  78   0.0000       3.742574       101.8406 
  79   0.0000       3.742574       101.8406 
  80   0.0000       3.782136       102.9171 
  81   0.0000       4.123998       112.2197 
  82   0.0000       4.123998       112.2197 
  83   0.0000       4.215496       114.7095 
  84   0.0000       4.215496       114.7095 
  85   0.0000       4.243052       115.4593 
  86   0.0000       4.617632       125.6522 
  87   0.0000       4.617632       125.6522 
  88   0.0000       4.738107       128.9305 
  89   0.0000       4.738107       128.9305 
  90   0.0000       4.872056       132.5754 
  91   0.0000       4.872056       132.5754 
  92   0.0000       5.000056       136.0584 
  93   0.0000       5.052836       137.4946 
  94   0.0000       5.293360       144.0396 
  95   0.0000       5.293360       144.0396 
  96   0.0000       5.538452       150.7089 
  97   0.0000       5.538452       150.7089 
  98   0.0000       5.593813       152.2154 
  99   0.0000       5.593813       152.2154 
 100   0.0000       5.684035       154.6704 
 101   0.0000       5.684035       154.6704 
 102   0.0000       5.715390       155.5237 
 103   0.0000       5.715390       155.5237 
 104   0.0000       6.192904       168.5175 
 105   0.0000       6.192905       168.5175 
 106   0.0000       6.214714       169.1110 
 107   0.0000       6.240188       169.8042 
 108   0.0000       6.764691       184.0766 
 109   0.0000       6.764691       184.0766 
 110   0.0000       7.807140       212.4431 
 111   0.0000       7.807140       212.4431 
 112   0.0000       7.910694       215.2609 
 113   0.0000       7.970397       216.8855 
 114   0.0000       8.666236       235.8203 
 115   0.0000       8.666243       235.8205 
 116   0.0000       8.690814       236.4891 
 117   0.0000       8.690821       236.4893 
 118   0.0000       8.716110       237.1774 
 119   0.0000       8.716110       237.1774 
 120   0.0000       8.866789       241.2776 
 121   0.0000       8.866789       241.2776 
 122   0.0000       9.128777       248.4066 
 123   0.0000       9.128777       248.4066 
 124   0.0000       9.133569       248.5371 
 125   0.0000       9.133569       248.5371 
 126   0.0000       9.365928       254.8599 
 127   0.0000       9.425784       256.4886 
 128   0.0000       9.425784       256.4886 
 129   0.0000       9.568038       260.3595 
 130   0.0000       9.997798       272.0539 
 131   0.0000       9.997798       272.0539 
 132   0.0000      10.259819       279.1839 
 133   0.0000      10.406895       283.1860 
 134   0.0000      10.406896       283.1860 
 135   0.0000      10.453851       284.4637 
 136   0.0000      10.681698       290.6638 
 137   0.0000      10.681698       290.6638 
 138   0.0000      10.752795       292.5984 
 139   0.0000      10.752795       292.5984 
 140   0.0000      10.770568       293.0821 
 141   0.0000      10.770568       293.0821 
 142   0.0000      10.781267       293.3732 
 143   0.0000      10.990992       299.0801 
 144   0.0000      10.990992       299.0801 
 145   0.0000      11.333710       308.4059 
 146   0.0000      11.333710       308.4059 
 147   0.0000      11.440516       311.3123 
 148   0.0000      11.440516       311.3123 
 149   0.0000      11.658329       317.2393 
 150   0.0000      11.658342       317.2396 
 151   0.0000      11.874500       323.1216 
 152   0.0000      11.874500       323.1216 
 153   0.0000      12.080742       328.7337 
 154   0.0000      12.100025       329.2584 
 155   0.0000      12.100035       329.2587 
 156   0.0000      12.788829       348.0017 
 157   0.0000      13.156986       358.0198 
 158   0.0000      13.156986       358.0198 
 159   0.0000      14.186509       386.0345 
 160   0.0000      14.693735       399.8369 
 161   0.0000      14.693735       399.8369 
 162   0.0000      15.418535       419.5597 
 163   0.0000      16.633895       452.6313 
 164   0.0000      17.738547       482.6904 
 165   0.0000      18.239394       496.3191 
 166   0.0000      18.239394       496.3191 
 167   0.0000      20.449822       556.4680 
 168   0.0000      25.389926       690.8950 
 169   0.0000      25.389931       690.8951 
 170   0.0000      25.934726       705.7198 
 171   0.0000      25.934726       705.7198 
 172   0.0000      27.560726       749.9655 
 173   0.0000      32.199514       876.1933 
 174   0.0000      32.199514       876.1933 
 175   0.0000      32.334589       879.8689 
 176   0.0000      32.334589       879.8689 
 177   0.0000      33.243286       904.5958 
 178   0.0000      33.586356       913.9312 
 179   0.0000      37.063868      1008.5591 
 180   0.0000      45.574481      1240.1447 
 181   0.0000      45.574487      1240.1448 
 182   0.0000      45.703504      1243.6556 
 183   0.0000      45.703510      1243.6557 
 184   0.0000      46.164584      1256.2022 
 185   0.0000      46.164584      1256.2022 
 186   0.0000      46.802470      1273.5600 
 187   0.0000      46.802470      1273.5600 
 188   0.0000      46.875977      1275.5602 
 189   0.0000      47.216818      1284.8349 
 190   0.0000      62.206093      1692.7138 
 191   0.0000      62.858690      1710.4719 
 192   0.0000      65.017572      1769.2181 
 193   0.0000      65.017572      1769.2181 
 194   0.0000      66.664752      1814.0401 
 195   0.0000      97.065895      2641.2973 
 196   0.0000      97.065895      2641.2973 
 197   0.0000      97.078576      2641.6423 
 198   0.0000      97.078654      2641.6445 
 199   0.0000      97.146626      2643.4941 
 200   0.0000      97.146626      2643.4941 
 201   0.0000      97.246673      2646.2165 
 202   0.0000     101.599656      2764.6672 
 203   0.0000     101.599656      2764.6672 
 204   0.0000     101.601903      2764.7283 
 205   0.0000     101.601903      2764.7283 
 206   0.0000     101.612730      2765.0229 
 207   0.0000     101.612837      2765.0259 
 208   0.0000     101.646976      2765.9548 
 209   0.0000     101.647083      2765.9578 
 210   0.0000     101.659576      2766.2977 
 211   0.0000     101.659576      2766.2977 
 212   0.0000     101.695812      2767.2837 
 213   0.0000     101.695812      2767.2837 
 214   0.0000     101.727611      2768.1490 
 215   0.0000     101.736697      2768.3963 
 216   0.0000     113.169192      3079.4903 
 217   0.0000     113.169196      3079.4904 
 218   0.0000     113.465762      3087.5604 
 219   0.0000     113.465762      3087.5604 
 220   0.0000     114.302086      3110.3179 
 221   0.0000     114.637481      3119.4444 
 222   0.0000     114.637481      3119.4444 
 223   0.0000     114.718506      3121.6493 
 224   0.0000     114.718506      3121.6493 
 225   0.0000     115.656838      3147.1826 
 226   0.0000     115.706528      3148.5347 
 227   0.0000     121.921302      3317.6473 
 228   0.0000     195.932073      5331.5828 
 229   0.0000     195.932082      5331.5830 
 230   0.0000     195.999421      5333.4154 
 231   0.0000     195.999430      5333.4156 
 232   0.0000     196.242019      5340.0168 
 233   0.0000     196.242019      5340.0168 
 234   0.0000     196.587100      5349.4070 
 235   0.0000     196.587996      5349.4313 
 236   0.0000     196.587996      5349.4313 
 237   0.0000     196.814357      5355.5909 
 238   0.0000     213.492609      5809.4292 
 239   0.0000     214.048552      5824.5572 
 240   0.0000     222.448273      6053.1252 
 241   0.0000     222.448273      6053.1252 
 242   0.0000     223.821050      6090.4804 
 243   0.0000     391.837563     10662.4422 
 244   0.0000     391.837563     10662.4422 
 245   0.0000     391.895116     10664.0082 
 246   0.0000     391.895116     10664.0082 
 247   0.0000     392.630022     10684.0061 
 248   0.0000     392.844664     10689.8468 
 249   0.0000     506.690932     13787.7612 
 250   0.0000     890.664360     24236.2094 
 251   0.0000     891.236937     24251.7900 

                    ********************************
                    * MULLIKEN POPULATION ANALYSIS *
                    ********************************

-----------------------
MULLIKEN ATOMIC CHARGES
-----------------------
   0 C :    0.417027
   1 O :   -0.208514
   2 O :   -0.208514
Sum of atomic charges:   -0.0000000

--------------------------------
MULLIKEN REDUCED ORBITAL CHARGES
--------------------------------
  0 C s       :     2.875866  s :     2.875866
      pz      :     0.777706  p :     2.395306
      px      :     0.808800
      py      :     0.808800
      dz2     :     0.082859  d :     0.286319
      dxz     :     0.101730
      dyz     :     0.101730
      dx2y2   :     0.000000
      dxy     :     0.000000
      f0      :     0.005506  f :     0.019050
      f+1     :     0.006772
      f-1     :     0.006772
      f+2     :     0.000000
      f-2     :     0.000000
      f+3     :    -0.000000
      f-3     :    -0.000000
      g0      :     0.000530  g :     0.006432
      g+1     :     0.002951
      g-1     :     0.002951
      g+2     :     0.000000
      g-2     :     0.000000
      g+3     :    -0.000000
      g-3     :    -0.000000
      g+4     :     0.000000
      g-4     :     0.000000
  1 O s       :     3.733192  s :     3.733192
      pz      :     1.379140  p :     4.427057
      px      :     1.523958
      py      :     1.523958
      dz2     :     0.015605  d :     0.044094
      dxz     :     0.014245
      dyz     :     0.014245
      dx2y2   :    -0.000000
      dxy     :    -0.000000
      f0      :     0.000742  f :     0.003932
      f+1     :     0.001595
      f-1     :     0.001595
      f+2     :    -0.000000
      f-2     :    -0.000000
      f+3     :     0.000000
      f-3     :     0.000000
      g0      :     0.000088  g :     0.000239
      g+1     :     0.000075
      g-1     :     0.000075
      g+2     :    -0.000000
      g-2     :    -0.000000
      g+3     :     0.000000
      g-3     :     0.000000
      g+4     :     0.000000
      g-4     :     0.000000
  2 O s       :     3.733192  s :     3.733192
      pz      :     1.379140  p :     4.427057
      px      :     1.523958
      py      :     1.523958
      dz2     :     0.015605  d :     0.044094
      dxz     :     0.014245
      dyz     :     0.014245
      dx2y2   :    -0.000000
      dxy     :    -0.000000
      f0      :     0.000742  f :     0.003932
      f+1     :     0.001595
      f-1     :     0.001595
      f+2     :    -0.000000
      f-2     :    -0.000000
      f+3     :     0.000000
      f-3     :     0.000000
      g0      :     0.000088  g :     0.000239
      g+1     :     0.000075
      g-1     :     0.000075
      g+2     :    -0.000000
      g-2     :    -0.000000
      g+3     :     0.000000
      g-3     :     0.000000
      g+4     :     0.000000
      g-4     :     0.000000


                     *******************************
                     * LOEWDIN POPULATION ANALYSIS *
                     *******************************

----------------------
LOEWDIN ATOMIC CHARGES
----------------------
   0 C :   -0.920054
   1 O :    0.460027
   2 O :    0.460027

-------------------------------
LOEWDIN REDUCED ORBITAL CHARGES
-------------------------------
  0 C s       :     2.733424  s :     2.733424
      pz      :     1.178886  p :     2.736626
      px      :     0.778870
      py      :     0.778870
      dz2     :     0.354482  d :     1.135863
      dxz     :     0.390690
      dyz     :     0.390690
      dx2y2   :     0.000000
      dxy     :     0.000000
      f0      :     0.095685  f :     0.218933
      f+1     :     0.061624
      f-1     :     0.061624
      f+2     :     0.000000
      f-2     :     0.000000
      f+3     :     0.000000
      f-3     :     0.000000
      g0      :     0.014030  g :     0.095210
      g+1     :     0.040590
      g-1     :     0.040590
      g+2     :     0.000000
      g-2     :     0.000000
      g+3     :     0.000000
      g-3     :     0.000000
      g+4     :     0.000000
      g-4     :     0.000000
  1 O s       :     3.288566  s :     3.288566
      pz      :     1.471239  p :     4.126068
      px      :     1.327414
      py      :     1.327414
      dz2     :     0.041990  d :     0.098420
      dxz     :     0.028215
      dyz     :     0.028215
      dx2y2   :     0.000000
      dxy     :     0.000000
      f0      :     0.009216  f :     0.025014
      f+1     :     0.007899
      f-1     :     0.007899
      f+2     :     0.000000
      f-2     :     0.000000
      f+3     :     0.000000
      f-3     :     0.000000
      g0      :     0.000735  g :     0.001904
      g+1     :     0.000584
      g-1     :     0.000584
      g+2     :     0.000000
      g-2     :     0.000000
      g+3     :     0.000000
      g-3     :     0.000000
      g+4     :     0.000000
      g-4     :     0.000000
  2 O s       :     3.288566  s :     3.288566
      pz      :     1.471239  p :     4.126068
      px      :     1.327414
      py      :     1.327414
      dz2     :     0.041990  d :     0.098420
      dxz     :     0.028215
      dyz     :     0.028215
      dx2y2   :     0.000000
      dxy     :     0.000000
      f0      :     0.009216  f :     0.025014
      f+1     :     0.007899
      f-1     :     0.007899
      f+2     :     0.000000
      f-2     :     0.000000
      f+3     :     0.000000
      f-3     :     0.000000
      g0      :     0.000735  g :     0.001904
      g+1     :     0.000584
      g-1     :     0.000584
      g+2     :     0.000000
      g-2     :     0.000000
      g+3     :     0.000000
      g-3     :     0.000000
      g+4     :     0.000000
      g-4     :     0.000000


                      *****************************
                      * MAYER POPULATION ANALYSIS *
                      *****************************

  NA   - Mulliken gross atomic population
  ZA   - Total nuclear charge
  QA   - Mulliken gross atomic charge
  VA   - Mayer's total valence
  BVA  - Mayer's bonded valence
  FA   - Mayer's free valence

  ATOM       NA         ZA         QA         VA         BVA        FA
  0 C      5.5830     6.0000     0.4170     4.5177     4.5177    -0.0000
  1 O      8.2085     8.0000    -0.2085     2.4999     2.4999     0.0000
  2 O      8.2085     8.0000    -0.2085     2.4999     2.4999    -0.0000

  Mayer bond orders larger than 0.100000
B(  0-C ,  1-O ) :   2.2589 B(  0-C ,  2-O ) :   2.2589 B(  1-O ,  2-O ) :   0.2410 


-------
TIMINGS
-------

Total SCF time: 0 days 0 hours 0 min 12 sec 

Total time                  ....      12.438 sec
Sum of individual times     ....      12.202 sec  ( 98.1%)

Fock matrix formation       ....      10.997 sec  ( 88.4%)
  XC integration            ....       0.257 sec  (  2.3% of F)
    Basis function eval.    ....       0.049 sec  ( 19.2% of XC)
    Density eval.           ....       0.040 sec  ( 15.7% of XC)
    XC-Functional eval.     ....       0.010 sec  (  3.8% of XC)
    XC-Potential eval.      ....       0.076 sec  ( 29.4% of XC)
Diagonalization             ....       0.066 sec  (  0.5%)
Density matrix formation    ....       0.017 sec  (  0.1%)
Population analysis         ....       0.008 sec  (  0.1%)
Initial guess               ....       0.091 sec  (  0.7%)
Orbital Transformation      ....       0.000 sec  (  0.0%)
Orbital Orthonormalization  ....       0.000 sec  (  0.0%)
DIIS solution               ....       0.036 sec  (  0.3%)
SOSCF solution              ....       0.049 sec  (  0.4%)
Grid generation             ....       0.938 sec  (  7.5%)

-------------------------   --------------------
FINAL SINGLE POINT ENERGY      -187.283286163910
-------------------------   --------------------


                            ***************************************
                            *     ORCA property calculations      *
                            ***************************************

                                    ---------------------
                                    Active property flags
                                    ---------------------
   (+) Dipole Moment


------------------------------------------------------------------------------
                       ORCA ELECTRIC PROPERTIES CALCULATION
------------------------------------------------------------------------------

Dipole Moment Calculation                       ... on
Quadrupole Moment Calculation                   ... off
Polarizability Calculation                      ... off
GBWName                                         ... CO2_cc-pcvqz_.gbw
Electron density file                           ... CO2_cc-pcvqz_.scfp
The origin for moment calculation is the CENTER OF MASS  = ( 0.000000,  0.000000  0.000000)

-------------
DIPOLE MOMENT
-------------
                                X             Y             Z
Electronic contribution:     -0.00000      -0.00000      -0.00000
Nuclear contribution   :      0.00000       0.00000       0.00000
                        -----------------------------------------
Total Dipole Moment    :     -0.00000      -0.00000      -0.00000
                        -----------------------------------------
Magnitude (a.u.)       :      0.00000
Magnitude (Debye)      :      0.00000



--------------------
Rotational spectrum 
--------------------
 
Rotational constants in cm-1:     0.000000     0.390110     0.390110 
Rotational constants in MHz :     0.000000 11695.203081 11695.203081 

 Dipole components along the rotational axes: 
x,y,z [a.u.] :    -0.000000    -0.000000    -0.000000 
x,y,z [Debye]:    -0.000000    -0.000000    -0.000000 

 

Timings for individual modules:

Sum of individual times         ...       13.237 sec (=   0.221 min)
GTO integral calculation        ...        0.573 sec (=   0.010 min)   4.3 %
SCF iterations                  ...       12.664 sec (=   0.211 min)  95.7 %
                             ****ORCA TERMINATED NORMALLY****
TOTAL RUN TIME: 0 days 0 hours 0 minutes 13 seconds 560 msec
