
                                 *****************
                                 * O   R   C   A *
                                 *****************

           --- An Ab Initio, DFT and Semiempirical electronic structure package ---

                  #######################################################
                  #                        -***-                        #
                  #          Department of theory and spectroscopy      #
                  #               Directorship: Frank Neese             #
                  #        Max Planck Institute fuer Kohlenforschung    #
                  #                Kaiser Wilhelm Platz 1               #
                  #                 D-45470 Muelheim/Ruhr               #
                  #                      Germany                        #
                  #                                                     #
                  #                  All rights reserved                #
                  #                        -***-                        #
                  #######################################################


                         Program Version 4.2.1 -  RELEASE  -


 With contributions from (in alphabetic order):
   Daniel Aravena         : Magnetic Suceptibility
   Michael Atanasov       : Ab Initio Ligand Field Theory (pilot matlab implementation)
   Alexander A. Auer      : GIAO ZORA, VPT2
   Ute Becker             : Parallelization
   Giovanni Bistoni       : ED, misc. LED, open-shell LED, HFLD
   Martin Brehm           : Molecular dynamics
   Dmytro Bykov           : SCF Hessian
   Vijay G. Chilkuri      : MRCI spin determinant printing, contributions to CSF-ICE
   Dipayan Datta          : RHF DLPNO-CCSD density
   Achintya Kumar Dutta   : EOM-CC, STEOM-CC
   Dmitry Ganyushin       : Spin-Orbit,Spin-Spin,Magnetic field MRCI
   Miquel Garcia          : C-PCM Hessian, Gaussian charge scheme
   Yang Guo               : DLPNO-NEVPT2, CIM, IAO-localization
   Andreas Hansen         : Spin unrestricted coupled pair/coupled cluster methods
   Benjamin Helmich-Paris : CASSCF linear response (MC-RPA)
   Lee Huntington         : MR-EOM, pCC
   Robert Izsak           : Overlap fitted RIJCOSX, COSX-SCS-MP3, EOM
   Christian Kollmar      : KDIIS, OOCD, Brueckner-CCSD(T), CCSD density
   Simone Kossmann        : Meta GGA functionals, TD-DFT gradient, OOMP2, MP2 Hessian
   Martin Krupicka        : AUTO-CI
   Lucas Lang             : DCDCAS
   Dagmar Lenk            : GEPOL surface, SMD
   Dimitrios Liakos       : Extrapolation schemes; Compound Job, initial MDCI parallelization
   Dimitrios Manganas     : Further ROCIS development; embedding schemes
   Dimitrios Pantazis     : SARC Basis sets
   Taras Petrenko         : DFT Hessian,TD-DFT gradient, ASA, ECA, R-Raman, ABS, FL, XAS/XES, NRVS
   Peter Pinski           : DLPNO-MP2, DLPNO-MP2 Gradient
   Christoph Reimann      : Effective Core Potentials
   Marius Retegan         : Local ZFS, SOC
   Christoph Riplinger    : Optimizer, TS searches, QM/MM, DLPNO-CCSD(T), (RO)-DLPNO pert. Triples
   Tobias Risthaus        : Range-separated hybrids, TD-DFT gradient, RPA, STAB
   Michael Roemelt        : Original ROCIS implementation
   Masaaki Saitow         : Open-shell DLPNO-CCSD energy and density
   Barbara Sandhoefer     : DKH picture change effects
   Avijit Sen             : IP-ROCIS
   Kantharuban Sivalingam : CASSCF convergence, NEVPT2, FIC-MRCI
   Bernardo de Souza      : ESD, SOC TD-DFT
   Georgi Stoychev        : AutoAux, RI-MP2 NMR
   Willem Van den Heuvel  : Paramagnetic NMR
   Boris Wezisla          : Elementary symmetry handling
   Frank Wennmohs         : Technical directorship


 We gratefully acknowledge several colleagues who have allowed us to
 interface, adapt or use parts of their codes:
   Stefan Grimme, W. Hujo, H. Kruse,             : VdW corrections, initial TS optimization,
                  C. Bannwarth                     DFT functionals, gCP, sTDA/sTD-DF
   Ed Valeev, F. Pavosevic, A. Kumar             : LibInt (2-el integral package), F12 methods
   Garnet Chan, S. Sharma, J. Yang, R. Olivares  : DMRG
   Ulf Ekstrom                                   : XCFun DFT Library
   Mihaly Kallay                                 : mrcc  (arbitrary order and MRCC methods)
   Andreas Klamt, Michael Diedenhofen            : otool_cosmo (COSMO solvation model)
   Jiri Pittner, Ondrej Demel                    : Mk-CCSD
   Frank Weinhold                                : gennbo (NPA and NBO analysis)
   Christopher J. Cramer and Donald G. Truhlar   : smd solvation model
   Lars Goerigk                                  : TD-DFT with DH, B97 family of functionals
   V. Asgeirsson, H. Jonsson                     : NEB implementation
   FAccTs GmbH                                   : IRC, NEB, NEB-TS, Multilevel, MM, QM/MM, CI optimization
   S Lehtola, MJT Oliveira, MAL Marques          : LibXC Library


 Your calculation uses the libint2 library for the computation of 2-el integrals
 For citations please refer to: http://libint.valeyev.net

 Your ORCA version has been built with support for libXC version: 4.2.3
 For citations please refer to: https://tddft.org/programs/libxc/

 This ORCA versions uses:
   CBLAS   interface :  Fast vector & matrix operations
   LAPACKE interface :  Fast linear algebra routines
   SCALAPACK package :  Parallel linear algebra routines


----- Orbital basis set information -----
Your calculation utilizes the basis: cc-pVDZ 
       H, B-Ne : Obtained from the ccRepo (grant-hill.group.shef.ac.uk/ccrepo) Feb. 2017
                 T. H. Dunning, Jr., J. Chem. Phys. 90, 1007 (1989)
            He : Obtained from the ccRepo (grant-hill.group.shef.ac.uk/ccrepo) Feb. 2017
                 D. E. Woon, T. H. Dunning, Jr., J. Chem. Phys. 100, 2975 (1994)
  Li-Be, Na-Mg : Obtained from the ccRepo (grant-hill.group.shef.ac.uk/ccrepo) Feb. 2017
                 B. P. Prascher, D. E. Woon, K. A. Peterson, T. H. Dunning, Jr., A. K. Wilson, Theor. Chem. Acc. 128, 69 (2011)
         Al-Ar : Obtained from the ccRepo (grant-hill.group.shef.ac.uk/ccrepo) Feb. 2017
                 D. E. Woon, T. H. Dunning, Jr., J. Chem. Phys. 98, 1358 (1993)
            Ca : Obtained from the Peterson Research Group Website (tyr0.chem.wsu.edu/~kipeters) Feb. 2017
                 J. Koput, K. A. Peterson, J. Phys. Chem. 106, 9595 (2002)
         Sc-Zn : Obtained from the ccRepo (grant-hill.group.shef.ac.uk/ccrepo) Feb. 2017
                 N. B. Balabanov, K. A. Peterson, J. Chem. Phys. 123, 064107 (2005)
                 N. B. Balabanov, K. A. Peterson, J. Chem. Phys. 125, 074110 (2006)
         Ga-Kr : Obtained from the ccRepo (grant-hill.group.shef.ac.uk/ccrepo) Feb. 2017
                 A. K. Wilson, D. E. Woon, K. A. Peterson, T. H. Dunning, Jr., J. Chem. Phys. 110, 7667 (1999)

================================================================================
                                        WARNINGS
                       Please study these warnings very carefully!
================================================================================


INFO   : the flag for use of LIBINT has been found!

================================================================================
                                       INPUT FILE
================================================================================
NAME = CO2_cc-pvdz_.inp
|  1> ! LDA cc-pvdz nori grid5 finalgrid6 verytightscf
|  2> %Pal NProcs 18 End
|  3> 
|  4> *xyz 0 1
|  5> C 0.0000 0.0000 0.0000
|  6> O 0.0000 0.0000 1.1621
|  7> O 0.0000 0.0000 -1.1621
|  8> **                         ****END OF INPUT****
================================================================================

                       ****************************
                       * Single Point Calculation *
                       ****************************

---------------------------------
CARTESIAN COORDINATES (ANGSTROEM)
---------------------------------
  C      0.000000    0.000000    0.000000
  O      0.000000    0.000000    1.162100
  O      0.000000    0.000000   -1.162100

----------------------------
CARTESIAN COORDINATES (A.U.)
----------------------------
  NO LB      ZA    FRAG     MASS         X           Y           Z
   0 C     6.0000    0    12.011    0.000000    0.000000    0.000000
   1 O     8.0000    0    15.999    0.000000    0.000000    2.196051
   2 O     8.0000    0    15.999    0.000000    0.000000   -2.196051

--------------------------------
INTERNAL COORDINATES (ANGSTROEM)
--------------------------------
 C      0   0   0     0.000000000000     0.00000000     0.00000000
 O      1   0   0     1.162100000000     0.00000000     0.00000000
 O      1   2   0     1.162100000000   180.00000000     0.00000000

---------------------------
INTERNAL COORDINATES (A.U.)
---------------------------
 C      0   0   0     0.000000000000     0.00000000     0.00000000
 O      1   0   0     2.196050740230     0.00000000     0.00000000
 O      1   2   0     2.196050740230   180.00000000     0.00000000

---------------------
BASIS SET INFORMATION
---------------------
There are 2 groups of distinct atoms

 Group   1 Type C   : 17s4p1d contracted to 3s2p1d pattern {881/31/1}
 Group   2 Type O   : 17s4p1d contracted to 3s2p1d pattern {881/31/1}

Atom   0C    basis set group =>   1
Atom   1O    basis set group =>   2
Atom   2O    basis set group =>   2


           ************************************************************
           *        Program running with 18 parallel MPI-processes    *
           *              working on a common directory               *
           ************************************************************
------------------------------------------------------------------------------
                           ORCA GTO INTEGRAL CALCULATION
------------------------------------------------------------------------------

                         BASIS SET STATISTICS AND STARTUP INFO

 # of primitive gaussian shells          ...   66
 # of primitive gaussian functions       ...  102
 # of contracted shells                  ...   18
 # of contracted basis functions         ...   42
 Highest angular momentum                ...    2
 Maximum contraction depth               ...    8
 Integral package used                   ... LIBINT
 Integral threshhold            Thresh   ...  1.000e-12
 Primitive cut-off              TCut     ...  1.000e-14


------------------------------ INTEGRAL EVALUATION ----------------------------


 * One electron integrals 
 Pre-screening matrix                    ... done
 Shell pair data                         ... done (   0.000 sec)



           ************************************************************
           *        Program running with 18 parallel MPI-processes    *
           *              working on a common directory               *
           ************************************************************
-------------------------------------------------------------------------------
                                 ORCA SCF
-------------------------------------------------------------------------------

------------
SCF SETTINGS
------------
Hamiltonian:
 Density Functional     Method          .... DFT(GTOs)
 Exchange Functional    Exchange        .... Slater
   X-Alpha parameter    XAlpha          ....  0.666667
 Correlation Functional Correlation     .... VWN-5
 Gradients option       PostSCFGGA      .... off
   Density functional embedding theory  .... OFF


General Settings:
 Integral files         IntName         .... CO2_cc-pvdz_
 Hartree-Fock type      HFTyp           .... RHF
 Total Charge           Charge          ....    0
 Multiplicity           Mult            ....    1
 Number of Electrons    NEL             ....   22
 Basis Dimension        Dim             ....   42
 Nuclear Repulsion      ENuc            ....     58.2864492405 Eh

Convergence Acceleration:
 DIIS                   CNVDIIS         .... on
   Start iteration      DIISMaxIt       ....    12
   Startup error        DIISStart       ....  0.200000
   # of expansion vecs  DIISMaxEq       ....     5
   Bias factor          DIISBfac        ....   1.050
   Max. coefficient     DIISMaxC        ....  10.000
 Newton-Raphson         CNVNR           .... off
 SOSCF                  CNVSOSCF        .... on
   Start iteration      SOSCFMaxIt      ....   150
   Startup grad/error   SOSCFStart      ....  0.003300
 Level Shifting         CNVShift        .... on
   Level shift para.    LevelShift      ....    0.2500
   Turn off err/grad.   ShiftErr        ....    0.0010
 Zerner damping         CNVZerner       .... off
 Static damping         CNVDamp         .... on
   Fraction old density DampFac         ....    0.7000
   Max. Damping (<1)    DampMax         ....    0.9800
   Min. Damping (>=0)   DampMin         ....    0.0000
   Turn off err/grad.   DampErr         ....    0.1000
 Fernandez-Rico         CNVRico         .... off

SCF Procedure:
 Maximum # iterations   MaxIter         ....   125
 SCF integral mode      SCFMode         .... Direct
   Integral package                     .... LIBINT
 Reset frequency        DirectResetFreq ....    20
 Integral Threshold     Thresh          ....  1.000e-12 Eh
 Primitive CutOff       TCut            ....  1.000e-14 Eh

Convergence Tolerance:
 Convergence Check Mode ConvCheckMode   .... Total+1el-Energy
 Convergence forced     ConvForced      .... 0
 Energy Change          TolE            ....  1.000e-09 Eh
 1-El. energy change                    ....  1.000e-06 Eh
 Orbital Gradient       TolG            ....  2.000e-06
 Orbital Rotation angle TolX            ....  2.000e-06
 DIIS Error             TolErr          ....  1.000e-08


Diagonalization of the overlap matrix:
Smallest eigenvalue                        ... 1.769e-02
Time for diagonalization                   ...    0.001 sec
Threshold for overlap eigenvalues          ... 1.000e-08
Number of eigenvalues below threshold      ... 0
Time for construction of square roots      ...    0.001 sec
Total time needed                          ...    0.002 sec

-------------------
DFT GRID GENERATION
-------------------

General Integration Accuracy     IntAcc      ...  5.010
Radial Grid Type                 RadialGrid  ... Gauss-Chebyshev
Angular Grid (max. acc.)         AngularGrid ... Lebedev-434
Angular grid pruning method      GridPruning ... 3 (G Style)
Weight generation scheme         WeightScheme... Becke
Basis function cutoff            BFCut       ...    1.0000e-12
Integration weight cutoff        WCut        ...    1.0000e-14
Grids for H and He will be reduced by one unit

# of grid points (after initial pruning)     ...  32382 (   0.0 sec)
# of grid points (after weights+screening)   ...  31994 (   0.0 sec)
nearest neighbour list constructed           ...    0.0 sec
Grid point re-assignment to atoms done       ...    0.0 sec
Grid point division into batches done        ...    0.2 sec
Reduced shell lists constructed in    0.2 sec

Total number of grid points                  ...    31994
Total number of batches                      ...      501
Average number of points per batch           ...       63
Average number of grid points per atom       ...    10665
Average number of shells per batch           ...    11.76 (65.33%)
Average number of basis functions per batch  ...    27.21 (64.78%)
Average number of large shells per batch     ...     8.90 (75.66%)
Average number of large basis fcns per batch ...    21.31 (78.33%)
Maximum spatial batch extension              ...  27.58, 27.58,  2.19 au
Average spatial batch extension              ...   0.40,  0.37,  0.12 au

Time for grid setup =    0.322 sec

------------------------------
INITIAL GUESS: MODEL POTENTIAL
------------------------------
Loading Hartree-Fock densities                     ... done
Calculating cut-offs                               ... done
Setting up the integral package                    ... done
Initializing the effective Hamiltonian             ... done
Starting the Coulomb interaction                   ... done (   0.0 sec)
Reading the grid                                   ... done
Mapping shells                                     ... done
Starting the XC term evaluation                    ... done (   0.0 sec)
  promolecular density results
     # of electrons  =     21.999994215
     EX              =    -19.410232655
     EC              =     -1.510707646
     EX+EC           =    -20.920940300
Transforming the Hamiltonian                       ... done (   0.0 sec)
Diagonalizing the Hamiltonian                      ... done (   0.0 sec)
Back transforming the eigenvectors                 ... done (   0.0 sec)
Now organizing SCF variables                       ... done
                      ------------------
                      INITIAL GUESS DONE (   0.4 sec)
                      ------------------
--------------
SCF ITERATIONS
--------------
ITER       Energy         Delta-E        Max-DP      RMS-DP      [F,P]     Damp
               ***  Starting incremental Fock matrix formation  ***
  0   -187.0955474825   0.000000000000 0.07187310  0.00552743  0.1992354 0.7000
  1   -187.1487378194  -0.053190336901 0.03408895  0.00264352  0.0598737 0.7000
                               ***Turning on DIIS***
  2   -187.1604582453  -0.011720425917 0.03001003  0.00238878  0.0179239 0.0000
  3   -187.1923402513  -0.031882006018 0.02616203  0.00168190  0.0310150 0.0000
  4   -187.1940517203  -0.001711468960 0.01115157  0.00061640  0.0144802 0.0000
  5   -187.1946084489  -0.000556728627 0.00230705  0.00013737  0.0039265 0.0000
                      *** Initiating the SOSCF procedure ***
                           *** Shutting down DIIS ***
                      *** Re-Reading the Fockian *** 
                      *** Removing any level shift *** 
ITER      Energy       Delta-E        Grad      Rot      Max-DP    RMS-DP
  6   -187.19464320  -0.0000347482  0.000194  0.000194  0.000775  0.000040
               *** Restarting incremental Fock matrix formation ***
  7   -187.19464522  -0.0000020253  0.000044  0.000097  0.000169  0.000010
  8   -187.19464517   0.0000000552  0.000099  0.000066  0.000109  0.000007
  9   -187.19464524  -0.0000000687  0.000004  0.000004  0.000006  0.000001
 10   -187.19464524  -0.0000000000  0.000003  0.000002  0.000003  0.000000
                 **** Energy Check signals convergence ****
              ***Rediagonalizing the Fockian in SOSCF/NRSCF***

               *****************************************************
               *                     SUCCESS                       *
               *           SCF CONVERGED AFTER  11 CYCLES          *
               *****************************************************

Setting up the final grid:

General Integration Accuracy     IntAcc      ...  5.340
Radial Grid Type                 RadialGrid  ... Gauss-Chebyshev
Angular Grid (max. acc.)         AngularGrid ... Lebedev-590
Angular grid pruning method      GridPruning ... 3 (G Style)
Weight generation scheme         WeightScheme... Becke
Basis function cutoff            BFCut       ...    1.0000e-12
Integration weight cutoff        WCut        ...    1.0000e-14
Grids for H and He will be reduced by one unit

# of grid points (after initial pruning)     ...  49704 (   0.0 sec)
# of grid points (after weights+screening)   ...  49052 (   0.0 sec)
nearest neighbour list constructed           ...    0.0 sec
Grid point re-assignment to atoms done       ...    0.0 sec
Grid point division into batches done        ...    0.5 sec
Reduced shell lists constructed in    0.6 sec

Total number of grid points                  ...    49052
Total number of batches                      ...      768
Average number of points per batch           ...       63
Average number of grid points per atom       ...    16351
Average number of shells per batch           ...    11.23 (62.37%)
Average number of basis functions per batch  ...    25.77 (61.36%)
Average number of large shells per batch     ...     7.89 (70.24%)
Average number of large basis fcns per batch ...    18.70 (72.57%)
Maximum spatial batch extension              ...  23.52, 23.52,  2.17 au
Average spatial batch extension              ...   0.31,  0.31,  0.11 au

Final grid set up in    0.6 sec
Final integration                            ... done (   0.0 sec)
Change in XC energy                          ...    -0.000000005
Integrated number of electrons               ...    21.999999121
Previous integrated no of electrons          ...    21.999995253

----------------
TOTAL SCF ENERGY
----------------

Total Energy       :         -187.19464524 Eh           -5093.82526 eV

Components:
Nuclear Repulsion  :           58.28644924 Eh            1586.05492 eV
Electronic Energy  :         -245.48109448 Eh           -6679.88018 eV
One Electron Energy:         -372.66265073 Eh          -10140.66627 eV
Two Electron Energy:          127.18155625 Eh            3460.78609 eV

Virial components:
Potential Energy   :         -374.40536541 Eh          -10188.08795 eV
Kinetic Energy     :          187.21072017 Eh            5094.26268 eV
Virial Ratio       :            1.99991413


DFT components:
N(Alpha)           :       10.999999560657 electrons
N(Beta)            :       10.999999560657 electrons
N(Total)           :       21.999999121313 electrons
E(X)               :      -19.615669044918 Eh       
E(C)               :       -1.522721229763 Eh       
E(XC)              :      -21.138390274681 Eh       
DFET-embed. en.    :        0.000000000000 Eh       

---------------
SCF CONVERGENCE
---------------

  Last Energy change         ...   -8.1570e-11  Tolerance :   1.0000e-09
  Last MAX-Density change    ...    6.7943e-09  Tolerance :   1.0000e-08
  Last RMS-Density change    ...    5.2897e-10  Tolerance :   1.0000e-09
  Last Orbital Gradient      ...    4.7779e-09  Tolerance :   2.0000e-06
  Last Orbital Rotation      ...    3.6774e-09  Tolerance :   2.0000e-06

             **** THE GBW FILE WAS UPDATED (CO2_cc-pvdz_.gbw) ****
             **** DENSITY FILE WAS UPDATED (CO2_cc-pvdz_.scfp) ****
             **** ENERGY FILE WAS UPDATED (CO2_cc-pvdz_.en.tmp) ****
             **** THE GBW FILE WAS UPDATED (CO2_cc-pvdz_.gbw) ****
             **** DENSITY FILE WAS UPDATED (CO2_cc-pvdz_.scfp) ****
----------------
ORBITAL ENERGIES
----------------

  NO   OCC          E(Eh)            E(eV) 
   0   2.0000     -18.685901      -508.4692 
   1   2.0000     -18.685893      -508.4690 
   2   2.0000      -9.957617      -270.9605 
   3   2.0000      -1.060131       -28.8476 
   4   2.0000      -1.024390       -27.8751 
   5   2.0000      -0.492958       -13.4141 
   6   2.0000      -0.463449       -12.6111 
   7   2.0000      -0.463449       -12.6111 
   8   2.0000      -0.455772       -12.4022 
   9   2.0000      -0.324543        -8.8313 
  10   2.0000      -0.324543        -8.8313 
  11   0.0000      -0.004926        -0.1340 
  12   0.0000      -0.004926        -0.1340 
  13   0.0000       0.045710         1.2438 
  14   0.0000       0.316895         8.6231 
  15   0.0000       0.376242        10.2381 
  16   0.0000       0.376242        10.2381 
  17   0.0000       0.497494        13.5375 
  18   0.0000       0.690598        18.7921 
  19   0.0000       0.780994        21.2519 
  20   0.0000       0.804504        21.8917 
  21   0.0000       0.804504        21.8917 
  22   0.0000       0.981011        26.6947 
  23   0.0000       0.981011        26.6947 
  24   0.0000       0.998857        27.1803 
  25   0.0000       1.021793        27.8044 
  26   0.0000       1.021793        27.8044 
  27   0.0000       1.231479        33.5103 
  28   0.0000       1.231479        33.5103 
  29   0.0000       1.529770        41.6272 
  30   0.0000       1.966483        53.5107 
  31   0.0000       2.436610        66.3035 
  32   0.0000       2.436610        66.3035 
  33   0.0000       2.564317        69.7786 
  34   0.0000       2.564317        69.7786 
  35   0.0000       2.628827        71.5340 
  36   0.0000       2.654364        72.2289 
  37   0.0000       2.654364        72.2289 
  38   0.0000       3.278079        89.2011 
  39   0.0000       3.387884        92.1890 
  40   0.0000       3.387884        92.1890 
  41   0.0000       3.415081        92.9291 

                    ********************************
                    * MULLIKEN POPULATION ANALYSIS *
                    ********************************

-----------------------
MULLIKEN ATOMIC CHARGES
-----------------------
   0 C :    0.203930
   1 O :   -0.101965
   2 O :   -0.101965
Sum of atomic charges:   -0.0000000

--------------------------------
MULLIKEN REDUCED ORBITAL CHARGES
--------------------------------
  0 C s       :     2.908722  s :     2.908722
      pz      :     0.927744  p :     2.658218
      px      :     0.865237
      py      :     0.865237
      dz2     :     0.047385  d :     0.229130
      dxz     :     0.090873
      dyz     :     0.090873
      dx2y2   :     0.000000
      dxy     :     0.000000
  1 O s       :     3.715363  s :     3.715363
      pz      :     1.333066  p :     4.363779
      px      :     1.515356
      py      :     1.515356
      dz2     :     0.009645  d :     0.022823
      dxz     :     0.006589
      dyz     :     0.006589
      dx2y2   :     0.000000
      dxy     :     0.000000
  2 O s       :     3.715363  s :     3.715363
      pz      :     1.333066  p :     4.363779
      px      :     1.515356
      py      :     1.515356
      dz2     :     0.009645  d :     0.022823
      dxz     :     0.006589
      dyz     :     0.006589
      dx2y2   :     0.000000
      dxy     :     0.000000


                     *******************************
                     * LOEWDIN POPULATION ANALYSIS *
                     *******************************

----------------------
LOEWDIN ATOMIC CHARGES
----------------------
   0 C :   -0.217360
   1 O :    0.108680
   2 O :    0.108680

-------------------------------
LOEWDIN REDUCED ORBITAL CHARGES
-------------------------------
  0 C s       :     2.830955  s :     2.830955
      pz      :     1.107887  p :     2.813703
      px      :     0.852908
      py      :     0.852908
      dz2     :     0.161993  d :     0.572702
      dxz     :     0.205355
      dyz     :     0.205355
      dx2y2   :     0.000000
      dxy     :     0.000000
  1 O s       :     3.470463  s :     3.470463
      pz      :     1.457346  p :     4.382040
      px      :     1.462347
      py      :     1.462347
      dz2     :     0.021773  d :     0.038816
      dxz     :     0.008521
      dyz     :     0.008521
      dx2y2   :     0.000000
      dxy     :     0.000000
  2 O s       :     3.470463  s :     3.470463
      pz      :     1.457346  p :     4.382040
      px      :     1.462347
      py      :     1.462347
      dz2     :     0.021773  d :     0.038816
      dxz     :     0.008521
      dyz     :     0.008521
      dx2y2   :     0.000000
      dxy     :     0.000000


                      *****************************
                      * MAYER POPULATION ANALYSIS *
                      *****************************

  NA   - Mulliken gross atomic population
  ZA   - Total nuclear charge
  QA   - Mulliken gross atomic charge
  VA   - Mayer's total valence
  BVA  - Mayer's bonded valence
  FA   - Mayer's free valence

  ATOM       NA         ZA         QA         VA         BVA        FA
  0 C      5.7961     6.0000     0.2039     4.5526     4.5526    -0.0000
  1 O      8.1020     8.0000    -0.1020     2.5653     2.5653    -0.0000
  2 O      8.1020     8.0000    -0.1020     2.5653     2.5653    -0.0000

  Mayer bond orders larger than 0.100000
B(  0-C ,  1-O ) :   2.2763 B(  0-C ,  2-O ) :   2.2763 B(  1-O ,  2-O ) :   0.2890 


-------
TIMINGS
-------

Total SCF time: 0 days 0 hours 0 min 2 sec 

Total time                  ....       2.683 sec
Sum of individual times     ....       2.510 sec  ( 93.6%)

Fock matrix formation       ....       1.539 sec  ( 57.4%)
  XC integration            ....       0.074 sec  (  4.8% of F)
    Basis function eval.    ....       0.024 sec  ( 32.5% of XC)
    Density eval.           ....       0.005 sec  (  7.1% of XC)
    XC-Functional eval.     ....       0.008 sec  ( 10.8% of XC)
    XC-Potential eval.      ....       0.005 sec  (  6.8% of XC)
Diagonalization             ....       0.002 sec  (  0.1%)
Density matrix formation    ....       0.001 sec  (  0.0%)
Population analysis         ....       0.001 sec  (  0.0%)
Initial guess               ....       0.074 sec  (  2.7%)
Orbital Transformation      ....       0.000 sec  (  0.0%)
Orbital Orthonormalization  ....       0.000 sec  (  0.0%)
DIIS solution               ....       0.001 sec  (  0.0%)
SOSCF solution              ....       0.001 sec  (  0.0%)
Grid generation             ....       0.892 sec  ( 33.2%)

-------------------------   --------------------
FINAL SINGLE POINT ENERGY      -187.194645240609
-------------------------   --------------------


                            ***************************************
                            *     ORCA property calculations      *
                            ***************************************

                                    ---------------------
                                    Active property flags
                                    ---------------------
   (+) Dipole Moment


------------------------------------------------------------------------------
                       ORCA ELECTRIC PROPERTIES CALCULATION
------------------------------------------------------------------------------

Dipole Moment Calculation                       ... on
Quadrupole Moment Calculation                   ... off
Polarizability Calculation                      ... off
GBWName                                         ... CO2_cc-pvdz_.gbw
Electron density file                           ... CO2_cc-pvdz_.scfp
The origin for moment calculation is the CENTER OF MASS  = ( 0.000000,  0.000000  0.000000)

-------------
DIPOLE MOMENT
-------------
                                X             Y             Z
Electronic contribution:      0.00000      -0.00000       0.00000
Nuclear contribution   :      0.00000       0.00000       0.00000
                        -----------------------------------------
Total Dipole Moment    :      0.00000      -0.00000       0.00000
                        -----------------------------------------
Magnitude (a.u.)       :      0.00000
Magnitude (Debye)      :      0.00000



--------------------
Rotational spectrum 
--------------------
 
Rotational constants in cm-1:     0.000000     0.390110     0.390110 
Rotational constants in MHz :     0.000000 11695.203081 11695.203081 

 Dipole components along the rotational axes: 
x,y,z [a.u.] :     0.000000    -0.000000     0.000000 
x,y,z [Debye]:     0.000000    -0.000000     0.000000 

 

Timings for individual modules:

Sum of individual times         ...        3.431 sec (=   0.057 min)
GTO integral calculation        ...        0.500 sec (=   0.008 min)  14.6 %
SCF iterations                  ...        2.931 sec (=   0.049 min)  85.4 %
                             ****ORCA TERMINATED NORMALLY****
TOTAL RUN TIME: 0 days 0 hours 0 minutes 3 seconds 747 msec
