
                                 *****************
                                 * O   R   C   A *
                                 *****************

           --- An Ab Initio, DFT and Semiempirical electronic structure package ---

                  #######################################################
                  #                        -***-                        #
                  #          Department of theory and spectroscopy      #
                  #               Directorship: Frank Neese             #
                  #        Max Planck Institute fuer Kohlenforschung    #
                  #                Kaiser Wilhelm Platz 1               #
                  #                 D-45470 Muelheim/Ruhr               #
                  #                      Germany                        #
                  #                                                     #
                  #                  All rights reserved                #
                  #                        -***-                        #
                  #######################################################


                         Program Version 4.2.1 -  RELEASE  -


 With contributions from (in alphabetic order):
   Daniel Aravena         : Magnetic Suceptibility
   Michael Atanasov       : Ab Initio Ligand Field Theory (pilot matlab implementation)
   Alexander A. Auer      : GIAO ZORA, VPT2
   Ute Becker             : Parallelization
   Giovanni Bistoni       : ED, misc. LED, open-shell LED, HFLD
   Martin Brehm           : Molecular dynamics
   Dmytro Bykov           : SCF Hessian
   Vijay G. Chilkuri      : MRCI spin determinant printing, contributions to CSF-ICE
   Dipayan Datta          : RHF DLPNO-CCSD density
   Achintya Kumar Dutta   : EOM-CC, STEOM-CC
   Dmitry Ganyushin       : Spin-Orbit,Spin-Spin,Magnetic field MRCI
   Miquel Garcia          : C-PCM Hessian, Gaussian charge scheme
   Yang Guo               : DLPNO-NEVPT2, CIM, IAO-localization
   Andreas Hansen         : Spin unrestricted coupled pair/coupled cluster methods
   Benjamin Helmich-Paris : CASSCF linear response (MC-RPA)
   Lee Huntington         : MR-EOM, pCC
   Robert Izsak           : Overlap fitted RIJCOSX, COSX-SCS-MP3, EOM
   Christian Kollmar      : KDIIS, OOCD, Brueckner-CCSD(T), CCSD density
   Simone Kossmann        : Meta GGA functionals, TD-DFT gradient, OOMP2, MP2 Hessian
   Martin Krupicka        : AUTO-CI
   Lucas Lang             : DCDCAS
   Dagmar Lenk            : GEPOL surface, SMD
   Dimitrios Liakos       : Extrapolation schemes; Compound Job, initial MDCI parallelization
   Dimitrios Manganas     : Further ROCIS development; embedding schemes
   Dimitrios Pantazis     : SARC Basis sets
   Taras Petrenko         : DFT Hessian,TD-DFT gradient, ASA, ECA, R-Raman, ABS, FL, XAS/XES, NRVS
   Peter Pinski           : DLPNO-MP2, DLPNO-MP2 Gradient
   Christoph Reimann      : Effective Core Potentials
   Marius Retegan         : Local ZFS, SOC
   Christoph Riplinger    : Optimizer, TS searches, QM/MM, DLPNO-CCSD(T), (RO)-DLPNO pert. Triples
   Tobias Risthaus        : Range-separated hybrids, TD-DFT gradient, RPA, STAB
   Michael Roemelt        : Original ROCIS implementation
   Masaaki Saitow         : Open-shell DLPNO-CCSD energy and density
   Barbara Sandhoefer     : DKH picture change effects
   Avijit Sen             : IP-ROCIS
   Kantharuban Sivalingam : CASSCF convergence, NEVPT2, FIC-MRCI
   Bernardo de Souza      : ESD, SOC TD-DFT
   Georgi Stoychev        : AutoAux, RI-MP2 NMR
   Willem Van den Heuvel  : Paramagnetic NMR
   Boris Wezisla          : Elementary symmetry handling
   Frank Wennmohs         : Technical directorship


 We gratefully acknowledge several colleagues who have allowed us to
 interface, adapt or use parts of their codes:
   Stefan Grimme, W. Hujo, H. Kruse,             : VdW corrections, initial TS optimization,
                  C. Bannwarth                     DFT functionals, gCP, sTDA/sTD-DF
   Ed Valeev, F. Pavosevic, A. Kumar             : LibInt (2-el integral package), F12 methods
   Garnet Chan, S. Sharma, J. Yang, R. Olivares  : DMRG
   Ulf Ekstrom                                   : XCFun DFT Library
   Mihaly Kallay                                 : mrcc  (arbitrary order and MRCC methods)
   Andreas Klamt, Michael Diedenhofen            : otool_cosmo (COSMO solvation model)
   Jiri Pittner, Ondrej Demel                    : Mk-CCSD
   Frank Weinhold                                : gennbo (NPA and NBO analysis)
   Christopher J. Cramer and Donald G. Truhlar   : smd solvation model
   Lars Goerigk                                  : TD-DFT with DH, B97 family of functionals
   V. Asgeirsson, H. Jonsson                     : NEB implementation
   FAccTs GmbH                                   : IRC, NEB, NEB-TS, Multilevel, MM, QM/MM, CI optimization
   S Lehtola, MJT Oliveira, MAL Marques          : LibXC Library


 Your calculation uses the libint2 library for the computation of 2-el integrals
 For citations please refer to: http://libint.valeyev.net

 Your ORCA version has been built with support for libXC version: 4.2.3
 For citations please refer to: https://tddft.org/programs/libxc/

 This ORCA versions uses:
   CBLAS   interface :  Fast vector & matrix operations
   LAPACKE interface :  Fast linear algebra routines
   SCALAPACK package :  Parallel linear algebra routines


----- Orbital basis set information -----
Your calculation utilizes the basis: ZORA-def2-QZVPP 
   Exponents from def2-QZVPP [F. Weigend and R. Ahlrichs, Phys. Chem. Chem. Phys. 7, 3297 (2005)],
   recontracted for ZORA by D. A. Pantazis.

================================================================================
                                        WARNINGS
                       Please study these warnings very carefully!
================================================================================


INFO   : the flag for use of LIBINT has been found!

================================================================================
                                       INPUT FILE
================================================================================
NAME = CrCO6_zora-def2-qzvpp_.inp
|  1> ! LDA zora-def2-qzvpp nori grid5 finalgrid6 verytightscf
|  2> %Pal NProcs 18 End
|  3> 
|  4> *xyz 0 1
|  5> Cr -7.024455 2.159906 2.687477
|  6> C -5.745125 2.453969 4.046034
|  7> C -5.747986 1.193764 1.686659
|  8> C -6.493665 3.759856 1.835371
|  9> C -8.300845 3.126754 3.687779
| 10> O -9.070901 3.715082 4.291407
| 11> O -4.974179 2.632342 4.869002
| 12> O -4.977695 0.606824 1.081974
| 13> O -6.176347 4.727975 1.320041
| 14> C -8.304393 1.866232 1.329334
| 15> O -9.076187 1.688738 0.506975
| 16> C -7.553951 0.559352 3.539091
| 17> O -7.868850 -0.410064 4.053526
| 18> **                         ****END OF INPUT****
================================================================================

                       ****************************
                       * Single Point Calculation *
                       ****************************

---------------------------------
CARTESIAN COORDINATES (ANGSTROEM)
---------------------------------
  Cr    -7.024455    2.159906    2.687477
  C     -5.745125    2.453969    4.046034
  C     -5.747986    1.193764    1.686659
  C     -6.493665    3.759856    1.835371
  C     -8.300845    3.126754    3.687779
  O     -9.070901    3.715082    4.291407
  O     -4.974179    2.632342    4.869002
  O     -4.977695    0.606824    1.081974
  O     -6.176347    4.727975    1.320041
  C     -8.304393    1.866232    1.329334
  O     -9.076187    1.688738    0.506975
  C     -7.553951    0.559352    3.539091
  O     -7.868850   -0.410064    4.053526

----------------------------
CARTESIAN COORDINATES (A.U.)
----------------------------
  NO LB      ZA    FRAG     MASS         X           Y           Z
   0 Cr   24.0000    0    52.000  -13.274296    4.081631    5.078596
   1 C     6.0000    0    12.011  -10.856713    4.637329    7.645896
   2 C     6.0000    0    12.011  -10.862119    2.255887    3.187324
   3 C     6.0000    0    12.011  -12.271248    7.105098    3.468349
   4 C     6.0000    0    12.011  -15.686324    5.908709    6.968892
   5 O     8.0000    0    15.999  -17.141519    7.020488    8.109584
   6 O     8.0000    0    15.999   -9.399836    4.974405    9.201080
   7 O     8.0000    0    15.999   -9.406480    1.146731    2.044635
   8 O     8.0000    0    15.999  -11.671604    8.934578    2.494516
   9 C     6.0000    0    12.011  -15.693028    3.526667    2.512077
  10 O     8.0000    0    15.999  -17.151508    3.191252    0.958044
  11 C     6.0000    0    12.011  -14.274899    1.057022    6.687913
  12 O     8.0000    0    15.999  -14.869971   -0.774909    7.660054

--------------------------------
INTERNAL COORDINATES (ANGSTROEM)
--------------------------------
 Cr     0   0   0     0.000000000000     0.00000000     0.00000000
 C      1   0   0     1.889136156850     0.00000000     0.00000000
 C      1   2   0     1.887972494834    90.17268949     0.00000000
 C      1   2   3     1.888825736228    90.12994878   269.75154899
 C      1   2   3     1.888007038760    89.83361627   180.02586796
 O      5   1   2     1.141701730359   179.78568509    78.20180125
 O      2   1   3     1.141687781781   179.84904619   198.36638731
 O      3   1   2     1.141705188525   179.84011127   110.82040068
 O      4   1   2     1.141713676972   179.81553639   228.83211052
 C      1   2   3     1.889189802685   179.97481620   177.80260240
 O     10   1   3     1.141684905459   179.88269785   329.31770467
 C      1   2   3     1.888752372845    89.85704854    89.70767146
 O     12   1   2     1.141740833325   179.72277377   302.31452055

---------------------------
INTERNAL COORDINATES (A.U.)
---------------------------
 Cr     0   0   0     0.000000000000     0.00000000     0.00000000
 C      1   0   0     3.569949966135     0.00000000     0.00000000
 C      1   2   0     3.567750963612    90.17268949     0.00000000
 C      1   2   3     3.569363356172    90.12994878   269.75154899
 C      1   2   3     3.567816242172    89.83361627   180.02586796
 O      5   1   2     2.157503597002   179.78568509    78.20180125
 O      2   1   3     2.157477238011   179.84904619   198.36638731
 O      3   1   2     2.157510131990   179.84011127   110.82040068
 O      4   1   2     2.157526172829   179.81553639   228.83211052
 C      1   2   3     3.570051342071   179.97481620   177.80260240
 O     10   1   3     2.157471802549   179.88269785   329.31770467
 C      1   2   3     3.569224719471    89.85704854    89.70767146
 O     12   1   2     2.157577490900   179.72277377   302.31452055

---------------------
BASIS SET INFORMATION
---------------------
There are 3 groups of distinct atoms

 Group   1 Type Cr  : 24s18p9d3f2g contracted to 14s10p5d3f2g pattern {111111111111111/9111111111/51111/111/11}
 Group   2 Type C   : 15s8p3d2f1g contracted to 8s4p3d2f1g pattern {81111111/5111/111/11/1}
 Group   3 Type O   : 15s8p3d2f1g contracted to 8s4p3d2f1g pattern {81111111/5111/111/11/1}

Atom   0Cr   basis set group =>   1
Atom   1C    basis set group =>   2
Atom   2C    basis set group =>   2
Atom   3C    basis set group =>   2
Atom   4C    basis set group =>   2
Atom   5O    basis set group =>   3
Atom   6O    basis set group =>   3
Atom   7O    basis set group =>   3
Atom   8O    basis set group =>   3
Atom   9C    basis set group =>   2
Atom  10O    basis set group =>   3
Atom  11C    basis set group =>   2
Atom  12O    basis set group =>   3


           ************************************************************
           *        Program running with 18 parallel MPI-processes    *
           *              working on a common directory               *
           ************************************************************
------------------------------------------------------------------------------
                           ORCA GTO INTEGRAL CALCULATION
------------------------------------------------------------------------------

                         BASIS SET STATISTICS AND STARTUP INFO

 # of primitive gaussian shells          ...  404
 # of primitive gaussian functions       ... 1086
 # of contracted shells                  ...  250
 # of contracted basis functions         ...  804
 Highest angular momentum                ...    4
 Maximum contraction depth               ...   11
 Integral package used                   ... LIBINT
 Integral threshhold            Thresh   ...  1.000e-12
 Primitive cut-off              TCut     ...  1.000e-14


------------------------------ INTEGRAL EVALUATION ----------------------------


 * One electron integrals 
 Pre-screening matrix                    ... done
 Shell pair data                         ... done (   0.005 sec)



           ************************************************************
           *        Program running with 18 parallel MPI-processes    *
           *              working on a common directory               *
           ************************************************************
-------------------------------------------------------------------------------
                                 ORCA SCF
-------------------------------------------------------------------------------

------------
SCF SETTINGS
------------
Hamiltonian:
 Density Functional     Method          .... DFT(GTOs)
 Exchange Functional    Exchange        .... Slater
   X-Alpha parameter    XAlpha          ....  0.666667
 Correlation Functional Correlation     .... VWN-5
 Gradients option       PostSCFGGA      .... off
   Density functional embedding theory  .... OFF


General Settings:
 Integral files         IntName         .... CrCO6_zora-def2-qzvpp_
 Hartree-Fock type      HFTyp           .... RHF
 Total Charge           Charge          ....    0
 Multiplicity           Mult            ....    1
 Number of Electrons    NEL             ....  108
 Basis Dimension        Dim             ....  804
 Nuclear Repulsion      ENuc            ....    990.7648602126 Eh

Convergence Acceleration:
 DIIS                   CNVDIIS         .... on
   Start iteration      DIISMaxIt       ....    12
   Startup error        DIISStart       ....  0.200000
   # of expansion vecs  DIISMaxEq       ....     5
   Bias factor          DIISBfac        ....   1.050
   Max. coefficient     DIISMaxC        ....  10.000
 Newton-Raphson         CNVNR           .... off
 SOSCF                  CNVSOSCF        .... off
 Level Shifting         CNVShift        .... on
   Level shift para.    LevelShift      ....    0.2500
   Turn off err/grad.   ShiftErr        ....    0.0010
 Zerner damping         CNVZerner       .... off
 Static damping         CNVDamp         .... on
   Fraction old density DampFac         ....    0.7000
   Max. Damping (<1)    DampMax         ....    0.9800
   Min. Damping (>=0)   DampMin         ....    0.0000
   Turn off err/grad.   DampErr         ....    0.1000
 Fernandez-Rico         CNVRico         .... off

SCF Procedure:
 Maximum # iterations   MaxIter         ....   125
 SCF integral mode      SCFMode         .... Direct
   Integral package                     .... LIBINT
 Reset frequency        DirectResetFreq ....    20
 Integral Threshold     Thresh          ....  1.000e-12 Eh
 Primitive CutOff       TCut            ....  1.000e-14 Eh

Convergence Tolerance:
 Convergence Check Mode ConvCheckMode   .... Total+1el-Energy
 Convergence forced     ConvForced      .... 0
 Energy Change          TolE            ....  1.000e-09 Eh
 1-El. energy change                    ....  1.000e-06 Eh
 DIIS Error             TolErr          ....  1.000e-08


Diagonalization of the overlap matrix:
Smallest eigenvalue                        ... 1.656e-05
Time for diagonalization                   ...    0.095 sec
Threshold for overlap eigenvalues          ... 1.000e-08
Number of eigenvalues below threshold      ... 0
Time for construction of square roots      ...    0.074 sec
Total time needed                          ...    0.171 sec

-------------------
DFT GRID GENERATION
-------------------

General Integration Accuracy     IntAcc      ...  5.010
Radial Grid Type                 RadialGrid  ... Gauss-Chebyshev
Angular Grid (max. acc.)         AngularGrid ... Lebedev-434
Angular grid pruning method      GridPruning ... 3 (G Style)
Weight generation scheme         WeightScheme... Becke
Basis function cutoff            BFCut       ...    1.0000e-12
Integration weight cutoff        WCut        ...    1.0000e-14
Grids for H and He will be reduced by one unit

# of grid points (after initial pruning)     ... 145118 (   0.0 sec)
# of grid points (after weights+screening)   ... 135473 (   0.0 sec)
nearest neighbour list constructed           ...    0.0 sec
Grid point re-assignment to atoms done       ...    0.0 sec
Grid point division into batches done        ...    1.0 sec
Reduced shell lists constructed in    1.1 sec

Total number of grid points                  ...   135473
Total number of batches                      ...     2124
Average number of points per batch           ...       63
Average number of grid points per atom       ...    10421
Average number of shells per batch           ...   155.32 (62.13%)
Average number of basis functions per batch  ...   567.55 (70.59%)
Average number of large shells per batch     ...   127.11 (81.84%)
Average number of large basis fcns per batch ...   462.13 (81.43%)
Maximum spatial batch extension              ...   1.46,  1.50,  1.68 au
Average spatial batch extension              ...   0.05,  0.05,  0.05 au

Time for grid setup =    1.165 sec

------------------------------
INITIAL GUESS: MODEL POTENTIAL
------------------------------
Loading Hartree-Fock densities                     ... done
Calculating cut-offs                               ... done
Setting up the integral package                    ... done
Initializing the effective Hamiltonian             ... done
Starting the Coulomb interaction                   ... done (   0.1 sec)
Reading the grid                                   ... done
Mapping shells                                     ... done
Starting the XC term evaluation                    ... done (   0.2 sec)
  promolecular density results
     # of electrons  =    107.999996107
     EX              =   -116.419010039
     EC              =     -7.724978562
     EX+EC           =   -124.143988601
Transforming the Hamiltonian                       ... done (   0.1 sec)
Diagonalizing the Hamiltonian                      ... done (   0.1 sec)
Back transforming the eigenvectors                 ... done (   0.0 sec)
Now organizing SCF variables                       ... done
                      ------------------
                      INITIAL GUESS DONE (   1.7 sec)
                      ------------------
--------------
SCF ITERATIONS
--------------
ITER       Energy         Delta-E        Max-DP      RMS-DP      [F,P]     Damp
               ***  Starting incremental Fock matrix formation  ***
  0  -1717.3107555478   0.000000000000 0.04618479  0.00033446  0.1996383 0.7000
  1  -1717.4173877849  -0.106632237108 0.02122698  0.00016993  0.0946342 0.7000
                               ***Turning on DIIS***
  2  -1717.4518052398  -0.034417454919 0.05794282  0.00034943  0.0668603 0.0000
  3  -1717.4696654247  -0.017860184873 0.01019547  0.00005436  0.2211095 0.7000
  4  -1717.5002144634  -0.030549038677 0.00974603  0.00005274  0.1585199 0.7000
  5  -1717.5204776479  -0.020263184578 0.02189710  0.00012395  0.0940305 0.0000
  6  -1717.5330863275  -0.012608679601 0.00538469  0.00003323  0.0446685 0.0000
  7  -1717.5360141944  -0.002927866856 0.00165644  0.00001438  0.0113681 0.0000
  8  -1717.5362096413  -0.000195446867 0.00076252  0.00000645  0.0030256 0.0000
  9  -1717.5362776397  -0.000067998493 0.00044802  0.00000184  0.0015563 0.0000
 10  -1717.5362823823  -0.000004742590 0.00020322  0.00000106  0.0009904 0.0000
 11  -1717.5362840197  -0.000001637354 0.00001540  0.00000016  0.0000441 0.0000
 12  -1717.5362840251  -0.000000005403 0.00000917  0.00000007  0.0000444 0.0000
 13  -1717.5362840298  -0.000000004716 0.00000285  0.00000002  0.0000102 0.0000
 14  -1717.5362840299  -0.000000000090 0.00000149  0.00000002  0.0000070 0.0000
 15  -1717.5362840300  -0.000000000052 0.00000269  0.00000001  0.0000033 0.0000
 16  -1717.5362840300  -0.000000000045 0.00000237  0.00000001  0.0000009 0.0000
 17  -1717.5362840299   0.000000000095 0.00000520  0.00000003  0.0000009 0.0000
 18  -1717.5362840305  -0.000000000619 0.00000422  0.00000002  0.0000001 0.0000
 19  -1717.5362840300   0.000000000501 0.00000328  0.00000001  0.0000002 0.0000
               *** Restarting incremental Fock matrix formation ***
                                   *** Resetting DIIS ***
 20  -1717.5362840305  -0.000000000442 0.00000968  0.00000004  0.0000001 0.0000
 21  -1717.5362840299   0.000000000548 0.00000080  0.00000000  0.0000006 0.0000
 22  -1717.5362840293   0.000000000578 0.00000094  0.00000000  0.0000001 0.0000
                 **** Energy Check signals convergence ****

               *****************************************************
               *                     SUCCESS                       *
               *           SCF CONVERGED AFTER  23 CYCLES          *
               *****************************************************

Setting up the final grid:

General Integration Accuracy     IntAcc      ...  5.340
Radial Grid Type                 RadialGrid  ... Gauss-Chebyshev
Angular Grid (max. acc.)         AngularGrid ... Lebedev-590
Angular grid pruning method      GridPruning ... 3 (G Style)
Weight generation scheme         WeightScheme... Becke
Basis function cutoff            BFCut       ...    1.0000e-12
Integration weight cutoff        WCut        ...    1.0000e-14
Grids for H and He will be reduced by one unit

# of grid points (after initial pruning)     ... 222408 (   0.0 sec)
# of grid points (after weights+screening)   ... 206964 (   0.0 sec)
nearest neighbour list constructed           ...    0.0 sec
Grid point re-assignment to atoms done       ...    0.0 sec
Grid point division into batches done        ...    2.4 sec
Reduced shell lists constructed in    2.6 sec

Total number of grid points                  ...   206964
Total number of batches                      ...     3241
Average number of points per batch           ...       63
Average number of grid points per atom       ...    15920
Average number of shells per batch           ...   154.95 (61.98%)
Average number of basis functions per batch  ...   566.76 (70.49%)
Average number of large shells per batch     ...   126.15 (81.41%)
Average number of large basis fcns per batch ...   459.20 (81.02%)
Maximum spatial batch extension              ...   1.25,  1.29,  1.33 au
Average spatial batch extension              ...   0.04,  0.04,  0.04 au

Final grid set up in    2.7 sec
Final integration                            ... done (   0.6 sec)
Change in XC energy                          ...     0.000013240
Integrated number of electrons               ...   107.999987634
Previous integrated no of electrons          ...   108.000015108

----------------
TOTAL SCF ENERGY
----------------

Total Energy       :        -1717.53627079 Eh          -46736.53797 eV

Components:
Nuclear Repulsion  :          990.76486021 Eh           26960.08247 eV
Electronic Energy  :        -2708.30113100 Eh          -73696.62044 eV
One Electron Energy:        -4336.15669072 Eh         -117992.82219 eV
Two Electron Energy:         1627.85555972 Eh           44296.20176 eV

Virial components:
Potential Energy   :        -3429.84830200 Eh          -93330.91715 eV
Kinetic Energy     :         1712.31203121 Eh           46594.37918 eV
Virial Ratio       :            2.00305099


DFT components:
N(Alpha)           :       53.999993817196 electrons
N(Beta)            :       53.999993817196 electrons
N(Total)           :      107.999987634392 electrons
E(X)               :     -116.833850859675 Eh       
E(C)               :       -7.756678044878 Eh       
E(XC)              :     -124.590528904553 Eh       
DFET-embed. en.    :        0.000000000000 Eh       

---------------
SCF CONVERGENCE
---------------

  Last Energy change         ...    4.5702e-11  Tolerance :   1.0000e-09
  Last MAX-Density change    ...    6.3353e-06  Tolerance :   1.0000e-08
  Last RMS-Density change    ...    2.2402e-08  Tolerance :   1.0000e-09
  Last DIIS Error            ...    2.0791e-08  Tolerance :   1.0000e-08

             **** THE GBW FILE WAS UPDATED (CrCO6_zora-def2-qzvpp_.gbw) ****
             **** DENSITY FILE WAS UPDATED (CrCO6_zora-def2-qzvpp_.scfp) ****
             **** ENERGY FILE WAS UPDATED (CrCO6_zora-def2-qzvpp_.en.tmp) ****
             **** THE GBW FILE WAS UPDATED (CrCO6_zora-def2-qzvpp_.gbw) ****
             **** DENSITY FILE WAS UPDATED (CrCO6_zora-def2-qzvpp_.scfp) ****
----------------
ORBITAL ENERGIES
----------------

  NO   OCC          E(Eh)            E(eV) 
   0   2.0000    -213.932021     -5821.3862 
   1   2.0000     -24.223835      -659.1641 
   2   2.0000     -20.632478      -561.4383 
   3   2.0000     -20.632461      -561.4378 
   4   2.0000     -20.632389      -561.4358 
   5   2.0000     -18.707262      -509.0505 
   6   2.0000     -18.707255      -509.0503 
   7   2.0000     -18.707218      -509.0493 
   8   2.0000     -18.707203      -509.0489 
   9   2.0000     -18.707120      -509.0466 
  10   2.0000     -18.707116      -509.0465 
  11   2.0000      -9.921388      -269.9747 
  12   2.0000      -9.921384      -269.9746 
  13   2.0000      -9.921350      -269.9737 
  14   2.0000      -9.921337      -269.9733 
  15   2.0000      -9.921241      -269.9707 
  16   2.0000      -9.921241      -269.9707 
  17   2.0000      -2.731202       -74.3198 
  18   2.0000      -1.737337       -47.2753 
  19   2.0000      -1.737235       -47.2726 
  20   2.0000      -1.737012       -47.2665 
  21   2.0000      -1.064390       -28.9635 
  22   2.0000      -1.063341       -28.9350 
  23   2.0000      -1.063280       -28.9333 
  24   2.0000      -1.063208       -28.9314 
  25   2.0000      -1.062869       -28.9221 
  26   2.0000      -1.062795       -28.9201 
  27   2.0000      -0.568895       -15.4804 
  28   2.0000      -0.522027       -14.2051 
  29   2.0000      -0.521975       -14.2037 
  30   2.0000      -0.521641       -14.1946 
  31   2.0000      -0.518966       -14.1218 
  32   2.0000      -0.518918       -14.1205 
  33   2.0000      -0.465840       -12.6762 
  34   2.0000      -0.456183       -12.4134 
  35   2.0000      -0.456116       -12.4116 
  36   2.0000      -0.455949       -12.4070 
  37   2.0000      -0.450667       -12.2633 
  38   2.0000      -0.450555       -12.2602 
  39   2.0000      -0.450250       -12.2519 
  40   2.0000      -0.436583       -11.8800 
  41   2.0000      -0.436350       -11.8737 
  42   2.0000      -0.436311       -11.8726 
  43   2.0000      -0.429241       -11.6802 
  44   2.0000      -0.429203       -11.6792 
  45   2.0000      -0.429174       -11.6784 
  46   2.0000      -0.422662       -11.5012 
  47   2.0000      -0.422611       -11.4998 
  48   2.0000      -0.382321       -10.4035 
  49   2.0000      -0.382170       -10.3994 
  50   2.0000      -0.381596       -10.3838 
  51   2.0000      -0.249104        -6.7785 
  52   2.0000      -0.249030        -6.7764 
  53   2.0000      -0.248718        -6.7680 
  54   0.0000      -0.099367        -2.7039 
  55   0.0000      -0.099190        -2.6991 
  56   0.0000      -0.098662        -2.6847 
  57   0.0000      -0.085630        -2.3301 
  58   0.0000      -0.085008        -2.3132 
  59   0.0000      -0.084830        -2.3084 
  60   0.0000      -0.060107        -1.6356 
  61   0.0000      -0.060013        -1.6330 
  62   0.0000      -0.059930        -1.6308 
  63   0.0000      -0.043036        -1.1711 
  64   0.0000      -0.042840        -1.1657 
  65   0.0000      -0.036759        -1.0003 
  66   0.0000      -0.036671        -0.9979 
  67   0.0000      -0.036588        -0.9956 
  68   0.0000      -0.019786        -0.5384 
  69   0.0000       0.009239         0.2514 
  70   0.0000       0.009258         0.2519 
  71   0.0000       0.009356         0.2546 
  72   0.0000       0.089767         2.4427 
  73   0.0000       0.089817         2.4440 
  74   0.0000       0.102624         2.7925 
  75   0.0000       0.102980         2.8022 
  76   0.0000       0.103005         2.8029 
  77   0.0000       0.103475         2.8157 
  78   0.0000       0.135884         3.6976 
  79   0.0000       0.136026         3.7015 
  80   0.0000       0.136431         3.7125 
  81   0.0000       0.152671         4.1544 
  82   0.0000       0.152679         4.1546 
  83   0.0000       0.152686         4.1548 
  84   0.0000       0.156043         4.2462 
  85   0.0000       0.156061         4.2466 
  86   0.0000       0.156178         4.2498 
  87   0.0000       0.180824         4.9205 
  88   0.0000       0.180829         4.9206 
  89   0.0000       0.209336         5.6963 
  90   0.0000       0.209644         5.7047 
  91   0.0000       0.210475         5.7273 
  92   0.0000       0.220964         6.0127 
  93   0.0000       0.223363         6.0780 
  94   0.0000       0.235421         6.4061 
  95   0.0000       0.235472         6.4075 
  96   0.0000       0.235477         6.4077 
  97   0.0000       0.277940         7.5631 
  98   0.0000       0.278183         7.5697 
  99   0.0000       0.278970         7.5912 
 100   0.0000       0.306402         8.3376 
 101   0.0000       0.334010         9.0889 
 102   0.0000       0.334109         9.0916 
 103   0.0000       0.362059         9.8521 
 104   0.0000       0.362105         9.8534 
 105   0.0000       0.368062        10.0155 
 106   0.0000       0.368296        10.0219 
 107   0.0000       0.368348        10.0233 
 108   0.0000       0.368522        10.0280 
 109   0.0000       0.369027        10.0417 
 110   0.0000       0.369190        10.0462 
 111   0.0000       0.407881        11.0990 
 112   0.0000       0.409543        11.1442 
 113   0.0000       0.410114        11.1598 
 114   0.0000       0.429697        11.6927 
 115   0.0000       0.443797        12.0763 
 116   0.0000       0.443991        12.0816 
 117   0.0000       0.444404        12.0929 
 118   0.0000       0.447177        12.1683 
 119   0.0000       0.449333        12.2270 
 120   0.0000       0.450193        12.2504 
 121   0.0000       0.486278        13.2323 
 122   0.0000       0.486357        13.2345 
 123   0.0000       0.486446        13.2369 
 124   0.0000       0.523715        14.2510 
 125   0.0000       0.523861        14.2550 
 126   0.0000       0.526008        14.3134 
 127   0.0000       0.531812        14.4713 
 128   0.0000       0.532015        14.4769 
 129   0.0000       0.532069        14.4783 
 130   0.0000       0.534307        14.5392 
 131   0.0000       0.534432        14.5426 
 132   0.0000       0.534472        14.5437 
 133   0.0000       0.542740        14.7687 
 134   0.0000       0.542892        14.7729 
 135   0.0000       0.572546        15.5798 
 136   0.0000       0.572899        15.5894 
 137   0.0000       0.573921        15.6172 
 138   0.0000       0.616269        16.7695 
 139   0.0000       0.618214        16.8224 
 140   0.0000       0.618297        16.8247 
 141   0.0000       0.618331        16.8256 
 142   0.0000       0.631028        17.1711 
 143   0.0000       0.631096        17.1730 
 144   0.0000       0.631816        17.1926 
 145   0.0000       0.632427        17.2092 
 146   0.0000       0.632615        17.2143 
 147   0.0000       0.678741        18.4695 
 148   0.0000       0.680249        18.5105 
 149   0.0000       0.680394        18.5145 
 150   0.0000       0.680460        18.5163 
 151   0.0000       0.680725        18.5235 
 152   0.0000       0.681406        18.5420 
 153   0.0000       0.704480        19.1699 
 154   0.0000       0.739921        20.1343 
 155   0.0000       0.740211        20.1422 
 156   0.0000       0.740352        20.1460 
 157   0.0000       0.746957        20.3257 
 158   0.0000       0.747369        20.3370 
 159   0.0000       0.787740        21.4355 
 160   0.0000       0.787891        21.4396 
 161   0.0000       0.788060        21.4442 
 162   0.0000       0.819770        22.3071 
 163   0.0000       0.820203        22.3189 
 164   0.0000       0.821632        22.3578 
 165   0.0000       0.831400        22.6236 
 166   0.0000       0.831876        22.6365 
 167   0.0000       0.833394        22.6778 
 168   0.0000       0.859788        23.3960 
 169   0.0000       0.888381        24.1741 
 170   0.0000       0.897841        24.4315 
 171   0.0000       0.898008        24.4360 
 172   0.0000       0.898278        24.4434 
 173   0.0000       0.904240        24.6056 
 174   0.0000       0.905346        24.6357 
 175   0.0000       0.905854        24.6495 
 176   0.0000       0.918338        24.9892 
 177   0.0000       0.932171        25.3657 
 178   0.0000       0.932387        25.3715 
 179   0.0000       0.968035        26.3416 
 180   0.0000       0.968045        26.3418 
 181   0.0000       1.063232        28.9320 
 182   0.0000       1.064856        28.9762 
 183   0.0000       1.065776        29.0012 
 184   0.0000       1.130259        30.7559 
 185   0.0000       1.130899        30.7733 
 186   0.0000       1.130961        30.7750 
 187   0.0000       1.139093        30.9963 
 188   0.0000       1.145348        31.1665 
 189   0.0000       1.145560        31.1723 
 190   0.0000       1.158518        31.5249 
 191   0.0000       1.202640        32.7255 
 192   0.0000       1.204140        32.7663 
 193   0.0000       1.204806        32.7844 
 194   0.0000       1.250052        34.0156 
 195   0.0000       1.251213        34.0472 
 196   0.0000       1.254854        34.1463 
 197   0.0000       1.257101        34.2075 
 198   0.0000       1.257310        34.2132 
 199   0.0000       1.257836        34.2275 
 200   0.0000       1.286765        35.0147 
 201   0.0000       1.318474        35.8775 
 202   0.0000       1.318928        35.8898 
 203   0.0000       1.320081        35.9212 
 204   0.0000       1.327903        36.1341 
 205   0.0000       1.328011        36.1370 
 206   0.0000       1.359457        36.9927 
 207   0.0000       1.359670        36.9985 
 208   0.0000       1.360019        37.0080 
 209   0.0000       1.373021        37.3618 
 210   0.0000       1.373309        37.3696 
 211   0.0000       1.374003        37.3885 
 212   0.0000       1.395149        37.9639 
 213   0.0000       1.395753        37.9804 
 214   0.0000       1.433586        39.0099 
 215   0.0000       1.433827        39.0164 
 216   0.0000       1.433848        39.0170 
 217   0.0000       1.445441        39.3324 
 218   0.0000       1.447268        39.3822 
 219   0.0000       1.447749        39.3953 
 220   0.0000       1.448671        39.4203 
 221   0.0000       1.448783        39.4234 
 222   0.0000       1.449085        39.4316 
 223   0.0000       1.515423        41.2368 
 224   0.0000       1.515750        41.2457 
 225   0.0000       1.517275        41.2872 
 226   0.0000       1.529404        41.6172 
 227   0.0000       1.593941        43.3733 
 228   0.0000       1.594006        43.3751 
 229   0.0000       1.601882        43.5894 
 230   0.0000       1.602613        43.6093 
 231   0.0000       1.605755        43.6948 
 232   0.0000       1.666586        45.3501 
 233   0.0000       1.666845        45.3572 
 234   0.0000       1.667932        45.3867 
 235   0.0000       1.673906        45.5493 
 236   0.0000       1.675986        45.6059 
 237   0.0000       1.676253        45.6132 
 238   0.0000       1.676376        45.6165 
 239   0.0000       1.676421        45.6177 
 240   0.0000       1.676804        45.6282 
 241   0.0000       1.687766        45.9264 
 242   0.0000       1.687849        45.9287 
 243   0.0000       1.688021        45.9334 
 244   0.0000       1.695452        46.1356 
 245   0.0000       1.773829        48.2683 
 246   0.0000       1.775262        48.3073 
 247   0.0000       1.775795        48.3218 
 248   0.0000       1.789197        48.6865 
 249   0.0000       1.789367        48.6912 
 250   0.0000       1.790817        48.7306 
 251   0.0000       1.791587        48.7516 
 252   0.0000       1.793800        48.8118 
 253   0.0000       1.834374        49.9159 
 254   0.0000       1.834692        49.9245 
 255   0.0000       1.885756        51.3140 
 256   0.0000       1.886117        51.3239 
 257   0.0000       1.886343        51.3300 
 258   0.0000       1.896395        51.6035 
 259   0.0000       1.896461        51.6053 
 260   0.0000       1.905893        51.8620 
 261   0.0000       1.906710        51.8842 
 262   0.0000       1.908864        51.9428 
 263   0.0000       1.917984        52.1910 
 264   0.0000       1.936553        52.6963 
 265   0.0000       1.937226        52.7146 
 266   0.0000       1.939574        52.7785 
 267   0.0000       1.946631        52.9705 
 268   0.0000       1.954021        53.1716 
 269   0.0000       1.954251        53.1779 
 270   0.0000       1.954614        53.1877 
 271   0.0000       1.955374        53.2084 
 272   0.0000       1.959084        53.3094 
 273   0.0000       1.960754        53.3548 
 274   0.0000       1.978999        53.8513 
 275   0.0000       1.979366        53.8613 
 276   0.0000       1.979694        53.8702 
 277   0.0000       2.016313        54.8667 
 278   0.0000       2.036871        55.4261 
 279   0.0000       2.037377        55.4398 
 280   0.0000       2.094472        56.9935 
 281   0.0000       2.096673        57.0534 
 282   0.0000       2.097464        57.0749 
 283   0.0000       2.098675        57.1079 
 284   0.0000       2.099992        57.1437 
 285   0.0000       2.100039        57.1450 
 286   0.0000       2.103895        57.2499 
 287   0.0000       2.105937        57.3055 
 288   0.0000       2.224209        60.5238 
 289   0.0000       2.224687        60.5368 
 290   0.0000       2.224878        60.5420 
 291   0.0000       2.245368        61.0996 
 292   0.0000       2.246198        61.1222 
 293   0.0000       2.248261        61.1783 
 294   0.0000       2.273422        61.8629 
 295   0.0000       2.331002        63.4298 
 296   0.0000       2.334911        63.5362 
 297   0.0000       2.336414        63.5771 
 298   0.0000       2.347967        63.8914 
 299   0.0000       2.348090        63.8948 
 300   0.0000       2.348624        63.9093 
 301   0.0000       2.354644        64.0731 
 302   0.0000       2.354683        64.0742 
 303   0.0000       2.370684        64.5096 
 304   0.0000       2.389492        65.0214 
 305   0.0000       2.389743        65.0282 
 306   0.0000       2.390309        65.0436 
 307   0.0000       2.401186        65.3396 
 308   0.0000       2.401547        65.3494 
 309   0.0000       2.469008        67.1851 
 310   0.0000       2.548254        69.3415 
 311   0.0000       2.549704        69.3810 
 312   0.0000       2.549873        69.3856 
 313   0.0000       2.619600        71.2829 
 314   0.0000       2.619881        71.2906 
 315   0.0000       2.619948        71.2924 
 316   0.0000       2.649419        72.0944 
 317   0.0000       2.649889        72.1071 
 318   0.0000       2.650444        72.1222 
 319   0.0000       2.734473        74.4088 
 320   0.0000       2.755941        74.9930 
 321   0.0000       2.756265        75.0018 
 322   0.0000       2.756453        75.0069 
 323   0.0000       2.775996        75.5387 
 324   0.0000       2.777528        75.5804 
 325   0.0000       2.781433        75.6866 
 326   0.0000       2.904714        79.0413 
 327   0.0000       2.904804        79.0437 
 328   0.0000       2.965995        80.7088 
 329   0.0000       2.966264        80.7162 
 330   0.0000       2.966276        80.7165 
 331   0.0000       2.973172        80.9041 
 332   0.0000       2.973265        80.9067 
 333   0.0000       2.973532        80.9139 
 334   0.0000       2.976516        80.9951 
 335   0.0000       3.021703        82.2247 
 336   0.0000       3.022633        82.2500 
 337   0.0000       3.022938        82.2583 
 338   0.0000       3.034911        82.5841 
 339   0.0000       3.035572        82.6021 
 340   0.0000       3.035760        82.6072 
 341   0.0000       3.055378        83.1411 
 342   0.0000       3.055866        83.1543 
 343   0.0000       3.133054        85.2547 
 344   0.0000       3.134308        85.2889 
 345   0.0000       3.137073        85.3641 
 346   0.0000       3.138926        85.4145 
 347   0.0000       3.139362        85.4264 
 348   0.0000       3.140216        85.4496 
 349   0.0000       3.258523        88.6689 
 350   0.0000       3.259573        88.6975 
 351   0.0000       3.262349        88.7730 
 352   0.0000       3.275007        89.1175 
 353   0.0000       3.275948        89.1431 
 354   0.0000       3.278378        89.2092 
 355   0.0000       3.286869        89.4403 
 356   0.0000       3.287838        89.4666 
 357   0.0000       3.289786        89.5196 
 358   0.0000       3.399811        92.5136 
 359   0.0000       3.451407        93.9176 
 360   0.0000       3.452328        93.9426 
 361   0.0000       3.453358        93.9706 
 362   0.0000       3.517440        95.7144 
 363   0.0000       3.517762        95.7232 
 364   0.0000       3.542249        96.3895 
 365   0.0000       3.542881        96.4067 
 366   0.0000       3.636336        98.9497 
 367   0.0000       3.636484        98.9538 
 368   0.0000       3.636590        98.9567 
 369   0.0000       3.671792        99.9146 
 370   0.0000       3.703895       100.7881 
 371   0.0000       3.727433       101.4286 
 372   0.0000       3.727479       101.4299 
 373   0.0000       3.728043       101.4452 
 374   0.0000       3.759618       102.3044 
 375   0.0000       3.760223       102.3209 
 376   0.0000       3.760496       102.3283 
 377   0.0000       3.763409       102.4076 
 378   0.0000       3.777646       102.7950 
 379   0.0000       3.777813       102.7995 
 380   0.0000       3.785464       103.0077 
 381   0.0000       3.789392       103.1146 
 382   0.0000       3.791015       103.1588 
 383   0.0000       3.794734       103.2600 
 384   0.0000       3.794793       103.2616 
 385   0.0000       3.807775       103.6148 
 386   0.0000       3.847041       104.6833 
 387   0.0000       3.847305       104.6905 
 388   0.0000       3.848640       104.7268 
 389   0.0000       3.855618       104.9167 
 390   0.0000       3.856156       104.9314 
 391   0.0000       3.856364       104.9370 
 392   0.0000       3.862551       105.1053 
 393   0.0000       3.862688       105.1091 
 394   0.0000       3.868942       105.2793 
 395   0.0000       3.887825       105.7931 
 396   0.0000       3.888082       105.8001 
 397   0.0000       3.888670       105.8161 
 398   0.0000       4.068879       110.7198 
 399   0.0000       4.069775       110.7442 
 400   0.0000       4.071619       110.7944 
 401   0.0000       4.103701       111.6674 
 402   0.0000       4.104188       111.6806 
 403   0.0000       4.104410       111.6867 
 404   0.0000       4.120191       112.1161 
 405   0.0000       4.121216       112.1440 
 406   0.0000       4.123577       112.2082 
 407   0.0000       4.166575       113.3783 
 408   0.0000       4.167382       113.4002 
 409   0.0000       4.231957       115.1574 
 410   0.0000       4.238288       115.3297 
 411   0.0000       4.238905       115.3465 
 412   0.0000       4.284512       116.5875 
 413   0.0000       4.348984       118.3419 
 414   0.0000       4.349436       118.3542 
 415   0.0000       4.349633       118.3595 
 416   0.0000       4.367707       118.8513 
 417   0.0000       4.367905       118.8568 
 418   0.0000       4.368472       118.8722 
 419   0.0000       4.417355       120.2023 
 420   0.0000       4.418008       120.2201 
 421   0.0000       4.422582       120.3446 
 422   0.0000       4.472153       121.6935 
 423   0.0000       4.472689       121.7081 
 424   0.0000       4.473601       121.7329 
 425   0.0000       4.485407       122.0541 
 426   0.0000       4.485733       122.0630 
 427   0.0000       4.486626       122.0873 
 428   0.0000       4.540722       123.5593 
 429   0.0000       4.542306       123.6024 
 430   0.0000       4.542753       123.6146 
 431   0.0000       4.583569       124.7253 
 432   0.0000       4.584131       124.7406 
 433   0.0000       4.584483       124.7501 
 434   0.0000       4.600377       125.1826 
 435   0.0000       4.600479       125.1854 
 436   0.0000       4.627193       125.9123 
 437   0.0000       4.627382       125.9175 
 438   0.0000       4.627419       125.9185 
 439   0.0000       4.656803       126.7181 
 440   0.0000       4.656851       126.7194 
 441   0.0000       4.666801       126.9901 
 442   0.0000       4.667698       127.0145 
 443   0.0000       4.672797       127.1533 
 444   0.0000       4.673935       127.1842 
 445   0.0000       4.677031       127.2685 
 446   0.0000       4.692566       127.6912 
 447   0.0000       4.692671       127.6941 
 448   0.0000       4.731054       128.7385 
 449   0.0000       4.731379       128.7474 
 450   0.0000       4.731488       128.7503 
 451   0.0000       4.739000       128.9548 
 452   0.0000       4.831727       131.4780 
 453   0.0000       4.832359       131.4952 
 454   0.0000       4.832418       131.4968 
 455   0.0000       4.860476       132.2603 
 456   0.0000       4.860780       132.2685 
 457   0.0000       4.861166       132.2791 
 458   0.0000       4.908774       133.5745 
 459   0.0000       4.908963       133.5797 
 460   0.0000       4.909068       133.5825 
 461   0.0000       4.910777       133.6290 
 462   0.0000       4.911459       133.6476 
 463   0.0000       4.911584       133.6510 
 464   0.0000       5.018186       136.5518 
 465   0.0000       5.019602       136.5903 
 466   0.0000       5.022387       136.6661 
 467   0.0000       5.033371       136.9650 
 468   0.0000       5.033554       136.9700 
 469   0.0000       5.034181       136.9870 
 470   0.0000       5.038156       137.0952 
 471   0.0000       5.039608       137.1347 
 472   0.0000       5.039943       137.1438 
 473   0.0000       5.053328       137.5081 
 474   0.0000       5.165390       140.5574 
 475   0.0000       5.166548       140.5889 
 476   0.0000       5.274454       143.5252 
 477   0.0000       5.274913       143.5377 
 478   0.0000       5.275483       143.5532 
 479   0.0000       5.353884       145.6866 
 480   0.0000       5.356851       145.7673 
 481   0.0000       5.358003       145.7987 
 482   0.0000       5.470224       148.8524 
 483   0.0000       5.470292       148.8542 
 484   0.0000       5.473392       148.9386 
 485   0.0000       5.473878       148.9518 
 486   0.0000       5.473962       148.9541 
 487   0.0000       5.473992       148.9549 
 488   0.0000       5.485123       149.2578 
 489   0.0000       5.504063       149.7732 
 490   0.0000       5.504982       149.7982 
 491   0.0000       5.505375       149.8089 
 492   0.0000       5.555611       151.1759 
 493   0.0000       5.555858       151.1826 
 494   0.0000       5.558266       151.2481 
 495   0.0000       5.558366       151.2508 
 496   0.0000       5.558911       151.2657 
 497   0.0000       5.603280       152.4730 
 498   0.0000       5.603365       152.4753 
 499   0.0000       5.603556       152.4805 
 500   0.0000       5.661071       154.0456 
 501   0.0000       5.661320       154.0524 
 502   0.0000       5.661402       154.0546 
 503   0.0000       5.668029       154.2349 
 504   0.0000       5.716400       155.5512 
 505   0.0000       5.717075       155.5695 
 506   0.0000       5.718605       155.6112 
 507   0.0000       5.722625       155.7205 
 508   0.0000       5.722877       155.7274 
 509   0.0000       5.723482       155.7439 
 510   0.0000       5.761080       156.7670 
 511   0.0000       5.763985       156.8460 
 512   0.0000       5.764282       156.8541 
 513   0.0000       5.783697       157.3824 
 514   0.0000       5.785818       157.4401 
 515   0.0000       5.785841       157.4407 
 516   0.0000       5.791614       157.5978 
 517   0.0000       5.791682       157.5997 
 518   0.0000       5.793040       157.6366 
 519   0.0000       5.835274       158.7859 
 520   0.0000       5.836869       158.8293 
 521   0.0000       5.837476       158.8458 
 522   0.0000       5.880589       160.0190 
 523   0.0000       5.880902       160.0275 
 524   0.0000       5.913364       160.9108 
 525   0.0000       5.913819       160.9232 
 526   0.0000       5.916158       160.9868 
 527   0.0000       5.918454       161.0493 
 528   0.0000       5.919820       161.0865 
 529   0.0000       5.923921       161.1981 
 530   0.0000       5.936819       161.5491 
 531   0.0000       5.967150       162.3744 
 532   0.0000       5.970413       162.4632 
 533   0.0000       5.971589       162.4952 
 534   0.0000       5.996058       163.1610 
 535   0.0000       5.996296       163.1675 
 536   0.0000       6.020752       163.8330 
 537   0.0000       6.020986       163.8394 
 538   0.0000       6.021814       163.8619 
 539   0.0000       6.055406       164.7760 
 540   0.0000       6.055668       164.7831 
 541   0.0000       6.056204       164.7977 
 542   0.0000       6.056412       164.8033 
 543   0.0000       6.056852       164.8153 
 544   0.0000       6.102057       166.0454 
 545   0.0000       6.102548       166.0588 
 546   0.0000       6.186904       168.3542 
 547   0.0000       6.190229       168.4447 
 548   0.0000       6.191078       168.4678 
 549   0.0000       6.268623       170.5779 
 550   0.0000       6.302814       171.5083 
 551   0.0000       6.303145       171.5173 
 552   0.0000       6.303310       171.5218 
 553   0.0000       6.305804       171.5897 
 554   0.0000       6.307558       171.6374 
 555   0.0000       6.313987       171.8123 
 556   0.0000       6.325171       172.1166 
 557   0.0000       6.325289       172.1199 
 558   0.0000       6.326124       172.1426 
 559   0.0000       6.410689       174.4437 
 560   0.0000       6.455569       175.6650 
 561   0.0000       6.477062       176.2498 
 562   0.0000       6.478143       176.2792 
 563   0.0000       6.480424       176.3413 
 564   0.0000       6.511365       177.1833 
 565   0.0000       6.512123       177.2039 
 566   0.0000       6.533841       177.7949 
 567   0.0000       6.536090       177.8561 
 568   0.0000       6.537235       177.8872 
 569   0.0000       6.582100       179.1081 
 570   0.0000       6.582784       179.1266 
 571   0.0000       6.583733       179.1525 
 572   0.0000       6.938832       188.8152 
 573   0.0000       6.939668       188.8380 
 574   0.0000       7.149584       194.5501 
 575   0.0000       7.150185       194.5664 
 576   0.0000       7.152698       194.6348 
 577   0.0000       7.216870       196.3810 
 578   0.0000       7.468689       203.2334 
 579   0.0000       7.470384       203.2795 
 580   0.0000       7.636921       207.8112 
 581   0.0000       7.638837       207.8633 
 582   0.0000       7.640223       207.9010 
 583   0.0000       7.655581       208.3189 
 584   0.0000       7.656178       208.3352 
 585   0.0000       7.659106       208.4149 
 586   0.0000       7.664854       208.5713 
 587   0.0000       7.665094       208.5778 
 588   0.0000       7.665198       208.5806 
 589   0.0000       7.766068       211.3255 
 590   0.0000       7.766826       211.3461 
 591   0.0000       7.767073       211.3528 
 592   0.0000       7.862873       213.9596 
 593   0.0000       7.863570       213.9786 
 594   0.0000       7.863777       213.9842 
 595   0.0000       7.867605       214.0884 
 596   0.0000       8.347502       227.1471 
 597   0.0000       8.348021       227.1612 
 598   0.0000       8.660339       235.6598 
 599   0.0000       8.660382       235.6610 
 600   0.0000       8.660455       235.6630 
 601   0.0000       8.660525       235.6649 
 602   0.0000       8.660578       235.6663 
 603   0.0000       8.660589       235.6666 
 604   0.0000       8.660622       235.6675 
 605   0.0000       8.660695       235.6695 
 606   0.0000       8.660739       235.6707 
 607   0.0000       8.660981       235.6773 
 608   0.0000       8.661029       235.6786 
 609   0.0000       8.661101       235.6806 
 610   0.0000       8.927937       242.9415 
 611   0.0000       8.927993       242.9430 
 612   0.0000       8.927997       242.9432 
 613   0.0000       8.928451       242.9555 
 614   0.0000       8.928512       242.9572 
 615   0.0000       8.928524       242.9575 
 616   0.0000       8.928922       242.9683 
 617   0.0000       8.928976       242.9698 
 618   0.0000       8.928986       242.9701 
 619   0.0000       8.939570       243.2581 
 620   0.0000       8.939626       243.2596 
 621   0.0000       8.939651       243.2603 
 622   0.0000       9.554672       259.9959 
 623   0.0000       9.618835       261.7418 
 624   0.0000       9.619154       261.7505 
 625   0.0000       9.624986       261.9092 
 626   0.0000       9.626508       261.9506 
 627   0.0000       9.627541       261.9787 
 628   0.0000       9.763735       265.6847 
 629   0.0000       9.763813       265.6869 
 630   0.0000       9.765938       265.7447 
 631   0.0000       9.798086       266.6195 
 632   0.0000       9.798468       266.6299 
 633   0.0000       9.798767       266.6380 
 634   0.0000       9.832697       267.5613 
 635   0.0000       9.832944       267.5680 
 636   0.0000       9.833674       267.5879 
 637   0.0000       9.849561       268.0202 
 638   0.0000       9.860050       268.3056 
 639   0.0000       9.862640       268.3761 
 640   0.0000       9.862697       268.3776 
 641   0.0000      10.093201       274.6500 
 642   0.0000      10.112712       275.1809 
 643   0.0000      10.112751       275.1819 
 644   0.0000      10.113311       275.1972 
 645   0.0000      10.204185       277.6700 
 646   0.0000      10.204676       277.6833 
 647   0.0000      10.322746       280.8962 
 648   0.0000      10.324040       280.9314 
 649   0.0000      10.326059       280.9864 
 650   0.0000      10.326623       281.0017 
 651   0.0000      10.327323       281.0207 
 652   0.0000      10.327507       281.0258 
 653   0.0000      10.345078       281.5039 
 654   0.0000      10.345716       281.5212 
 655   0.0000      10.345857       281.5251 
 656   0.0000      10.366056       282.0747 
 657   0.0000      10.366596       282.0894 
 658   0.0000      10.366691       282.0920 
 659   0.0000      10.746657       292.4314 
 660   0.0000      10.746782       292.4348 
 661   0.0000      10.746797       292.4352 
 662   0.0000      10.750481       292.5355 
 663   0.0000      10.750615       292.5391 
 664   0.0000      10.750852       292.5455 
 665   0.0000      10.752369       292.5868 
 666   0.0000      10.752432       292.5886 
 667   0.0000      10.752476       292.5897 
 668   0.0000      10.753164       292.6085 
 669   0.0000      10.753245       292.6107 
 670   0.0000      10.753332       292.6130 
 671   0.0000      10.972961       298.5895 
 672   0.0000      11.106403       302.2206 
 673   0.0000      11.106505       302.2234 
 674   0.0000      11.106897       302.2340 
 675   0.0000      11.125013       302.7270 
 676   0.0000      11.125353       302.7362 
 677   0.0000      11.126508       302.7677 
 678   0.0000      11.141203       303.1675 
 679   0.0000      11.141356       303.1717 
 680   0.0000      11.145440       303.2828 
 681   0.0000      11.145454       303.2832 
 682   0.0000      11.200136       304.7712 
 683   0.0000      11.236352       305.7567 
 684   0.0000      11.236772       305.7681 
 685   0.0000      11.238469       305.8143 
 686   0.0000      11.283308       307.0344 
 687   0.0000      11.362973       309.2022 
 688   0.0000      11.363969       309.2293 
 689   0.0000      11.368585       309.3549 
 690   0.0000      11.373104       309.4779 
 691   0.0000      11.374234       309.5087 
 692   0.0000      11.374773       309.5233 
 693   0.0000      11.561892       314.6151 
 694   0.0000      11.562372       314.6281 
 695   0.0000      11.562637       314.6353 
 696   0.0000      11.630595       316.4846 
 697   0.0000      11.631279       316.5032 
 698   0.0000      11.699650       318.3637 
 699   0.0000      11.700745       318.3935 
 700   0.0000      11.701011       318.4007 
 701   0.0000      11.731542       319.2315 
 702   0.0000      11.734374       319.3086 
 703   0.0000      11.734618       319.3152 
 704   0.0000      11.735193       319.3308 
 705   0.0000      11.738772       319.4282 
 706   0.0000      11.739284       319.4421 
 707   0.0000      11.740542       319.4764 
 708   0.0000      11.789865       320.8185 
 709   0.0000      11.814490       321.4886 
 710   0.0000      11.814605       321.4917 
 711   0.0000      11.857685       322.6640 
 712   0.0000      11.857810       322.6674 
 713   0.0000      11.858322       322.6814 
 714   0.0000      11.880659       323.2892 
 715   0.0000      11.881299       323.3066 
 716   0.0000      11.881767       323.3193 
 717   0.0000      11.884148       323.3841 
 718   0.0000      11.905755       323.9721 
 719   0.0000      11.906924       324.0039 
 720   0.0000      11.907547       324.0208 
 721   0.0000      11.917457       324.2905 
 722   0.0000      11.917487       324.2913 
 723   0.0000      12.036627       327.5333 
 724   0.0000      12.037377       327.5537 
 725   0.0000      12.037598       327.5597 
 726   0.0000      12.048159       327.8471 
 727   0.0000      12.048565       327.8581 
 728   0.0000      12.282342       334.2195 
 729   0.0000      12.309174       334.9496 
 730   0.0000      12.310150       334.9762 
 731   0.0000      12.312287       335.0344 
 732   0.0000      13.205642       359.3438 
 733   0.0000      13.205861       359.3497 
 734   0.0000      13.205944       359.3520 
 735   0.0000      13.267721       361.0330 
 736   0.0000      13.268032       361.0415 
 737   0.0000      13.268109       361.0436 
 738   0.0000      13.288569       361.6004 
 739   0.0000      13.288688       361.6036 
 740   0.0000      13.288834       361.6075 
 741   0.0000      13.484832       366.9409 
 742   0.0000      13.485541       366.9602 
 743   0.0000      13.485739       366.9656 
 744   0.0000      13.735230       373.7546 
 745   0.0000      13.778146       374.9224 
 746   0.0000      13.779250       374.9524 
 747   0.0000      13.780095       374.9755 
 748   0.0000      13.834864       376.4658 
 749   0.0000      13.835162       376.4739 
 750   0.0000      14.416591       392.2954 
 751   0.0000      14.644592       398.4996 
 752   0.0000      14.646426       398.5495 
 753   0.0000      14.648034       398.5933 
 754   0.0000      14.649374       398.6297 
 755   0.0000      14.649825       398.6420 
 756   0.0000      27.080327       736.8931 
 757   0.0000      27.080793       736.9058 
 758   0.0000      27.082135       736.9424 
 759   0.0000      27.090626       737.1734 
 760   0.0000      27.091145       737.1875 
 761   0.0000      27.252646       741.5822 
 762   0.0000      29.118841       792.3639 
 763   0.0000      45.927847      1249.7603 
 764   0.0000      46.095613      1254.3254 
 765   0.0000      46.096791      1254.3575 
 766   0.0000      46.097500      1254.3767 
 767   0.0000      46.159608      1256.0668 
 768   0.0000      46.160030      1256.0783 
 769   0.0000      72.105827      1962.0993 
 770   0.0000      72.109072      1962.1876 
 771   0.0000      72.111134      1962.2437 
 772   0.0000      88.649477      2412.2749 
 773   0.0000     100.600021      2737.4657 
 774   0.0000     100.600425      2737.4767 
 775   0.0000     100.601634      2737.5096 
 776   0.0000     100.613506      2737.8327 
 777   0.0000     100.613892      2737.8432 
 778   0.0000     100.763968      2741.9270 
 779   0.0000     171.067151      4654.9738 
 780   0.0000     171.200323      4658.5976 
 781   0.0000     171.201191      4658.6212 
 782   0.0000     171.201770      4658.6370 
 783   0.0000     171.266770      4660.4057 
 784   0.0000     171.267125      4660.4154 
 785   0.0000     187.727793      5108.3330 
 786   0.0000     187.752852      5109.0148 
 787   0.0000     187.768316      5109.4356 
 788   0.0000     262.546254      7144.2468 
 789   0.0000     518.166204     14100.0192 
 790   0.0000     518.167384     14100.0514 
 791   0.0000     518.170641     14100.1400 
 792   0.0000     518.215569     14101.3625 
 793   0.0000     518.216466     14101.3869 
 794   0.0000     518.585328     14111.4242 
 795   0.0000     786.755092     21408.6945 
 796   0.0000     873.760471     23776.2312 
 797   0.0000     874.099400     23785.4539 
 798   0.0000     874.101758     23785.5181 
 799   0.0000     874.103050     23785.5532 
 800   0.0000     874.218265     23788.6884 
 801   0.0000     874.218958     23788.7072 
 802   0.0000    2606.479178     70925.9042 
 803   0.0000   13006.246737    353917.9666 

                    ********************************
                    * MULLIKEN POPULATION ANALYSIS *
                    ********************************

-----------------------
MULLIKEN ATOMIC CHARGES
-----------------------
   0 Cr:    0.562422
   1 C :   -0.006730
   2 C :   -0.006598
   3 C :   -0.006692
   4 C :   -0.006675
   5 O :   -0.087086
   6 O :   -0.086966
   7 O :   -0.087096
   8 O :   -0.087019
   9 C :   -0.006752
  10 O :   -0.086952
  11 C :   -0.006796
  12 O :   -0.087059
Sum of atomic charges:    0.0000000

--------------------------------
MULLIKEN REDUCED ORBITAL CHARGES
--------------------------------
  0 Crs       :     6.273996  s :     6.273996
      pz      :     4.052690  p :    12.159289
      px      :     4.054254
      py      :     4.052346
      dz2     :     1.138040  d :     4.953282
      dxz     :     0.822754
      dyz     :     0.961786
      dx2y2   :     1.028827
      dxy     :     1.001875
      f0      :     0.005866  f :     0.047322
      f+1     :     0.007269
      f-1     :     0.002316
      f+2     :     0.010430
      f-2     :     0.011016
      f+3     :     0.004969
      f-3     :     0.005455
      g0      :     0.000324  g :     0.003689
      g+1     :     0.000265
      g-1     :     0.000409
      g+2     :     0.000557
      g-2     :     0.000427
      g+3     :     0.000488
      g-3     :     0.000559
      g+4     :     0.000287
      g-4     :     0.000372
  1 C s       :     3.569401  s :     3.569401
      pz      :     0.779345  p :     2.281711
      px      :     0.772965
      py      :     0.729400
      dz2     :     0.042098  d :     0.137220
      dxz     :     0.019714
      dyz     :     0.028660
      dx2y2   :     0.020928
      dxy     :     0.025819
      f0      :     0.003250  f :     0.015782
      f+1     :     0.002843
      f-1     :     0.001555
      f+2     :     0.001856
      f-2     :     0.003520
      f+3     :     0.001328
      f-3     :     0.001431
      g0      :     0.000149  g :     0.002617
      g+1     :     0.000782
      g-1     :     0.000064
      g+2     :     0.000293
      g-2     :     0.000404
      g+3     :     0.000347
      g-3     :     0.000398
      g+4     :     0.000095
      g-4     :     0.000084
  2 C s       :     3.569018  s :     3.569018
      pz      :     0.755353  p :     2.281890
      px      :     0.772813
      py      :     0.753724
      dz2     :     0.033447  d :     0.137282
      dxz     :     0.022733
      dyz     :     0.020468
      dx2y2   :     0.037807
      dxy     :     0.022827
      f0      :     0.000877  f :     0.015788
      f+1     :     0.003512
      f-1     :     0.002229
      f+2     :     0.003227
      f-2     :     0.001092
      f+3     :     0.003077
      f-3     :     0.001775
      g0      :     0.000201  g :     0.002619
      g+1     :     0.000285
      g-1     :     0.000179
      g+2     :     0.000128
      g-2     :     0.000482
      g+3     :     0.000546
      g-3     :     0.000275
      g+4     :     0.000217
      g-4     :     0.000306
  3 C s       :     3.569310  s :     3.569310
      pz      :     0.747533  p :     2.281749
      px      :     0.734945
      py      :     0.799272
      dz2     :     0.028203  d :     0.137232
      dxz     :     0.015499
      dyz     :     0.029291
      dx2y2   :     0.028968
      dxy     :     0.035270
      f0      :     0.000584  f :     0.015784
      f+1     :     0.000777
      f-1     :     0.004775
      f+2     :     0.001805
      f-2     :     0.002307
      f+3     :     0.002381
      f-3     :     0.003155
      g0      :     0.000289  g :     0.002617
      g+1     :     0.000053
      g-1     :     0.000229
      g+2     :     0.000388
      g-2     :     0.000222
      g+3     :     0.000328
      g-3     :     0.000429
      g+4     :     0.000447
      g-4     :     0.000232
  4 C s       :     3.569091  s :     3.569091
      pz      :     0.755271  p :     2.281893
      px      :     0.772795
      py      :     0.753827
      dz2     :     0.033407  d :     0.137283
      dxz     :     0.022716
      dyz     :     0.020477
      dx2y2   :     0.037843
      dxy     :     0.022839
      f0      :     0.000871  f :     0.015788
      f+1     :     0.003509
      f-1     :     0.002235
      f+2     :     0.003226
      f-2     :     0.001089
      f+3     :     0.003078
      f-3     :     0.001780
      g0      :     0.000202  g :     0.002619
      g+1     :     0.000283
      g-1     :     0.000178
      g+2     :     0.000127
      g-2     :     0.000484
      g+3     :     0.000545
      g-3     :     0.000276
      g+4     :     0.000217
      g-4     :     0.000308
  5 O s       :     3.789405  s :     3.789405
      pz      :     1.422448  p :     4.254086
      px      :     1.408228
      py      :     1.423410
      dz2     :     0.009628  d :     0.039785
      dxz     :     0.006665
      dyz     :     0.005736
      dx2y2   :     0.011063
      dxy     :     0.006694
      f0      :     0.000154  f :     0.003568
      f+1     :     0.000806
      f-1     :     0.000477
      f+2     :     0.000740
      f-2     :     0.000318
      f+3     :     0.000689
      f-3     :     0.000384
      g0      :     0.000019  g :     0.000242
      g+1     :     0.000026
      g-1     :     0.000016
      g+2     :     0.000010
      g-2     :     0.000045
      g+3     :     0.000049
      g-3     :     0.000031
      g+4     :     0.000020
      g-4     :     0.000027
  6 O s       :     3.789471  s :     3.789471
      pz      :     1.402733  p :     4.253907
      px      :     1.408142
      py      :     1.443032
      dz2     :     0.012491  d :     0.039781
      dxz     :     0.006195
      dyz     :     0.008123
      dx2y2   :     0.005793
      dxy     :     0.007179
      f0      :     0.000718  f :     0.003566
      f+1     :     0.000713
      f-1     :     0.000271
      f+2     :     0.000478
      f-2     :     0.000844
      f+3     :     0.000257
      f-3     :     0.000283
      g0      :     0.000015  g :     0.000242
      g+1     :     0.000069
      g-1     :     0.000005
      g+2     :     0.000032
      g-2     :     0.000037
      g+3     :     0.000033
      g-3     :     0.000036
      g+4     :     0.000008
      g-4     :     0.000007
  7 O s       :     3.789399  s :     3.789399
      pz      :     1.422331  p :     4.254102
      px      :     1.408194
      py      :     1.423577
      dz2     :     0.009647  d :     0.039786
      dxz     :     0.006665
      dyz     :     0.005735
      dx2y2   :     0.011042
      dxy     :     0.006698
      f0      :     0.000155  f :     0.003568
      f+1     :     0.000807
      f-1     :     0.000475
      f+2     :     0.000741
      f-2     :     0.000318
      f+3     :     0.000688
      f-3     :     0.000383
      g0      :     0.000019  g :     0.000242
      g+1     :     0.000026
      g-1     :     0.000016
      g+2     :     0.000010
      g-2     :     0.000044
      g+3     :     0.000049
      g-3     :     0.000031
      g+4     :     0.000020
      g-4     :     0.000027
  8 O s       :     3.789457  s :     3.789457
      pz      :     1.428489  p :     4.253971
      px      :     1.438995
      py      :     1.386487
      dz2     :     0.008018  d :     0.039782
      dxz     :     0.003840
      dyz     :     0.008892
      dx2y2   :     0.008592
      dxy     :     0.010439
      f0      :     0.000098  f :     0.003566
      f+1     :     0.000121
      f-1     :     0.001116
      f+2     :     0.000448
      f-2     :     0.000528
      f+3     :     0.000534
      f-3     :     0.000721
      g0      :     0.000026  g :     0.000242
      g+1     :     0.000005
      g-1     :     0.000023
      g+2     :     0.000034
      g-2     :     0.000019
      g+3     :     0.000034
      g-3     :     0.000040
      g+4     :     0.000039
      g-4     :     0.000023
  9 C s       :     3.569449  s :     3.569449
      pz      :     0.779286  p :     2.281690
      px      :     0.773037
      py      :     0.729367
      dz2     :     0.042082  d :     0.137215
      dxz     :     0.019714
      dyz     :     0.028633
      dx2y2   :     0.020938
      dxy     :     0.025848
      f0      :     0.003241  f :     0.015782
      f+1     :     0.002853
      f-1     :     0.001551
      f+2     :     0.001847
      f-2     :     0.003526
      f+3     :     0.001328
      f-3     :     0.001436
      g0      :     0.000148  g :     0.002617
      g+1     :     0.000783
      g-1     :     0.000064
      g+2     :     0.000293
      g-2     :     0.000404
      g+3     :     0.000346
      g-3     :     0.000399
      g+4     :     0.000095
      g-4     :     0.000085
 10 O s       :     3.789472  s :     3.789472
      pz      :     1.402820  p :     4.253892
      px      :     1.408022
      py      :     1.443051
      dz2     :     0.012488  d :     0.039780
      dxz     :     0.006192
      dyz     :     0.008112
      dx2y2   :     0.005794
      dxy     :     0.007194
      f0      :     0.000716  f :     0.003566
      f+1     :     0.000716
      f-1     :     0.000270
      f+2     :     0.000477
      f-2     :     0.000845
      f+3     :     0.000258
      f-3     :     0.000285
      g0      :     0.000015  g :     0.000242
      g+1     :     0.000069
      g-1     :     0.000005
      g+2     :     0.000032
      g-2     :     0.000037
      g+3     :     0.000033
      g-3     :     0.000036
      g+4     :     0.000008
      g-4     :     0.000007
 11 C s       :     3.569363  s :     3.569363
      pz      :     0.747486  p :     2.281791
      px      :     0.734863
      py      :     0.799442
      dz2     :     0.028167  d :     0.137242
      dxz     :     0.015456
      dyz     :     0.029343
      dx2y2   :     0.028944
      dxy     :     0.035332
      f0      :     0.000584  f :     0.015784
      f+1     :     0.000769
      f-1     :     0.004778
      f+2     :     0.001797
      f-2     :     0.002315
      f+3     :     0.002402
      f-3     :     0.003138
      g0      :     0.000290  g :     0.002618
      g+1     :     0.000052
      g-1     :     0.000228
      g+2     :     0.000391
      g-2     :     0.000220
      g+3     :     0.000330
      g-3     :     0.000426
      g+4     :     0.000447
      g-4     :     0.000234
 12 O s       :     3.789471  s :     3.789471
      pz      :     1.428589  p :     4.253999
      px      :     1.439148
      py      :     1.386263
      dz2     :     0.008001  d :     0.039780
      dxz     :     0.003822
      dyz     :     0.008916
      dx2y2   :     0.008564
      dxy     :     0.010478
      f0      :     0.000098  f :     0.003567
      f+1     :     0.000119
      f-1     :     0.001117
      f+2     :     0.000446
      f-2     :     0.000529
      f+3     :     0.000539
      f-3     :     0.000718
      g0      :     0.000026  g :     0.000242
      g+1     :     0.000005
      g-1     :     0.000023
      g+2     :     0.000034
      g-2     :     0.000019
      g+3     :     0.000034
      g-3     :     0.000040
      g+4     :     0.000039
      g-4     :     0.000023


                     *******************************
                     * LOEWDIN POPULATION ANALYSIS *
                     *******************************

----------------------
LOEWDIN ATOMIC CHARGES
----------------------
   0 Cr:   -1.476469
   1 C :   -0.243153
   2 C :   -0.243870
   3 C :   -0.243340
   4 C :   -0.243837
   5 O :    0.489514
   6 O :    0.489551
   7 O :    0.489520
   8 O :    0.489521
   9 C :   -0.243118
  10 O :    0.489552
  11 C :   -0.243342
  12 O :    0.489470

-------------------------------
LOEWDIN REDUCED ORBITAL CHARGES
-------------------------------
  0 Crs       :     6.139254  s :     6.139254
      pz      :     4.423025  p :    13.268836
      px      :     4.422524
      py      :     4.423286
      dz2     :     1.177103  d :     5.782728
      dxz     :     1.133112
      dyz     :     1.152294
      dx2y2   :     1.161995
      dxy     :     1.158225
      f0      :     0.032671  f :     0.264343
      f+1     :     0.040584
      f-1     :     0.013336
      f+2     :     0.058084
      f-2     :     0.061292
      f+3     :     0.027855
      f-3     :     0.030520
      g0      :     0.001950  g :     0.021309
      g+1     :     0.001673
      g-1     :     0.001936
      g+2     :     0.002989
      g-2     :     0.002280
      g+3     :     0.003353
      g-3     :     0.003844
      g+4     :     0.001396
      g-4     :     0.001887
  1 C s       :     2.857924  s :     2.857924
      pz      :     0.930466  p :     2.526485
      px      :     0.900352
      py      :     0.695667
      dz2     :     0.169883  d :     0.648794
      dxz     :     0.171668
      dyz     :     0.111825
      dx2y2   :     0.095495
      dxy     :     0.099924
      f0      :     0.023161  f :     0.167350
      f+1     :     0.046497
      f-1     :     0.010720
      f+2     :     0.035325
      f-2     :     0.029915
      f+3     :     0.010928
      f-3     :     0.010803
      g0      :     0.002534  g :     0.042600
      g+1     :     0.012373
      g-1     :     0.000936
      g+2     :     0.005364
      g-2     :     0.006495
      g+3     :     0.005711
      g-3     :     0.006417
      g+4     :     0.001464
      g-4     :     0.001308
  2 C s       :     2.857562  s :     2.857562
      pz      :     0.817181  p :     2.526694
      px      :     0.899970
      py      :     0.809543
      dz2     :     0.125928  d :     0.649450
      dxz     :     0.137733
      dyz     :     0.105249
      dx2y2   :     0.146495
      dxy     :     0.134045
      f0      :     0.016030  f :     0.167523
      f+1     :     0.025792
      f-1     :     0.015740
      f+2     :     0.024491
      f-2     :     0.038877
      f+3     :     0.022774
      f-3     :     0.023818
      g0      :     0.003333  g :     0.042641
      g+1     :     0.004584
      g-1     :     0.002844
      g+2     :     0.001932
      g-2     :     0.007814
      g+3     :     0.008702
      g-3     :     0.005082
      g+4     :     0.003546
      g-4     :     0.004806
  3 C s       :     2.857826  s :     2.857826
      pz      :     0.780700  p :     2.526531
      px      :     0.720981
      py      :     1.024850
      dz2     :     0.109560  d :     0.648981
      dxz     :     0.061505
      dyz     :     0.170824
      dx2y2   :     0.150848
      dxy     :     0.156243
      f0      :     0.015447  f :     0.167394
      f+1     :     0.004466
      f-1     :     0.033128
      f+2     :     0.031696
      f-2     :     0.026011
      f+3     :     0.028706
      f-3     :     0.027940
      g0      :     0.004601  g :     0.042609
      g+1     :     0.000863
      g-1     :     0.003921
      g+2     :     0.006089
      g-2     :     0.003445
      g+3     :     0.005724
      g-3     :     0.007026
      g+4     :     0.006999
      g-4     :     0.003941
  4 C s       :     2.857607  s :     2.857607
      pz      :     0.816730  p :     2.526688
      px      :     0.899834
      py      :     0.810124
      dz2     :     0.125778  d :     0.649384
      dxz     :     0.137539
      dyz     :     0.105298
      dx2y2   :     0.146592
      dxy     :     0.134177
      f0      :     0.016012  f :     0.167518
      f+1     :     0.025725
      f-1     :     0.015768
      f+2     :     0.024437
      f-2     :     0.038881
      f+3     :     0.022826
      f-3     :     0.023870
      g0      :     0.003349  g :     0.042640
      g+1     :     0.004553
      g-1     :     0.002839
      g+2     :     0.001909
      g-2     :     0.007835
      g+3     :     0.008682
      g-3     :     0.005093
      g+4     :     0.003546
      g-4     :     0.004834
  5 O s       :     3.243510  s :     3.243510
      pz      :     1.366439  p :     4.147477
      px      :     1.418723
      py      :     1.362315
      dz2     :     0.014425  d :     0.095182
      dxz     :     0.023758
      dyz     :     0.016597
      dx2y2   :     0.017290
      dxy     :     0.023112
      f0      :     0.002000  f :     0.022561
      f+1     :     0.003597
      f-1     :     0.002124
      f+2     :     0.003407
      f-2     :     0.005154
      f+3     :     0.003152
      f-3     :     0.003129
      g0      :     0.000155  g :     0.001755
      g+1     :     0.000176
      g-1     :     0.000106
      g+2     :     0.000057
      g-2     :     0.000297
      g+3     :     0.000278
      g-3     :     0.000370
      g+4     :     0.000162
      g-4     :     0.000153
  6 O s       :     3.243572  s :     3.243572
      pz      :     1.438087  p :     4.147390
      px      :     1.419074
      py      :     1.290229
      dz2     :     0.021280  d :     0.095174
      dxz     :     0.035107
      dyz     :     0.013349
      dx2y2   :     0.013643
      dxy     :     0.011794
      f0      :     0.003186  f :     0.022558
      f+1     :     0.006295
      f-1     :     0.001316
      f+2     :     0.004751
      f-2     :     0.004213
      f+3     :     0.001398
      f-3     :     0.001400
      g0      :     0.000159  g :     0.001755
      g+1     :     0.000376
      g-1     :     0.000026
      g+2     :     0.000385
      g-2     :     0.000237
      g+3     :     0.000246
      g-3     :     0.000235
      g+4     :     0.000045
      g-4     :     0.000046
  7 O s       :     3.243506  s :     3.243506
      pz      :     1.366720  p :     4.147474
      px      :     1.418801
      py      :     1.361953
      dz2     :     0.014443  d :     0.095183
      dxz     :     0.023814
      dyz     :     0.016587
      dx2y2   :     0.017276
      dxy     :     0.023063
      f0      :     0.002002  f :     0.022561
      f+1     :     0.003607
      f-1     :     0.002120
      f+2     :     0.003416
      f-2     :     0.005153
      f+3     :     0.003143
      f-3     :     0.003120
      g0      :     0.000155  g :     0.001755
      g+1     :     0.000177
      g-1     :     0.000106
      g+2     :     0.000058
      g-2     :     0.000298
      g+3     :     0.000278
      g-3     :     0.000370
      g+4     :     0.000161
      g-4     :     0.000153
  8 O s       :     3.243568  s :     3.243568
      pz      :     1.343765  p :     4.147426
      px      :     1.306159
      py      :     1.497502
      dz2     :     0.013194  d :     0.095174
      dxz     :     0.007381
      dyz     :     0.029164
      dx2y2   :     0.023959
      dxy     :     0.021476
      f0      :     0.001920  f :     0.022557
      f+1     :     0.000507
      f-1     :     0.004700
      f+2     :     0.004256
      f-2     :     0.003508
      f+3     :     0.003825
      f-3     :     0.003840
      g0      :     0.000150  g :     0.001755
      g+1     :     0.000039
      g-1     :     0.000239
      g+2     :     0.000181
      g-2     :     0.000102
      g+3     :     0.000333
      g-3     :     0.000283
      g+4     :     0.000203
      g-4     :     0.000224
  9 C s       :     2.857956  s :     2.857956
      pz      :     0.930122  p :     2.526475
      px      :     0.900801
      py      :     0.695552
      dz2     :     0.169754  d :     0.648746
      dxz     :     0.171698
      dyz     :     0.111682
      dx2y2   :     0.095596
      dxy     :     0.100016
      f0      :     0.023117  f :     0.167342
      f+1     :     0.046508
      f-1     :     0.010669
      f+2     :     0.035342
      f-2     :     0.029918
      f+3     :     0.010954
      f-3     :     0.010834
      g0      :     0.002521  g :     0.042598
      g+1     :     0.012381
      g-1     :     0.000925
      g+2     :     0.005360
      g-2     :     0.006487
      g+3     :     0.005703
      g-3     :     0.006438
      g+4     :     0.001467
      g-4     :     0.001316
 10 O s       :     3.243576  s :     3.243576
      pz      :     1.437865  p :     4.147387
      px      :     1.419366
      py      :     1.290156
      dz2     :     0.021250  d :     0.095173
      dxz     :     0.035123
      dyz     :     0.013318
      dx2y2   :     0.013675
      dxy     :     0.011807
      f0      :     0.003180  f :     0.022558
      f+1     :     0.006296
      f-1     :     0.001308
      f+2     :     0.004756
      f-2     :     0.004212
      f+3     :     0.001402
      f-3     :     0.001404
      g0      :     0.000159  g :     0.001755
      g+1     :     0.000376
      g-1     :     0.000025
      g+2     :     0.000385
      g-2     :     0.000236
      g+3     :     0.000247
      g-3     :     0.000236
      g+4     :     0.000046
      g-4     :     0.000047
 11 C s       :     2.857850  s :     2.857850
      pz      :     0.780374  p :     2.526530
      px      :     0.720449
      py      :     1.025707
      dz2     :     0.109434  d :     0.648955
      dxz     :     0.061253
      dyz     :     0.170999
      dx2y2   :     0.150927
      dxy     :     0.156342
      f0      :     0.015447  f :     0.167399
      f+1     :     0.004407
      f-1     :     0.033154
      f+2     :     0.031744
      f-2     :     0.025916
      f+3     :     0.028769
      f-3     :     0.027963
      g0      :     0.004611  g :     0.042608
      g+1     :     0.000857
      g-1     :     0.003907
      g+2     :     0.006130
      g-2     :     0.003401
      g+3     :     0.005750
      g-3     :     0.006988
      g+4     :     0.006993
      g-4     :     0.003970
 12 O s       :     3.243586  s :     3.243586
      pz      :     1.343576  p :     4.147465
      px      :     1.305842
      py      :     1.498047
      dz2     :     0.013185  d :     0.095170
      dxz     :     0.007322
      dyz     :     0.029182
      dx2y2   :     0.024029
      dxy     :     0.021452
      f0      :     0.001920  f :     0.022554
      f+1     :     0.000499
      f-1     :     0.004703
      f+2     :     0.004265
      f-2     :     0.003490
      f+3     :     0.003832
      f-3     :     0.003846
      g0      :     0.000150  g :     0.001754
      g+1     :     0.000038
      g-1     :     0.000239
      g+2     :     0.000182
      g-2     :     0.000100
      g+3     :     0.000331
      g-3     :     0.000284
      g+4     :     0.000204
      g-4     :     0.000225


                      *****************************
                      * MAYER POPULATION ANALYSIS *
                      *****************************

  NA   - Mulliken gross atomic population
  ZA   - Total nuclear charge
  QA   - Mulliken gross atomic charge
  VA   - Mayer's total valence
  BVA  - Mayer's bonded valence
  FA   - Mayer's free valence

  ATOM       NA         ZA         QA         VA         BVA        FA
  0 Cr    23.4376    24.0000     0.5624     5.4317     5.4317     0.0000
  1 C      6.0067     6.0000    -0.0067     3.6424     3.6424    -0.0000
  2 C      6.0066     6.0000    -0.0066     3.6440     3.6440    -0.0000
  3 C      6.0067     6.0000    -0.0067     3.6428     3.6428     0.0000
  4 C      6.0067     6.0000    -0.0067     3.6438     3.6438     0.0000
  5 O      8.0871     8.0000    -0.0871     2.4154     2.4154    -0.0000
  6 O      8.0870     8.0000    -0.0870     2.4156     2.4156     0.0000
  7 O      8.0871     8.0000    -0.0871     2.4154     2.4154     0.0000
  8 O      8.0870     8.0000    -0.0870     2.4155     2.4155     0.0000
  9 C      6.0068     6.0000    -0.0068     3.6423     3.6423     0.0000
 10 O      8.0870     8.0000    -0.0870     2.4156     2.4156    -0.0000
 11 C      6.0068     6.0000    -0.0068     3.6428     3.6428    -0.0000
 12 O      8.0871     8.0000    -0.0871     2.4155     2.4155    -0.0000

  Mayer bond orders larger than 0.100000
B(  0-Cr,  1-C ) :   0.8323 B(  0-Cr,  2-C ) :   0.8339 B(  0-Cr,  3-C ) :   0.8328 
B(  0-Cr,  4-C ) :   0.8338 B(  0-Cr,  9-C ) :   0.8322 B(  0-Cr, 11-C ) :   0.8327 
B(  1-C ,  2-C ) :   0.1089 B(  1-C ,  3-C ) :   0.1090 B(  1-C ,  4-C ) :   0.1097 
B(  1-C ,  6-O ) :   2.2763 B(  1-C , 11-C ) :   0.1096 B(  2-C ,  3-C ) :   0.1088 
B(  2-C ,  7-O ) :   2.2760 B(  2-C ,  9-C ) :   0.1097 B(  2-C , 11-C ) :   0.1100 
B(  3-C ,  4-C ) :   0.1099 B(  3-C ,  8-O ) :   2.2762 B(  3-C ,  9-C ) :   0.1095 
B(  4-C ,  5-O ) :   2.2760 B(  4-C ,  9-C ) :   0.1090 B(  4-C , 11-C ) :   0.1087 
B(  9-C , 10-O ) :   2.2763 B(  9-C , 11-C ) :   0.1090 B( 11-C , 12-O ) :   2.2761 


-------
TIMINGS
-------

Total SCF time: 0 days 0 hours 11 min 24 sec 

Total time                  ....     684.484 sec
Sum of individual times     ....     683.457 sec  ( 99.8%)

Fock matrix formation       ....     670.605 sec  ( 98.0%)
  XC integration            ....       7.241 sec  (  1.1% of F)
    Basis function eval.    ....       0.950 sec  ( 13.1% of XC)
    Density eval.           ....       3.067 sec  ( 42.4% of XC)
    XC-Functional eval.     ....       0.080 sec  (  1.1% of XC)
    XC-Potential eval.      ....       2.470 sec  ( 34.1% of XC)
Diagonalization             ....       4.506 sec  (  0.7%)
Density matrix formation    ....       0.183 sec  (  0.0%)
Population analysis         ....       0.169 sec  (  0.0%)
Initial guess               ....       0.530 sec  (  0.1%)
Orbital Transformation      ....       0.000 sec  (  0.0%)
Orbital Orthonormalization  ....       0.000 sec  (  0.0%)
DIIS solution               ....       3.580 sec  (  0.5%)
Grid generation             ....       3.883 sec  (  0.6%)

-------------------------   --------------------
FINAL SINGLE POINT ENERGY     -1717.536270789055
-------------------------   --------------------


                            ***************************************
                            *     ORCA property calculations      *
                            ***************************************

                                    ---------------------
                                    Active property flags
                                    ---------------------
   (+) Dipole Moment


------------------------------------------------------------------------------
                       ORCA ELECTRIC PROPERTIES CALCULATION
------------------------------------------------------------------------------

Dipole Moment Calculation                       ... on
Quadrupole Moment Calculation                   ... off
Polarizability Calculation                      ... off
GBWName                                         ... CrCO6_zora-def2-qzvpp_.gbw
Electron density file                           ... CrCO6_zora-def2-qzvpp_.scfp
The origin for moment calculation is the CENTER OF MASS  = (-13.273864,  4.081882  5.078268)

-------------
DIPOLE MOMENT
-------------
                                X             Y             Z
Electronic contribution:     -0.00121      -0.00048       0.00078
Nuclear contribution   :      0.00087       0.00051      -0.00066
                        -----------------------------------------
Total Dipole Moment    :     -0.00034       0.00002       0.00012
                        -----------------------------------------
Magnitude (a.u.)       :      0.00036
Magnitude (Debye)      :      0.00092



--------------------
Rotational spectrum 
--------------------
 
Rotational constants in cm-1:     0.022283     0.022240     0.022104 
Rotational constants in MHz :   668.016885   666.751386   662.674535 

 Dipole components along the rotational axes: 
x,y,z [a.u.] :    -0.000117     0.000010     0.000341 
x,y,z [Debye]:    -0.000297     0.000025     0.000867 

 

Timings for individual modules:

Sum of individual times         ...      686.382 sec (=  11.440 min)
GTO integral calculation        ...        1.617 sec (=   0.027 min)   0.2 %
SCF iterations                  ...      684.765 sec (=  11.413 min)  99.8 %
                             ****ORCA TERMINATED NORMALLY****
TOTAL RUN TIME: 0 days 0 hours 11 minutes 26 seconds 813 msec
