
                                 *****************
                                 * O   R   C   A *
                                 *****************

           --- An Ab Initio, DFT and Semiempirical electronic structure package ---

                  #######################################################
                  #                        -***-                        #
                  #          Department of theory and spectroscopy      #
                  #               Directorship: Frank Neese             #
                  #        Max Planck Institute fuer Kohlenforschung    #
                  #                Kaiser Wilhelm Platz 1               #
                  #                 D-45470 Muelheim/Ruhr               #
                  #                      Germany                        #
                  #                                                     #
                  #                  All rights reserved                #
                  #                        -***-                        #
                  #######################################################


                         Program Version 4.2.1 -  RELEASE  -


 With contributions from (in alphabetic order):
   Daniel Aravena         : Magnetic Suceptibility
   Michael Atanasov       : Ab Initio Ligand Field Theory (pilot matlab implementation)
   Alexander A. Auer      : GIAO ZORA, VPT2
   Ute Becker             : Parallelization
   Giovanni Bistoni       : ED, misc. LED, open-shell LED, HFLD
   Martin Brehm           : Molecular dynamics
   Dmytro Bykov           : SCF Hessian
   Vijay G. Chilkuri      : MRCI spin determinant printing, contributions to CSF-ICE
   Dipayan Datta          : RHF DLPNO-CCSD density
   Achintya Kumar Dutta   : EOM-CC, STEOM-CC
   Dmitry Ganyushin       : Spin-Orbit,Spin-Spin,Magnetic field MRCI
   Miquel Garcia          : C-PCM Hessian, Gaussian charge scheme
   Yang Guo               : DLPNO-NEVPT2, CIM, IAO-localization
   Andreas Hansen         : Spin unrestricted coupled pair/coupled cluster methods
   Benjamin Helmich-Paris : CASSCF linear response (MC-RPA)
   Lee Huntington         : MR-EOM, pCC
   Robert Izsak           : Overlap fitted RIJCOSX, COSX-SCS-MP3, EOM
   Christian Kollmar      : KDIIS, OOCD, Brueckner-CCSD(T), CCSD density
   Simone Kossmann        : Meta GGA functionals, TD-DFT gradient, OOMP2, MP2 Hessian
   Martin Krupicka        : AUTO-CI
   Lucas Lang             : DCDCAS
   Dagmar Lenk            : GEPOL surface, SMD
   Dimitrios Liakos       : Extrapolation schemes; Compound Job, initial MDCI parallelization
   Dimitrios Manganas     : Further ROCIS development; embedding schemes
   Dimitrios Pantazis     : SARC Basis sets
   Taras Petrenko         : DFT Hessian,TD-DFT gradient, ASA, ECA, R-Raman, ABS, FL, XAS/XES, NRVS
   Peter Pinski           : DLPNO-MP2, DLPNO-MP2 Gradient
   Christoph Reimann      : Effective Core Potentials
   Marius Retegan         : Local ZFS, SOC
   Christoph Riplinger    : Optimizer, TS searches, QM/MM, DLPNO-CCSD(T), (RO)-DLPNO pert. Triples
   Tobias Risthaus        : Range-separated hybrids, TD-DFT gradient, RPA, STAB
   Michael Roemelt        : Original ROCIS implementation
   Masaaki Saitow         : Open-shell DLPNO-CCSD energy and density
   Barbara Sandhoefer     : DKH picture change effects
   Avijit Sen             : IP-ROCIS
   Kantharuban Sivalingam : CASSCF convergence, NEVPT2, FIC-MRCI
   Bernardo de Souza      : ESD, SOC TD-DFT
   Georgi Stoychev        : AutoAux, RI-MP2 NMR
   Willem Van den Heuvel  : Paramagnetic NMR
   Boris Wezisla          : Elementary symmetry handling
   Frank Wennmohs         : Technical directorship


 We gratefully acknowledge several colleagues who have allowed us to
 interface, adapt or use parts of their codes:
   Stefan Grimme, W. Hujo, H. Kruse,             : VdW corrections, initial TS optimization,
                  C. Bannwarth                     DFT functionals, gCP, sTDA/sTD-DF
   Ed Valeev, F. Pavosevic, A. Kumar             : LibInt (2-el integral package), F12 methods
   Garnet Chan, S. Sharma, J. Yang, R. Olivares  : DMRG
   Ulf Ekstrom                                   : XCFun DFT Library
   Mihaly Kallay                                 : mrcc  (arbitrary order and MRCC methods)
   Andreas Klamt, Michael Diedenhofen            : otool_cosmo (COSMO solvation model)
   Jiri Pittner, Ondrej Demel                    : Mk-CCSD
   Frank Weinhold                                : gennbo (NPA and NBO analysis)
   Christopher J. Cramer and Donald G. Truhlar   : smd solvation model
   Lars Goerigk                                  : TD-DFT with DH, B97 family of functionals
   V. Asgeirsson, H. Jonsson                     : NEB implementation
   FAccTs GmbH                                   : IRC, NEB, NEB-TS, Multilevel, MM, QM/MM, CI optimization
   S Lehtola, MJT Oliveira, MAL Marques          : LibXC Library


 Your calculation uses the libint2 library for the computation of 2-el integrals
 For citations please refer to: http://libint.valeyev.net

 Your ORCA version has been built with support for libXC version: 4.2.3
 For citations please refer to: https://tddft.org/programs/libxc/

 This ORCA versions uses:
   CBLAS   interface :  Fast vector & matrix operations
   LAPACKE interface :  Fast linear algebra routines
   SCALAPACK package :  Parallel linear algebra routines


----- Orbital basis set information -----
Your calculation utilizes the basis: cc-pVTZ 
       H, B-Ne : Obtained from the ccRepo (grant-hill.group.shef.ac.uk/ccrepo) Feb. 2017
                 T. H. Dunning, Jr., J. Chem. Phys. 90, 1007 (1989)
            He : Obtained from the ccRepo (grant-hill.group.shef.ac.uk/ccrepo) Feb. 2017
                 D. E. Woon, T. H. Dunning, Jr., J. Chem. Phys. 100, 2975 (1994)
  Li-Be, Na-Mg : Obtained from the ccRepo (grant-hill.group.shef.ac.uk/ccrepo) Feb. 2017
                 B. P. Prascher, D. E. Woon, K. A. Peterson, T. H. Dunning, Jr., A. K. Wilson, Theor. Chem. Acc. 128, 69 (2011)
         Al-Ar : Obtained from the ccRepo (grant-hill.group.shef.ac.uk/ccrepo) Feb. 2017
                 D. E. Woon, T. H. Dunning, Jr., J. Chem. Phys. 98, 1358 (1993)
            Ca : Obtained from the Peterson Research Group Website (tyr0.chem.wsu.edu/~kipeters) Feb. 2017
                 J. Koput, K. A. Peterson, J. Phys. Chem. 106, 9595 (2002)
         Sc-Zn : Obtained from the ccRepo (grant-hill.group.shef.ac.uk/ccrepo) Feb. 2017
                 N. B. Balabanov, K. A. Peterson, J. Chem. Phys. 123, 064107 (2005)
                 N. B. Balabanov, K. A. Peterson, J. Chem. Phys. 125, 074110 (2006)
         Ga-Kr : Obtained from the ccRepo (grant-hill.group.shef.ac.uk/ccrepo) Feb. 2017
                 A. K. Wilson, D. E. Woon, K. A. Peterson, T. H. Dunning, Jr., J. Chem. Phys. 110, 7667 (1999)
             Y : Obtained from the ccRepo (grant-hill.group.shef.ac.uk/ccrepo) Feb. 2017
                 K. A. Peterson, D. Figgen, M. Dolg, H. Stoll, J. Chem. Phys. 126, 124101 (2007)
        Ag, Au : Obtained from the Peterson Research Group Website (tyr0.chem.wsu.edu/~kipeters) Feb. 2017
                 K. A. Peterson, C. Puzzarini, Theor. Chem. Acc. 114, 283 (2005)

================================================================================
                                        WARNINGS
                       Please study these warnings very carefully!
================================================================================


INFO   : the flag for use of LIBINT has been found!

================================================================================
                                       INPUT FILE
================================================================================
NAME = CrCO6_cc-pvtz_.inp
|  1> ! LDA cc-pvtz nori grid5 finalgrid6 verytightscf
|  2> %Pal NProcs 18 End
|  3> 
|  4> *xyz 0 1
|  5> Cr -7.024455 2.159906 2.687477
|  6> C -5.745125 2.453969 4.046034
|  7> C -5.747986 1.193764 1.686659
|  8> C -6.493665 3.759856 1.835371
|  9> C -8.300845 3.126754 3.687779
| 10> O -9.070901 3.715082 4.291407
| 11> O -4.974179 2.632342 4.869002
| 12> O -4.977695 0.606824 1.081974
| 13> O -6.176347 4.727975 1.320041
| 14> C -8.304393 1.866232 1.329334
| 15> O -9.076187 1.688738 0.506975
| 16> C -7.553951 0.559352 3.539091
| 17> O -7.868850 -0.410064 4.053526
| 18> **                         ****END OF INPUT****
================================================================================

                       ****************************
                       * Single Point Calculation *
                       ****************************

---------------------------------
CARTESIAN COORDINATES (ANGSTROEM)
---------------------------------
  Cr    -7.024455    2.159906    2.687477
  C     -5.745125    2.453969    4.046034
  C     -5.747986    1.193764    1.686659
  C     -6.493665    3.759856    1.835371
  C     -8.300845    3.126754    3.687779
  O     -9.070901    3.715082    4.291407
  O     -4.974179    2.632342    4.869002
  O     -4.977695    0.606824    1.081974
  O     -6.176347    4.727975    1.320041
  C     -8.304393    1.866232    1.329334
  O     -9.076187    1.688738    0.506975
  C     -7.553951    0.559352    3.539091
  O     -7.868850   -0.410064    4.053526

----------------------------
CARTESIAN COORDINATES (A.U.)
----------------------------
  NO LB      ZA    FRAG     MASS         X           Y           Z
   0 Cr   24.0000    0    52.000  -13.274296    4.081631    5.078596
   1 C     6.0000    0    12.011  -10.856713    4.637329    7.645896
   2 C     6.0000    0    12.011  -10.862119    2.255887    3.187324
   3 C     6.0000    0    12.011  -12.271248    7.105098    3.468349
   4 C     6.0000    0    12.011  -15.686324    5.908709    6.968892
   5 O     8.0000    0    15.999  -17.141519    7.020488    8.109584
   6 O     8.0000    0    15.999   -9.399836    4.974405    9.201080
   7 O     8.0000    0    15.999   -9.406480    1.146731    2.044635
   8 O     8.0000    0    15.999  -11.671604    8.934578    2.494516
   9 C     6.0000    0    12.011  -15.693028    3.526667    2.512077
  10 O     8.0000    0    15.999  -17.151508    3.191252    0.958044
  11 C     6.0000    0    12.011  -14.274899    1.057022    6.687913
  12 O     8.0000    0    15.999  -14.869971   -0.774909    7.660054

--------------------------------
INTERNAL COORDINATES (ANGSTROEM)
--------------------------------
 Cr     0   0   0     0.000000000000     0.00000000     0.00000000
 C      1   0   0     1.889136156850     0.00000000     0.00000000
 C      1   2   0     1.887972494834    90.17268949     0.00000000
 C      1   2   3     1.888825736228    90.12994878   269.75154899
 C      1   2   3     1.888007038760    89.83361627   180.02586796
 O      5   1   2     1.141701730359   179.78568509    78.20180125
 O      2   1   3     1.141687781781   179.84904619   198.36638731
 O      3   1   2     1.141705188525   179.84011127   110.82040068
 O      4   1   2     1.141713676972   179.81553639   228.83211052
 C      1   2   3     1.889189802685   179.97481620   177.80260240
 O     10   1   3     1.141684905459   179.88269785   329.31770467
 C      1   2   3     1.888752372845    89.85704854    89.70767146
 O     12   1   2     1.141740833325   179.72277377   302.31452055

---------------------------
INTERNAL COORDINATES (A.U.)
---------------------------
 Cr     0   0   0     0.000000000000     0.00000000     0.00000000
 C      1   0   0     3.569949966135     0.00000000     0.00000000
 C      1   2   0     3.567750963612    90.17268949     0.00000000
 C      1   2   3     3.569363356172    90.12994878   269.75154899
 C      1   2   3     3.567816242172    89.83361627   180.02586796
 O      5   1   2     2.157503597002   179.78568509    78.20180125
 O      2   1   3     2.157477238011   179.84904619   198.36638731
 O      3   1   2     2.157510131990   179.84011127   110.82040068
 O      4   1   2     2.157526172829   179.81553639   228.83211052
 C      1   2   3     3.570051342071   179.97481620   177.80260240
 O     10   1   3     2.157471802549   179.88269785   329.31770467
 C      1   2   3     3.569224719471    89.85704854    89.70767146
 O     12   1   2     2.157577490900   179.72277377   302.31452055

---------------------
BASIS SET INFORMATION
---------------------
There are 3 groups of distinct atoms

 Group   1 Type Cr  : 115s76p22d2f1g contracted to 7s6p4d2f1g pattern {1919191919191/15151515151/7771/11/1}
 Group   2 Type C   : 18s5p2d1f contracted to 4s3p2d1f pattern {8811/311/11/1}
 Group   3 Type O   : 18s5p2d1f contracted to 4s3p2d1f pattern {8811/311/11/1}

Atom   0Cr   basis set group =>   1
Atom   1C    basis set group =>   2
Atom   2C    basis set group =>   2
Atom   3C    basis set group =>   2
Atom   4C    basis set group =>   2
Atom   5O    basis set group =>   3
Atom   6O    basis set group =>   3
Atom   7O    basis set group =>   3
Atom   8O    basis set group =>   3
Atom   9C    basis set group =>   2
Atom  10O    basis set group =>   3
Atom  11C    basis set group =>   2
Atom  12O    basis set group =>   3


           ************************************************************
           *        Program running with 18 parallel MPI-processes    *
           *              working on a common directory               *
           ************************************************************
------------------------------------------------------------------------------
                           ORCA GTO INTEGRAL CALCULATION
------------------------------------------------------------------------------

                         BASIS SET STATISTICS AND STARTUP INFO

 # of primitive gaussian shells          ...  528
 # of primitive gaussian functions       ... 1076
 # of contracted shells                  ...  140
 # of contracted basis functions         ...  428
 Highest angular momentum                ...    4
 Maximum contraction depth               ...   19
 Integral package used                   ... LIBINT
 Integral threshhold            Thresh   ...  1.000e-12
 Primitive cut-off              TCut     ...  1.000e-14


------------------------------ INTEGRAL EVALUATION ----------------------------


 * One electron integrals 
 Pre-screening matrix                    ... done
 Shell pair data                         ... done (   0.004 sec)



           ************************************************************
           *        Program running with 18 parallel MPI-processes    *
           *              working on a common directory               *
           ************************************************************
-------------------------------------------------------------------------------
                                 ORCA SCF
-------------------------------------------------------------------------------

------------
SCF SETTINGS
------------
Hamiltonian:
 Density Functional     Method          .... DFT(GTOs)
 Exchange Functional    Exchange        .... Slater
   X-Alpha parameter    XAlpha          ....  0.666667
 Correlation Functional Correlation     .... VWN-5
 Gradients option       PostSCFGGA      .... off
   Density functional embedding theory  .... OFF


General Settings:
 Integral files         IntName         .... CrCO6_cc-pvtz_
 Hartree-Fock type      HFTyp           .... RHF
 Total Charge           Charge          ....    0
 Multiplicity           Mult            ....    1
 Number of Electrons    NEL             ....  108
 Basis Dimension        Dim             ....  428
 Nuclear Repulsion      ENuc            ....    990.7648602126 Eh

Convergence Acceleration:
 DIIS                   CNVDIIS         .... on
   Start iteration      DIISMaxIt       ....    12
   Startup error        DIISStart       ....  0.200000
   # of expansion vecs  DIISMaxEq       ....     5
   Bias factor          DIISBfac        ....   1.050
   Max. coefficient     DIISMaxC        ....  10.000
 Newton-Raphson         CNVNR           .... off
 SOSCF                  CNVSOSCF        .... off
 Level Shifting         CNVShift        .... on
   Level shift para.    LevelShift      ....    0.2500
   Turn off err/grad.   ShiftErr        ....    0.0010
 Zerner damping         CNVZerner       .... off
 Static damping         CNVDamp         .... on
   Fraction old density DampFac         ....    0.7000
   Max. Damping (<1)    DampMax         ....    0.9800
   Min. Damping (>=0)   DampMin         ....    0.0000
   Turn off err/grad.   DampErr         ....    0.1000
 Fernandez-Rico         CNVRico         .... off

SCF Procedure:
 Maximum # iterations   MaxIter         ....   125
 SCF integral mode      SCFMode         .... Direct
   Integral package                     .... LIBINT
 Reset frequency        DirectResetFreq ....    20
 Integral Threshold     Thresh          ....  1.000e-12 Eh
 Primitive CutOff       TCut            ....  1.000e-14 Eh

Convergence Tolerance:
 Convergence Check Mode ConvCheckMode   .... Total+1el-Energy
 Convergence forced     ConvForced      .... 0
 Energy Change          TolE            ....  1.000e-09 Eh
 1-El. energy change                    ....  1.000e-06 Eh
 DIIS Error             TolErr          ....  1.000e-08


Diagonalization of the overlap matrix:
Smallest eigenvalue                        ... 1.624e-05
Time for diagonalization                   ...    0.025 sec
Threshold for overlap eigenvalues          ... 1.000e-08
Number of eigenvalues below threshold      ... 0
Time for construction of square roots      ...    0.020 sec
Total time needed                          ...    0.046 sec

-------------------
DFT GRID GENERATION
-------------------

General Integration Accuracy     IntAcc      ...  5.010
Radial Grid Type                 RadialGrid  ... Gauss-Chebyshev
Angular Grid (max. acc.)         AngularGrid ... Lebedev-434
Angular grid pruning method      GridPruning ... 3 (G Style)
Weight generation scheme         WeightScheme... Becke
Basis function cutoff            BFCut       ...    1.0000e-12
Integration weight cutoff        WCut        ...    1.0000e-14
Grids for H and He will be reduced by one unit

# of grid points (after initial pruning)     ... 145118 (   0.0 sec)
# of grid points (after weights+screening)   ... 135473 (   0.0 sec)
nearest neighbour list constructed           ...    0.0 sec
Grid point re-assignment to atoms done       ...    0.0 sec
Grid point division into batches done        ...    1.0 sec
Reduced shell lists constructed in    1.1 sec

Total number of grid points                  ...   135473
Total number of batches                      ...     2124
Average number of points per batch           ...       63
Average number of grid points per atom       ...    10421
Average number of shells per batch           ...   114.82 (82.01%)
Average number of basis functions per batch  ...   338.98 (79.20%)
Average number of large shells per batch     ...    92.93 (80.94%)
Average number of large basis fcns per batch ...   277.81 (81.95%)
Maximum spatial batch extension              ...   1.46,  1.50,  1.68 au
Average spatial batch extension              ...   0.05,  0.05,  0.05 au

Time for grid setup =    1.149 sec

------------------------------
INITIAL GUESS: MODEL POTENTIAL
------------------------------
Loading Hartree-Fock densities                     ... done
Calculating cut-offs                               ... done
Setting up the integral package                    ... done
Initializing the effective Hamiltonian             ... done
Starting the Coulomb interaction                   ... done (   0.1 sec)
Reading the grid                                   ... done
Mapping shells                                     ... done
Starting the XC term evaluation                    ... done (   0.1 sec)
  promolecular density results
     # of electrons  =    107.999995844
     EX              =   -116.419010039
     EC              =     -7.724978562
     EX+EC           =   -124.143988601
Transforming the Hamiltonian                       ... done (   0.0 sec)
Diagonalizing the Hamiltonian                      ... done (   0.0 sec)
Back transforming the eigenvectors                 ... done (   0.0 sec)
Now organizing SCF variables                       ... done
                      ------------------
                      INITIAL GUESS DONE (   1.5 sec)
                      ------------------
--------------
SCF ITERATIONS
--------------
ITER       Energy         Delta-E        Max-DP      RMS-DP      [F,P]     Damp
               ***  Starting incremental Fock matrix formation  ***
  0  -1717.2672384510   0.000000000000 0.17483499  0.00183935  0.1838640 0.7000
  1  -1717.3728131483  -0.105574697291 0.50380322  0.00407260  0.1057413 0.7000
                               ***Turning on DIIS***
  2  -1717.4072910430  -0.034477894704 0.74137690  0.00644136  0.0705516 0.0000
  3  -1717.4205534982  -0.013262455154 0.23362590  0.00164960  0.2280107 0.7000
  4  -1717.4523866711  -0.031833172915 0.19413839  0.00137967  0.1654914 0.7000
  5  -1717.4741921052  -0.021805434103 0.49463363  0.00354001  0.0998085 0.0000
  6  -1717.4878115613  -0.013619456144 0.02616656  0.00022764  0.0443729 0.0000
  7  -1717.4911112206  -0.003299659227 0.00753575  0.00005369  0.0081077 0.0000
  8  -1717.4912193899  -0.000108169330 0.01454755  0.00010089  0.0029853 0.0000
  9  -1717.4912626648  -0.000043274868 0.00289888  0.00002167  0.0034202 0.0000
 10  -1717.4912795012  -0.000016836406 0.00113667  0.00000844  0.0021510 0.0000
 11  -1717.4912857495  -0.000006248325 0.00042973  0.00000396  0.0010294 0.0000
 12  -1717.4912875855  -0.000001835955 0.00054153  0.00000386  0.0003268 0.0000
 13  -1717.4912875720   0.000000013464 0.00041912  0.00000323  0.0003991 0.0000
 14  -1717.4912877937  -0.000000221670 0.00023279  0.00000171  0.0000811 0.0000
 15  -1717.4912878308  -0.000000037130 0.00005214  0.00000035  0.0000790 0.0000
 16  -1717.4912878418  -0.000000010985 0.00000585  0.00000006  0.0000077 0.0000
 17  -1717.4912878418  -0.000000000064 0.00000132  0.00000003  0.0000048 0.0000
 18  -1717.4912878419  -0.000000000024 0.00000291  0.00000002  0.0000016 0.0000
 19  -1717.4912878419   0.000000000006 0.00000265  0.00000002  0.0000004 0.0000
               *** Restarting incremental Fock matrix formation ***
                                   *** Resetting DIIS ***
 20  -1717.4912878419  -0.000000000067 0.00000244  0.00000002  0.0000001 0.0000
 21  -1717.4912878421  -0.000000000173 0.00000099  0.00000001  0.0000003 0.0000
 22  -1717.4912878423  -0.000000000156 0.00000053  0.00000000  0.0000004 0.0000
 23  -1717.4912878419   0.000000000404 0.00000075  0.00000001  0.0000001 0.0000
                 **** Energy Check signals convergence ****

               *****************************************************
               *                     SUCCESS                       *
               *           SCF CONVERGED AFTER  24 CYCLES          *
               *****************************************************

Setting up the final grid:

General Integration Accuracy     IntAcc      ...  5.340
Radial Grid Type                 RadialGrid  ... Gauss-Chebyshev
Angular Grid (max. acc.)         AngularGrid ... Lebedev-590
Angular grid pruning method      GridPruning ... 3 (G Style)
Weight generation scheme         WeightScheme... Becke
Basis function cutoff            BFCut       ...    1.0000e-12
Integration weight cutoff        WCut        ...    1.0000e-14
Grids for H and He will be reduced by one unit

# of grid points (after initial pruning)     ... 222408 (   0.0 sec)
# of grid points (after weights+screening)   ... 206964 (   0.1 sec)
nearest neighbour list constructed           ...    0.0 sec
Grid point re-assignment to atoms done       ...    0.0 sec
Grid point division into batches done        ...    2.4 sec
Reduced shell lists constructed in    2.6 sec

Total number of grid points                  ...   206964
Total number of batches                      ...     3241
Average number of points per batch           ...       63
Average number of grid points per atom       ...    15920
Average number of shells per batch           ...   114.79 (81.99%)
Average number of basis functions per batch  ...   338.24 (79.03%)
Average number of large shells per batch     ...    92.43 (80.53%)
Average number of large basis fcns per batch ...   276.35 (81.70%)
Maximum spatial batch extension              ...   1.25,  1.29,  1.33 au
Average spatial batch extension              ...   0.04,  0.04,  0.04 au

Final grid set up in    2.7 sec
Final integration                            ... done (   0.3 sec)
Change in XC energy                          ...    -0.000035085
Integrated number of electrons               ...   107.999986724
Previous integrated no of electrons          ...   108.000006573

----------------
TOTAL SCF ENERGY
----------------

Total Energy       :        -1717.49132293 Eh          -46735.31487 eV

Components:
Nuclear Repulsion  :          990.76486021 Eh           26960.08247 eV
Electronic Energy  :        -2708.25618314 Eh          -73695.39734 eV
One Electron Energy:        -4336.16475770 Eh         -117993.04171 eV
Two Electron Energy:         1627.90857456 Eh           44297.64436 eV

Virial components:
Potential Energy   :        -3430.48258360 Eh          -93348.17683 eV
Kinetic Energy     :         1712.99126067 Eh           46612.86196 eV
Virial Ratio       :            2.00262702


DFT components:
N(Alpha)           :       53.999993362040 electrons
N(Beta)            :       53.999993362040 electrons
N(Total)           :      107.999986724080 electrons
E(X)               :     -116.851378880051 Eh       
E(C)               :       -7.757620285773 Eh       
E(XC)              :     -124.608999165824 Eh       
DFET-embed. en.    :        0.000000000000 Eh       

---------------
SCF CONVERGENCE
---------------

  Last Energy change         ...    3.7062e-10  Tolerance :   1.0000e-09
  Last MAX-Density change    ...    2.7019e-06  Tolerance :   1.0000e-08
  Last RMS-Density change    ...    1.7416e-08  Tolerance :   1.0000e-09
  Last DIIS Error            ...    1.8282e-08  Tolerance :   1.0000e-08

             **** THE GBW FILE WAS UPDATED (CrCO6_cc-pvtz_.gbw) ****
             **** DENSITY FILE WAS UPDATED (CrCO6_cc-pvtz_.scfp) ****
             **** ENERGY FILE WAS UPDATED (CrCO6_cc-pvtz_.en.tmp) ****
             **** THE GBW FILE WAS UPDATED (CrCO6_cc-pvtz_.gbw) ****
             **** DENSITY FILE WAS UPDATED (CrCO6_cc-pvtz_.scfp) ****
----------------
ORBITAL ENERGIES
----------------

  NO   OCC          E(Eh)            E(eV) 
   0   2.0000    -213.955196     -5822.0169 
   1   2.0000     -24.230513      -659.3458 
   2   2.0000     -20.641420      -561.6816 
   3   2.0000     -20.641404      -561.6811 
   4   2.0000     -20.641331      -561.6792 
   5   2.0000     -18.705386      -508.9994 
   6   2.0000     -18.705379      -508.9992 
   7   2.0000     -18.705341      -508.9982 
   8   2.0000     -18.705325      -508.9978 
   9   2.0000     -18.705243      -508.9955 
  10   2.0000     -18.705239      -508.9954 
  11   2.0000      -9.918922      -269.9076 
  12   2.0000      -9.918915      -269.9074 
  13   2.0000      -9.918884      -269.9066 
  14   2.0000      -9.918869      -269.9061 
  15   2.0000      -9.918778      -269.9037 
  16   2.0000      -9.918770      -269.9035 
  17   2.0000      -2.728654       -74.2505 
  18   2.0000      -1.734151       -47.1887 
  19   2.0000      -1.734047       -47.1858 
  20   2.0000      -1.733818       -47.1796 
  21   2.0000      -1.062981       -28.9252 
  22   2.0000      -1.061976       -28.8978 
  23   2.0000      -1.061915       -28.8962 
  24   2.0000      -1.061843       -28.8942 
  25   2.0000      -1.061504       -28.8850 
  26   2.0000      -1.061429       -28.8830 
  27   2.0000      -0.566870       -15.4253 
  28   2.0000      -0.519968       -14.1491 
  29   2.0000      -0.519915       -14.1476 
  30   2.0000      -0.519578       -14.1384 
  31   2.0000      -0.516784       -14.0624 
  32   2.0000      -0.516735       -14.0611 
  33   2.0000      -0.463350       -12.6084 
  34   2.0000      -0.453863       -12.3502 
  35   2.0000      -0.453795       -12.3484 
  36   2.0000      -0.453626       -12.3438 
  37   2.0000      -0.448355       -12.2004 
  38   2.0000      -0.448242       -12.1973 
  39   2.0000      -0.447935       -12.1889 
  40   2.0000      -0.434197       -11.8151 
  41   2.0000      -0.433962       -11.8087 
  42   2.0000      -0.433923       -11.8076 
  43   2.0000      -0.426846       -11.6151 
  44   2.0000      -0.426808       -11.6140 
  45   2.0000      -0.426779       -11.6132 
  46   2.0000      -0.420007       -11.4290 
  47   2.0000      -0.419957       -11.4276 
  48   2.0000      -0.379815       -10.3353 
  49   2.0000      -0.379664       -10.3312 
  50   2.0000      -0.379091       -10.3156 
  51   2.0000      -0.245970        -6.6932 
  52   2.0000      -0.245895        -6.6911 
  53   2.0000      -0.245578        -6.6825 
  54   0.0000      -0.096214        -2.6181 
  55   0.0000      -0.096036        -2.6133 
  56   0.0000      -0.095508        -2.5989 
  57   0.0000      -0.081677        -2.2225 
  58   0.0000      -0.081058        -2.2057 
  59   0.0000      -0.080882        -2.2009 
  60   0.0000      -0.057042        -1.5522 
  61   0.0000      -0.056945        -1.5496 
  62   0.0000      -0.056855        -1.5471 
  63   0.0000      -0.039123        -1.0646 
  64   0.0000      -0.038921        -1.0591 
  65   0.0000      -0.032115        -0.8739 
  66   0.0000      -0.032027        -0.8715 
  67   0.0000      -0.031947        -0.8693 
  68   0.0000      -0.011072        -0.3013 
  69   0.0000       0.021624         0.5884 
  70   0.0000       0.021652         0.5892 
  71   0.0000       0.021778         0.5926 
  72   0.0000       0.144597         3.9347 
  73   0.0000       0.144638         3.9358 
  74   0.0000       0.160463         4.3664 
  75   0.0000       0.160593         4.3700 
  76   0.0000       0.161088         4.3834 
  77   0.0000       0.233981         6.3669 
  78   0.0000       0.234284         6.3752 
  79   0.0000       0.235196         6.4000 
  80   0.0000       0.242284         6.5929 
  81   0.0000       0.292815         7.9679 
  82   0.0000       0.292876         7.9696 
  83   0.0000       0.302080         8.2200 
  84   0.0000       0.302170         8.2225 
  85   0.0000       0.302402         8.2288 
  86   0.0000       0.308879         8.4050 
  87   0.0000       0.309265         8.4155 
  88   0.0000       0.309370         8.4184 
  89   0.0000       0.363262         9.8849 
  90   0.0000       0.398746        10.8504 
  91   0.0000       0.398915        10.8550 
  92   0.0000       0.399105        10.8602 
  93   0.0000       0.409351        11.1390 
  94   0.0000       0.409414        11.1407 
  95   0.0000       0.409419        11.1408 
  96   0.0000       0.433121        11.7858 
  97   0.0000       0.433329        11.7915 
  98   0.0000       0.433531        11.7970 
  99   0.0000       0.436619        11.8810 
 100   0.0000       0.461854        12.5677 
 101   0.0000       0.486305        13.2330 
 102   0.0000       0.487611        13.2686 
 103   0.0000       0.488215        13.2850 
 104   0.0000       0.494510        13.4563 
 105   0.0000       0.494569        13.4579 
 106   0.0000       0.534509        14.5447 
 107   0.0000       0.535269        14.5654 
 108   0.0000       0.535454        14.5705 
 109   0.0000       0.549193        14.9443 
 110   0.0000       0.549351        14.9486 
 111   0.0000       0.558890        15.2082 
 112   0.0000       0.559063        15.2129 
 113   0.0000       0.559374        15.2213 
 114   0.0000       0.559561        15.2264 
 115   0.0000       0.604212        16.4414 
 116   0.0000       0.604703        16.4548 
 117   0.0000       0.605672        16.4812 
 118   0.0000       0.634145        17.2560 
 119   0.0000       0.634328        17.2609 
 120   0.0000       0.634743        17.2722 
 121   0.0000       0.649695        17.6791 
 122   0.0000       0.649883        17.6842 
 123   0.0000       0.649961        17.6863 
 124   0.0000       0.670955        18.2576 
 125   0.0000       0.671150        18.2629 
 126   0.0000       0.699748        19.0411 
 127   0.0000       0.700313        19.0565 
 128   0.0000       0.700363        19.0578 
 129   0.0000       0.703400        19.1405 
 130   0.0000       0.703421        19.1411 
 131   0.0000       0.768495        20.9118 
 132   0.0000       0.769118        20.9288 
 133   0.0000       0.769175        20.9303 
 134   0.0000       0.778945        21.1962 
 135   0.0000       0.778981        21.1971 
 136   0.0000       0.779075        21.1997 
 137   0.0000       0.779392        21.2083 
 138   0.0000       0.904675        24.6174 
 139   0.0000       0.904818        24.6213 
 140   0.0000       0.905453        24.6386 
 141   0.0000       0.943564        25.6757 
 142   0.0000       0.981658        26.7123 
 143   0.0000       0.981786        26.7157 
 144   0.0000       0.981912        26.7192 
 145   0.0000       1.036132        28.1946 
 146   0.0000       1.036172        28.1957 
 147   0.0000       1.064992        28.9799 
 148   0.0000       1.066477        29.0203 
 149   0.0000       1.066985        29.0341 
 150   0.0000       1.166640        31.7459 
 151   0.0000       1.167127        31.7591 
 152   0.0000       1.169231        31.8164 
 153   0.0000       1.169837        31.8329 
 154   0.0000       1.170157        31.8416 
 155   0.0000       1.170253        31.8442 
 156   0.0000       1.194645        32.5079 
 157   0.0000       1.280396        34.8414 
 158   0.0000       1.283249        34.9190 
 159   0.0000       1.283636        34.9295 
 160   0.0000       1.331999        36.2455 
 161   0.0000       1.332718        36.2651 
 162   0.0000       1.332803        36.2674 
 163   0.0000       1.337756        36.4022 
 164   0.0000       1.338325        36.4177 
 165   0.0000       1.340115        36.4664 
 166   0.0000       1.460218        39.7345 
 167   0.0000       1.460540        39.7433 
 168   0.0000       1.474517        40.1237 
 169   0.0000       1.474678        40.1280 
 170   0.0000       1.487931        40.4887 
 171   0.0000       1.488175        40.4953 
 172   0.0000       1.488938        40.5161 
 173   0.0000       1.500725        40.8368 
 174   0.0000       1.503233        40.9050 
 175   0.0000       1.504170        40.9305 
 176   0.0000       1.557451        42.3804 
 177   0.0000       1.584078        43.1049 
 178   0.0000       1.584379        43.1131 
 179   0.0000       1.588217        43.2176 
 180   0.0000       1.623050        44.1654 
 181   0.0000       1.623570        44.1796 
 182   0.0000       1.624486        44.2045 
 183   0.0000       1.674459        45.5643 
 184   0.0000       1.674644        45.5694 
 185   0.0000       1.676134        45.6099 
 186   0.0000       1.890591        51.4456 
 187   0.0000       1.891638        51.4741 
 188   0.0000       1.915069        52.1117 
 189   0.0000       1.915269        52.1171 
 190   0.0000       1.915489        52.1231 
 191   0.0000       1.915970        52.1362 
 192   0.0000       1.916132        52.1406 
 193   0.0000       1.916364        52.1469 
 194   0.0000       1.962140        53.3925 
 195   0.0000       1.962364        53.3986 
 196   0.0000       1.962383        53.3991 
 197   0.0000       2.021407        55.0053 
 198   0.0000       2.035116        55.3783 
 199   0.0000       2.035227        55.3813 
 200   0.0000       2.035281        55.3828 
 201   0.0000       2.082583        56.6700 
 202   0.0000       2.082896        56.6785 
 203   0.0000       2.082993        56.6811 
 204   0.0000       2.094858        57.0040 
 205   0.0000       2.094901        57.0052 
 206   0.0000       2.098610        57.1061 
 207   0.0000       2.099886        57.1408 
 208   0.0000       2.100435        57.1558 
 209   0.0000       2.119117        57.6641 
 210   0.0000       2.120217        57.6940 
 211   0.0000       2.120411        57.6993 
 212   0.0000       2.182246        59.3819 
 213   0.0000       2.182702        59.3944 
 214   0.0000       2.183600        59.4188 
 215   0.0000       2.187825        59.5337 
 216   0.0000       2.192148        59.6514 
 217   0.0000       2.193731        59.6945 
 218   0.0000       2.207772        60.0765 
 219   0.0000       2.234767        60.8111 
 220   0.0000       2.236416        60.8560 
 221   0.0000       2.239770        60.9472 
 222   0.0000       2.431825        66.1733 
 223   0.0000       2.431889        66.1751 
 224   0.0000       2.432527        66.1924 
 225   0.0000       2.529141        68.8214 
 226   0.0000       2.529616        68.8343 
 227   0.0000       2.548975        69.3611 
 228   0.0000       2.549864        69.3853 
 229   0.0000       2.550104        69.3919 
 230   0.0000       2.560292        69.6691 
 231   0.0000       2.560761        69.6818 
 232   0.0000       2.562223        69.7216 
 233   0.0000       2.573398        70.0257 
 234   0.0000       2.574444        70.0542 
 235   0.0000       2.574675        70.0605 
 236   0.0000       2.598879        70.7191 
 237   0.0000       2.662575        72.4523 
 238   0.0000       2.662623        72.4537 
 239   0.0000       2.662966        72.4630 
 240   0.0000       2.672897        72.7332 
 241   0.0000       2.696819        73.3842 
 242   0.0000       2.698819        73.4386 
 243   0.0000       2.699548        73.4584 
 244   0.0000       2.721818        74.0644 
 245   0.0000       2.721909        74.0669 
 246   0.0000       2.734659        74.4138 
 247   0.0000       2.734825        74.4184 
 248   0.0000       2.795530        76.0702 
 249   0.0000       2.837340        77.2079 
 250   0.0000       2.837510        77.2126 
 251   0.0000       2.838361        77.2357 
 252   0.0000       2.903410        79.0058 
 253   0.0000       2.903995        79.0217 
 254   0.0000       2.904139        79.0256 
 255   0.0000       2.905435        79.0609 
 256   0.0000       2.905463        79.0617 
 257   0.0000       2.905636        79.0664 
 258   0.0000       2.909626        79.1750 
 259   0.0000       2.909869        79.1816 
 260   0.0000       2.913034        79.2677 
 261   0.0000       2.914116        79.2971 
 262   0.0000       2.914563        79.3093 
 263   0.0000       2.964690        80.6733 
 264   0.0000       2.965331        80.6908 
 265   0.0000       2.966515        80.7230 
 266   0.0000       2.967212        80.7420 
 267   0.0000       2.970089        80.8202 
 268   0.0000       2.971210        80.8507 
 269   0.0000       2.977757        81.0289 
 270   0.0000       2.994302        81.4791 
 271   0.0000       3.041778        82.7710 
 272   0.0000       3.042908        82.8017 
 273   0.0000       3.043429        82.8159 
 274   0.0000       3.118634        84.8623 
 275   0.0000       3.118732        84.8650 
 276   0.0000       3.124497        85.0219 
 277   0.0000       3.196580        86.9834 
 278   0.0000       3.198049        87.0233 
 279   0.0000       3.198704        87.0412 
 280   0.0000       3.339740        90.8789 
 281   0.0000       3.340213        90.8918 
 282   0.0000       3.340575        90.9017 
 283   0.0000       3.438259        93.5598 
 284   0.0000       3.439367        93.5899 
 285   0.0000       3.439460        93.5925 
 286   0.0000       3.471316        94.4593 
 287   0.0000       3.472625        94.4949 
 288   0.0000       3.476663        94.6048 
 289   0.0000       3.488499        94.9269 
 290   0.0000       3.493253        95.0562 
 291   0.0000       3.493631        95.0665 
 292   0.0000       3.494038        95.0776 
 293   0.0000       3.503836        95.3442 
 294   0.0000       3.503951        95.3473 
 295   0.0000       3.615071        98.3711 
 296   0.0000       3.615568        98.3846 
 297   0.0000       3.617195        98.4289 
 298   0.0000       3.756691       102.2248 
 299   0.0000       3.757405       102.2442 
 300   0.0000       3.805111       103.5423 
 301   0.0000       3.815120       103.8147 
 302   0.0000       3.819470       103.9331 
 303   0.0000       4.084324       111.1401 
 304   0.0000       4.084444       111.1434 
 305   0.0000       4.084718       111.1508 
 306   0.0000       4.132821       112.4598 
 307   0.0000       4.133074       112.4667 
 308   0.0000       4.133214       112.4705 
 309   0.0000       4.133541       112.4794 
 310   0.0000       4.133884       112.4887 
 311   0.0000       4.134992       112.5189 
 312   0.0000       4.217062       114.7521 
 313   0.0000       4.220843       114.8550 
 314   0.0000       4.221785       114.8806 
 315   0.0000       4.243800       115.4797 
 316   0.0000       4.350911       118.3943 
 317   0.0000       4.352018       118.4244 
 318   0.0000       4.509980       122.7228 
 319   0.0000       4.513840       122.8278 
 320   0.0000       4.516265       122.8938 
 321   0.0000       4.668797       127.0444 
 322   0.0000       4.669522       127.0641 
 323   0.0000       4.671453       127.1167 
 324   0.0000       4.727844       128.6512 
 325   0.0000       4.904989       133.4715 
 326   0.0000       4.906313       133.5076 
 327   0.0000       4.967364       135.1689 
 328   0.0000       4.967416       135.1703 
 329   0.0000       4.967437       135.1708 
 330   0.0000       4.967887       135.1831 
 331   0.0000       4.967926       135.1841 
 332   0.0000       4.967955       135.1849 
 333   0.0000       4.968202       135.1917 
 334   0.0000       4.968254       135.1931 
 335   0.0000       4.968271       135.1935 
 336   0.0000       4.968315       135.1947 
 337   0.0000       4.968363       135.1960 
 338   0.0000       4.968387       135.1967 
 339   0.0000       5.345704       145.4640 
 340   0.0000       5.345796       145.4665 
 341   0.0000       5.348461       145.5390 
 342   0.0000       5.358461       145.8111 
 343   0.0000       5.359333       145.8349 
 344   0.0000       5.359709       145.8451 
 345   0.0000       5.369388       146.1085 
 346   0.0000       5.374589       146.2500 
 347   0.0000       5.374660       146.2519 
 348   0.0000       5.374709       146.2533 
 349   0.0000       5.454471       148.4237 
 350   0.0000       5.454713       148.4303 
 351   0.0000       5.711325       155.4131 
 352   0.0000       5.711516       155.4183 
 353   0.0000       5.711580       155.4200 
 354   0.0000       5.751504       156.5064 
 355   0.0000       5.751578       156.5084 
 356   0.0000       5.751798       156.5144 
 357   0.0000       5.990175       163.0009 
 358   0.0000       5.990578       163.0119 
 359   0.0000       5.991088       163.0258 
 360   0.0000       6.042929       164.4365 
 361   0.0000       6.102753       166.0643 
 362   0.0000       6.102836       166.0666 
 363   0.0000       6.103306       166.0794 
 364   0.0000       6.107911       166.2047 
 365   0.0000       6.108003       166.2072 
 366   0.0000       6.113339       166.3524 
 367   0.0000       6.114049       166.3717 
 368   0.0000       6.114380       166.3807 
 369   0.0000       6.117352       166.4616 
 370   0.0000       6.122800       166.6099 
 371   0.0000       6.122819       166.6104 
 372   0.0000       6.128444       166.7634 
 373   0.0000       6.164497       167.7445 
 374   0.0000       6.164817       167.7532 
 375   0.0000       6.201483       168.7509 
 376   0.0000       6.202472       168.7779 
 377   0.0000       6.204909       168.8442 
 378   0.0000       6.249947       170.0697 
 379   0.0000       6.396379       174.0543 
 380   0.0000       6.396652       174.0617 
 381   0.0000       6.419865       174.6934 
 382   0.0000       6.421169       174.7289 
 383   0.0000       6.421485       174.7375 
 384   0.0000       6.451083       175.5429 
 385   0.0000       6.451568       175.5561 
 386   0.0000       6.451813       175.5628 
 387   0.0000       6.460126       175.7890 
 388   0.0000       6.461674       175.8311 
 389   0.0000       6.461972       175.8392 
 390   0.0000       6.578565       179.0118 
 391   0.0000       6.579070       179.0256 
 392   0.0000       6.579929       179.0490 
 393   0.0000       6.635164       180.5520 
 394   0.0000       6.635217       180.5534 
 395   0.0000       6.635249       180.5543 
 396   0.0000       6.667739       181.4384 
 397   0.0000       6.691215       182.0772 
 398   0.0000       6.691545       182.0862 
 399   0.0000       6.691635       182.0886 
 400   0.0000       6.735707       183.2879 
 401   0.0000       6.736158       183.3002 
 402   0.0000       6.736387       183.3064 
 403   0.0000       6.740228       183.4109 
 404   0.0000       6.740392       183.4154 
 405   0.0000       6.740475       183.4177 
 406   0.0000       6.814518       185.4325 
 407   0.0000       6.815498       185.4591 
 408   0.0000       6.817786       185.5214 
 409   0.0000       6.923230       188.3907 
 410   0.0000       6.923714       188.4038 
 411   0.0000       6.945325       188.9919 
 412   0.0000       7.215141       196.3340 
 413   0.0000       7.216194       196.3626 
 414   0.0000       7.217157       196.3888 
 415   0.0000       7.564033       205.8278 
 416   0.0000       7.868337       214.1083 
 417   0.0000       7.875171       214.2943 
 418   0.0000       7.880173       214.4304 
 419   0.0000       7.912600       215.3128 
 420   0.0000       7.914616       215.3677 
 421   0.0000       9.629838       262.0412 
 422   0.0000      13.993498       380.7824 
 423   0.0000      13.995411       380.8345 
 424   0.0000      14.284731       388.7073 
 425   0.0000      14.285619       388.7314 
 426   0.0000      14.290351       388.8602 
 427   0.0000      14.581638       396.7865 

                    ********************************
                    * MULLIKEN POPULATION ANALYSIS *
                    ********************************

-----------------------
MULLIKEN ATOMIC CHARGES
-----------------------
   0 Cr:   -0.633282
   1 C :    0.161544
   2 C :    0.161726
   3 C :    0.161630
   4 C :    0.161651
   5 O :   -0.056174
   6 O :   -0.055949
   7 O :   -0.056173
   8 O :   -0.056025
   9 C :    0.161507
  10 O :   -0.055937
  11 C :    0.161572
  12 O :   -0.056089
Sum of atomic charges:   -0.0000000

--------------------------------
MULLIKEN REDUCED ORBITAL CHARGES
--------------------------------
  0 Crs       :     6.693153  s :     6.693153
      pz      :     4.227471  p :    12.681402
      px      :     4.225466
      py      :     4.228465
      dz2     :     1.183733  d :     5.236349
      dxz     :     0.892221
      dyz     :     1.019820
      dx2y2   :     1.082688
      dxy     :     1.057888
      f0      :     0.002673  f :     0.022112
      f+1     :     0.003402
      f-1     :     0.001323
      f+2     :     0.004744
      f-2     :     0.005005
      f+3     :     0.002383
      f-3     :     0.002583
      g0      :     0.000022  g :     0.000266
      g+1     :     0.000019
      g-1     :     0.000032
      g+2     :     0.000041
      g-2     :     0.000032
      g+3     :     0.000032
      g-3     :     0.000036
      g+4     :     0.000022
      g-4     :     0.000028
  1 C s       :     3.351524  s :     3.351524
      pz      :     0.823047  p :     2.340374
      px      :     0.807941
      py      :     0.709386
      dz2     :     0.040096  d :     0.130174
      dxz     :     0.019651
      dyz     :     0.026796
      dx2y2   :     0.019596
      dxy     :     0.024034
      f0      :     0.002690  f :     0.016384
      f+1     :     0.004020
      f-1     :     0.001150
      f+2     :     0.002923
      f-2     :     0.003310
      f+3     :     0.001126
      f-3     :     0.001166
  2 C s       :     3.351029  s :     3.351029
      pz      :     0.768064  p :     2.340647
      px      :     0.807722
      py      :     0.764862
      dz2     :     0.031559  d :     0.130197
      dxz     :     0.021718
      dyz     :     0.019272
      dx2y2   :     0.035694
      dxy     :     0.021955
      f0      :     0.001215  f :     0.016401
      f+1     :     0.003016
      f-1     :     0.001824
      f+2     :     0.002806
      f-2     :     0.002819
      f+3     :     0.002622
      f-3     :     0.002097
  3 C s       :     3.351381  s :     3.351381
      pz      :     0.750422  p :     2.340421
      px      :     0.721751
      py      :     0.868249
      dz2     :     0.026559  d :     0.130180
      dxz     :     0.013804
      dyz     :     0.028411
      dx2y2   :     0.027837
      dxy     :     0.033569
      f0      :     0.001073  f :     0.016388
      f+1     :     0.000493
      f-1     :     0.004035
      f+2     :     0.002658
      f-2     :     0.002485
      f+3     :     0.002666
      f-3     :     0.002978
  4 C s       :     3.351095  s :     3.351095
      pz      :     0.767812  p :     2.340668
      px      :     0.807638
      py      :     0.765219
      dz2     :     0.031512  d :     0.130186
      dxz     :     0.021717
      dyz     :     0.019273
      dx2y2   :     0.035737
      dxy     :     0.021948
      f0      :     0.001212  f :     0.016400
      f+1     :     0.003010
      f-1     :     0.001829
      f+2     :     0.002802
      f-2     :     0.002819
      f+3     :     0.002626
      f-3     :     0.002103
  5 O s       :     3.759147  s :     3.759147
      pz      :     1.424295  p :     4.264203
      px      :     1.415007
      py      :     1.424901
      dz2     :     0.006475  d :     0.030961
      dxz     :     0.006111
      dyz     :     0.004802
      dx2y2   :     0.007527
      dxy     :     0.006047
      f0      :     0.000115  f :     0.001863
      f+1     :     0.000370
      f-1     :     0.000218
      f+2     :     0.000343
      f-2     :     0.000273
      f+3     :     0.000318
      f-3     :     0.000225
  6 O s       :     3.759126  s :     3.759126
      pz      :     1.411422  p :     4.263989
      px      :     1.414945
      py      :     1.437622
      dz2     :     0.008710  d :     0.030970
      dxz     :     0.007216
      dyz     :     0.005607
      dx2y2   :     0.004484
      dxy     :     0.004953
      f0      :     0.000329  f :     0.001864
      f+1     :     0.000433
      f-1     :     0.000128
      f+2     :     0.000309
      f-2     :     0.000403
      f+3     :     0.000127
      f-3     :     0.000135
  7 O s       :     3.759141  s :     3.759141
      pz      :     1.424210  p :     4.264207
      px      :     1.414981
      py      :     1.425016
      dz2     :     0.006487  d :     0.030961
      dxz     :     0.006117
      dyz     :     0.004800
      dx2y2   :     0.007515
      dxy     :     0.006043
      f0      :     0.000116  f :     0.001863
      f+1     :     0.000370
      f-1     :     0.000218
      f+2     :     0.000344
      f-2     :     0.000273
      f+3     :     0.000318
      f-3     :     0.000224
  8 O s       :     3.759141  s :     3.759141
      pz      :     1.428166  p :     4.264053
      px      :     1.435042
      py      :     1.400845
      dz2     :     0.005534  d :     0.030967
      dxz     :     0.002775
      dyz     :     0.007854
      dx2y2   :     0.007088
      dxy     :     0.007716
      f0      :     0.000096  f :     0.001864
      f+1     :     0.000054
      f-1     :     0.000503
      f+2     :     0.000282
      f-2     :     0.000282
      f+3     :     0.000295
      f-3     :     0.000352
  9 C s       :     3.351576  s :     3.351576
      pz      :     0.822883  p :     2.340367
      px      :     0.808167
      py      :     0.709317
      dz2     :     0.040082  d :     0.130167
      dxz     :     0.019647
      dyz     :     0.026769
      dx2y2   :     0.019601
      dxy     :     0.024068
      f0      :     0.002684  f :     0.016384
      f+1     :     0.004024
      f-1     :     0.001145
      f+2     :     0.002921
      f-2     :     0.003312
      f+3     :     0.001128
      f-3     :     0.001170
 10 O s       :     3.759126  s :     3.759126
      pz      :     1.411473  p :     4.263977
      px      :     1.414866
      py      :     1.437638
      dz2     :     0.008704  d :     0.030970
      dxz     :     0.007217
      dyz     :     0.005598
      dx2y2   :     0.004488
      dxy     :     0.004963
      f0      :     0.000328  f :     0.001864
      f+1     :     0.000434
      f-1     :     0.000127
      f+2     :     0.000309
      f-2     :     0.000403
      f+3     :     0.000127
      f-3     :     0.000135
 11 C s       :     3.351398  s :     3.351398
      pz      :     0.750257  p :     2.340475
      px      :     0.721473
      py      :     0.868745
      dz2     :     0.026514  d :     0.130167
      dxz     :     0.013757
      dyz     :     0.028467
      dx2y2   :     0.027774
      dxy     :     0.033655
      f0      :     0.001073  f :     0.016388
      f+1     :     0.000486
      f-1     :     0.004038
      f+2     :     0.002658
      f-2     :     0.002481
      f+3     :     0.002678
      f-3     :     0.002974
 12 O s       :     3.759168  s :     3.759168
      pz      :     1.428245  p :     4.264091
      px      :     1.435163
      py      :     1.400683
      dz2     :     0.005524  d :     0.030966
      dxz     :     0.002759
      dyz     :     0.007868
      dx2y2   :     0.007083
      dxy     :     0.007732
      f0      :     0.000096  f :     0.001864
      f+1     :     0.000053
      f-1     :     0.000503
      f+2     :     0.000282
      f-2     :     0.000282
      f+3     :     0.000296
      f-3     :     0.000351


                     *******************************
                     * LOEWDIN POPULATION ANALYSIS *
                     *******************************

----------------------
LOEWDIN ATOMIC CHARGES
----------------------
   0 Cr:   -1.172866
   1 C :   -0.209339
   2 C :   -0.210294
   3 C :   -0.209585
   4 C :   -0.210262
   5 O :    0.405189
   6 O :    0.405252
   7 O :    0.405187
   8 O :    0.405209
   9 C :   -0.209297
  10 O :    0.405256
  11 C :   -0.209612
  12 O :    0.405163

-------------------------------
LOEWDIN REDUCED ORBITAL CHARGES
-------------------------------
  0 Crs       :     6.365965  s :     6.365965
      pz      :     4.486773  p :    13.459990
      px      :     4.486181
      py      :     4.487036
      dz2     :     1.092930  d :     5.227223
      dxz     :     0.991501
      dyz     :     1.035718
      dx2y2   :     1.057869
      dxy     :     1.049206
      f0      :     0.014875  f :     0.118749
      f+1     :     0.018239
      f-1     :     0.005235
      f+2     :     0.026465
      f-2     :     0.027996
      f+3     :     0.012304
      f-3     :     0.013636
      g0      :     0.000096  g :     0.000940
      g+1     :     0.000068
      g-1     :     0.000078
      g+2     :     0.000127
      g-2     :     0.000083
      g+3     :     0.000165
      g-3     :     0.000197
      g+4     :     0.000048
      g-4     :     0.000078
  1 C s       :     2.963088  s :     2.963088
      pz      :     0.932418  p :     2.553605
      px      :     0.904688
      py      :     0.716499
      dz2     :     0.156524  d :     0.602278
      dxz     :     0.164224
      dyz     :     0.102074
      dx2y2   :     0.088368
      dxy     :     0.091088
      f0      :     0.013422  f :     0.090368
      f+1     :     0.024182
      f-1     :     0.005692
      f+2     :     0.018159
      f-2     :     0.017078
      f+3     :     0.005883
      f-3     :     0.005952
  2 C s       :     2.962801  s :     2.962801
      pz      :     0.828303  p :     2.554019
      px      :     0.904385
      py      :     0.821330
      dz2     :     0.115289  d :     0.603041
      dxz     :     0.129325
      dyz     :     0.098056
      dx2y2   :     0.134163
      dxy     :     0.126209
      f0      :     0.007941  f :     0.090434
      f+1     :     0.014919
      f-1     :     0.008858
      f+2     :     0.014119
      f-2     :     0.019201
      f+3     :     0.013048
      f-3     :     0.012348
  3 C s       :     2.963014  s :     2.963014
      pz      :     0.794690  p :     2.553703
      px      :     0.739837
      py      :     1.019176
      dz2     :     0.100543  d :     0.602487
      dxz     :     0.055299
      dyz     :     0.160859
      dx2y2   :     0.141149
      dxy     :     0.144637
      f0      :     0.007465  f :     0.090382
      f+1     :     0.002372
      f-1     :     0.019420
      f+2     :     0.016352
      f-2     :     0.013995
      f+3     :     0.015182
      f-3     :     0.015596
  4 C s       :     2.962834  s :     2.962834
      pz      :     0.827890  p :     2.554007
      px      :     0.904253
      py      :     0.821864
      dz2     :     0.115146  d :     0.602988
      dxz     :     0.129164
      dyz     :     0.098091
      dx2y2   :     0.134269
      dxy     :     0.126318
      f0      :     0.007928  f :     0.090433
      f+1     :     0.014881
      f-1     :     0.008877
      f+2     :     0.014089
      f-2     :     0.019203
      f+3     :     0.013077
      f-3     :     0.012380
  5 O s       :     3.330410  s :     3.330410
      pz      :     1.384819  p :     4.190750
      px      :     1.424290
      py      :     1.381641
      dz2     :     0.009624  d :     0.067672
      dxz     :     0.017468
      dyz     :     0.012007
      dx2y2   :     0.011624
      dxy     :     0.016950
      f0      :     0.000607  f :     0.005979
      f+1     :     0.000841
      f-1     :     0.000498
      f+2     :     0.000805
      f-2     :     0.001600
      f+3     :     0.000746
      f-3     :     0.000882
  6 O s       :     3.330485  s :     3.330485
      pz      :     1.438800  p :     4.190619
      px      :     1.424546
      py      :     1.327273
      dz2     :     0.014498  d :     0.067666
      dxz     :     0.026445
      dyz     :     0.009048
      dx2y2   :     0.009683
      dxy     :     0.007992
      f0      :     0.000742  f :     0.005978
      f+1     :     0.001802
      f-1     :     0.000320
      f+2     :     0.001387
      f-2     :     0.001030
      f+3     :     0.000354
      f-3     :     0.000342
  7 O s       :     3.330409  s :     3.330409
      pz      :     1.385020  p :     4.190752
      px      :     1.424347
      py      :     1.381385
      dz2     :     0.009636  d :     0.067673
      dxz     :     0.017512
      dyz     :     0.011998
      dx2y2   :     0.011616
      dxy     :     0.016910
      f0      :     0.000607  f :     0.005979
      f+1     :     0.000844
      f-1     :     0.000498
      f+2     :     0.000808
      f-2     :     0.001600
      f+3     :     0.000743
      f-3     :     0.000880
  8 O s       :     3.330481  s :     3.330481
      pz      :     1.367675  p :     4.190667
      px      :     1.339380
      py      :     1.483612
      dz2     :     0.008941  d :     0.067666
      dxz     :     0.005116
      dyz     :     0.021314
      dx2y2   :     0.017278
      dxy     :     0.015017
      f0      :     0.000606  f :     0.005978
      f+1     :     0.000115
      f-1     :     0.001071
      f+2     :     0.001233
      f-2     :     0.000939
      f+3     :     0.001047
      f-3     :     0.000964
  9 C s       :     2.963112  s :     2.963112
      pz      :     0.932104  p :     2.553585
      px      :     0.905087
      py      :     0.716394
      dz2     :     0.156408  d :     0.602234
      dxz     :     0.164245
      dyz     :     0.101936
      dx2y2   :     0.088459
      dxy     :     0.091184
      f0      :     0.013395  f :     0.090366
      f+1     :     0.024194
      f-1     :     0.005662
      f+2     :     0.018164
      f-2     :     0.017082
      f+3     :     0.005897
      f-3     :     0.005971
 10 O s       :     3.330488  s :     3.330488
      pz      :     1.438637  p :     4.190613
      px      :     1.424756
      py      :     1.327220
      dz2     :     0.014475  d :     0.067665
      dxz     :     0.026457
      dyz     :     0.009026
      dx2y2   :     0.009708
      dxy     :     0.007999
      f0      :     0.000741  f :     0.005978
      f+1     :     0.001801
      f-1     :     0.000318
      f+2     :     0.001389
      f-2     :     0.001029
      f+3     :     0.000355
      f-3     :     0.000343
 11 C s       :     2.963032  s :     2.963032
      pz      :     0.794398  p :     2.553716
      px      :     0.739359
      py      :     1.019959
      dz2     :     0.100431  d :     0.602481
      dxz     :     0.055063
      dyz     :     0.161028
      dx2y2   :     0.141208
      dxy     :     0.144752
      f0      :     0.007465  f :     0.090382
      f+1     :     0.002336
      f-1     :     0.019435
      f+2     :     0.016372
      f-2     :     0.013947
      f+3     :     0.015226
      f-3     :     0.015600
 12 O s       :     3.330497  s :     3.330497
      pz      :     1.367545  p :     4.190701
      px      :     1.339158
      py      :     1.483998
      dz2     :     0.008936  d :     0.067662
      dxz     :     0.005072
      dyz     :     0.021324
      dx2y2   :     0.017337
      dxy     :     0.014993
      f0      :     0.000606  f :     0.005977
      f+1     :     0.000113
      f-1     :     0.001072
      f+2     :     0.001237
      f-2     :     0.000933
      f+3     :     0.001047
      f-3     :     0.000968


                      *****************************
                      * MAYER POPULATION ANALYSIS *
                      *****************************

  NA   - Mulliken gross atomic population
  ZA   - Total nuclear charge
  QA   - Mulliken gross atomic charge
  VA   - Mayer's total valence
  BVA  - Mayer's bonded valence
  FA   - Mayer's free valence

  ATOM       NA         ZA         QA         VA         BVA        FA
  0 Cr    24.6333    24.0000    -0.6333     7.4075     7.4075     0.0000
  1 C      5.8385     6.0000     0.1615     3.6616     3.6616    -0.0000
  2 C      5.8383     6.0000     0.1617     3.6622     3.6622     0.0000
  3 C      5.8384     6.0000     0.1616     3.6617     3.6617    -0.0000
  4 C      5.8383     6.0000     0.1617     3.6622     3.6622    -0.0000
  5 O      8.0562     8.0000    -0.0562     2.5380     2.5380    -0.0000
  6 O      8.0559     8.0000    -0.0559     2.5382     2.5382     0.0000
  7 O      8.0562     8.0000    -0.0562     2.5380     2.5380     0.0000
  8 O      8.0560     8.0000    -0.0560     2.5381     2.5381    -0.0000
  9 C      5.8385     6.0000     0.1615     3.6616     3.6616     0.0000
 10 O      8.0559     8.0000    -0.0559     2.5382     2.5382    -0.0000
 11 C      5.8384     6.0000     0.1616     3.6619     3.6619    -0.0000
 12 O      8.0561     8.0000    -0.0561     2.5381     2.5381    -0.0000

  Mayer bond orders larger than 0.100000
B(  0-Cr,  1-C ) :   1.0685 B(  0-Cr,  2-C ) :   1.0696 B(  0-Cr,  3-C ) :   1.0688 
B(  0-Cr,  4-C ) :   1.0695 B(  0-Cr,  5-O ) :   0.1657 B(  0-Cr,  6-O ) :   0.1655 
B(  0-Cr,  7-O ) :   0.1658 B(  0-Cr,  8-O ) :   0.1656 B(  0-Cr,  9-C ) :   1.0684 
B(  0-Cr, 10-O ) :   0.1655 B(  0-Cr, 11-C ) :   1.0689 B(  0-Cr, 12-O ) :   0.1656 
B(  1-C ,  6-O ) :   2.2939 B(  2-C ,  7-O ) :   2.2932 B(  3-C ,  8-O ) :   2.2936 
B(  4-C ,  5-O ) :   2.2932 B(  9-C , 10-O ) :   2.2939 B( 11-C , 12-O ) :   2.2936 


-------
TIMINGS
-------

Total SCF time: 0 days 0 hours 15 min 40 sec 

Total time                  ....     940.832 sec
Sum of individual times     ....     940.252 sec  ( 99.9%)

Fock matrix formation       ....     934.450 sec  ( 99.3%)
  XC integration            ....       3.763 sec  (  0.4% of F)
    Basis function eval.    ....       1.350 sec  ( 35.9% of XC)
    Density eval.           ....       1.004 sec  ( 26.7% of XC)
    XC-Functional eval.     ....       0.079 sec  (  2.1% of XC)
    XC-Potential eval.      ....       0.858 sec  ( 22.8% of XC)
Diagonalization             ....       0.859 sec  (  0.1%)
Density matrix formation    ....       0.087 sec  (  0.0%)
Population analysis         ....       0.031 sec  (  0.0%)
Initial guess               ....       0.328 sec  (  0.0%)
Orbital Transformation      ....       0.000 sec  (  0.0%)
Orbital Orthonormalization  ....       0.000 sec  (  0.0%)
DIIS solution               ....       0.677 sec  (  0.1%)
Grid generation             ....       3.821 sec  (  0.4%)

-------------------------   --------------------
FINAL SINGLE POINT ENERGY     -1717.491322926648
-------------------------   --------------------


                            ***************************************
                            *     ORCA property calculations      *
                            ***************************************

                                    ---------------------
                                    Active property flags
                                    ---------------------
   (+) Dipole Moment


------------------------------------------------------------------------------
                       ORCA ELECTRIC PROPERTIES CALCULATION
------------------------------------------------------------------------------

Dipole Moment Calculation                       ... on
Quadrupole Moment Calculation                   ... off
Polarizability Calculation                      ... off
GBWName                                         ... CrCO6_cc-pvtz_.gbw
Electron density file                           ... CrCO6_cc-pvtz_.scfp
The origin for moment calculation is the CENTER OF MASS  = (-13.273864,  4.081882  5.078268)

-------------
DIPOLE MOMENT
-------------
                                X             Y             Z
Electronic contribution:     -0.00119      -0.00047       0.00076
Nuclear contribution   :      0.00087       0.00051      -0.00066
                        -----------------------------------------
Total Dipole Moment    :     -0.00031       0.00003       0.00010
                        -----------------------------------------
Magnitude (a.u.)       :      0.00033
Magnitude (Debye)      :      0.00084



--------------------
Rotational spectrum 
--------------------
 
Rotational constants in cm-1:     0.022283     0.022240     0.022104 
Rotational constants in MHz :   668.016885   666.751386   662.674535 

 Dipole components along the rotational axes: 
x,y,z [a.u.] :    -0.000118     0.000004     0.000310 
x,y,z [Debye]:    -0.000301     0.000009     0.000788 

 

Timings for individual modules:

Sum of individual times         ...      946.485 sec (=  15.775 min)
GTO integral calculation        ...        5.341 sec (=   0.089 min)   0.6 %
SCF iterations                  ...      941.145 sec (=  15.686 min)  99.4 %
                             ****ORCA TERMINATED NORMALLY****
TOTAL RUN TIME: 0 days 0 hours 15 minutes 46 seconds 908 msec
