
                                 *****************
                                 * O   R   C   A *
                                 *****************

           --- An Ab Initio, DFT and Semiempirical electronic structure package ---

                  #######################################################
                  #                        -***-                        #
                  #          Department of theory and spectroscopy      #
                  #               Directorship: Frank Neese             #
                  #        Max Planck Institute fuer Kohlenforschung    #
                  #                Kaiser Wilhelm Platz 1               #
                  #                 D-45470 Muelheim/Ruhr               #
                  #                      Germany                        #
                  #                                                     #
                  #                  All rights reserved                #
                  #                        -***-                        #
                  #######################################################


                         Program Version 4.2.1 -  RELEASE  -


 With contributions from (in alphabetic order):
   Daniel Aravena         : Magnetic Suceptibility
   Michael Atanasov       : Ab Initio Ligand Field Theory (pilot matlab implementation)
   Alexander A. Auer      : GIAO ZORA, VPT2
   Ute Becker             : Parallelization
   Giovanni Bistoni       : ED, misc. LED, open-shell LED, HFLD
   Martin Brehm           : Molecular dynamics
   Dmytro Bykov           : SCF Hessian
   Vijay G. Chilkuri      : MRCI spin determinant printing, contributions to CSF-ICE
   Dipayan Datta          : RHF DLPNO-CCSD density
   Achintya Kumar Dutta   : EOM-CC, STEOM-CC
   Dmitry Ganyushin       : Spin-Orbit,Spin-Spin,Magnetic field MRCI
   Miquel Garcia          : C-PCM Hessian, Gaussian charge scheme
   Yang Guo               : DLPNO-NEVPT2, CIM, IAO-localization
   Andreas Hansen         : Spin unrestricted coupled pair/coupled cluster methods
   Benjamin Helmich-Paris : CASSCF linear response (MC-RPA)
   Lee Huntington         : MR-EOM, pCC
   Robert Izsak           : Overlap fitted RIJCOSX, COSX-SCS-MP3, EOM
   Christian Kollmar      : KDIIS, OOCD, Brueckner-CCSD(T), CCSD density
   Simone Kossmann        : Meta GGA functionals, TD-DFT gradient, OOMP2, MP2 Hessian
   Martin Krupicka        : AUTO-CI
   Lucas Lang             : DCDCAS
   Dagmar Lenk            : GEPOL surface, SMD
   Dimitrios Liakos       : Extrapolation schemes; Compound Job, initial MDCI parallelization
   Dimitrios Manganas     : Further ROCIS development; embedding schemes
   Dimitrios Pantazis     : SARC Basis sets
   Taras Petrenko         : DFT Hessian,TD-DFT gradient, ASA, ECA, R-Raman, ABS, FL, XAS/XES, NRVS
   Peter Pinski           : DLPNO-MP2, DLPNO-MP2 Gradient
   Christoph Reimann      : Effective Core Potentials
   Marius Retegan         : Local ZFS, SOC
   Christoph Riplinger    : Optimizer, TS searches, QM/MM, DLPNO-CCSD(T), (RO)-DLPNO pert. Triples
   Tobias Risthaus        : Range-separated hybrids, TD-DFT gradient, RPA, STAB
   Michael Roemelt        : Original ROCIS implementation
   Masaaki Saitow         : Open-shell DLPNO-CCSD energy and density
   Barbara Sandhoefer     : DKH picture change effects
   Avijit Sen             : IP-ROCIS
   Kantharuban Sivalingam : CASSCF convergence, NEVPT2, FIC-MRCI
   Bernardo de Souza      : ESD, SOC TD-DFT
   Georgi Stoychev        : AutoAux, RI-MP2 NMR
   Willem Van den Heuvel  : Paramagnetic NMR
   Boris Wezisla          : Elementary symmetry handling
   Frank Wennmohs         : Technical directorship


 We gratefully acknowledge several colleagues who have allowed us to
 interface, adapt or use parts of their codes:
   Stefan Grimme, W. Hujo, H. Kruse,             : VdW corrections, initial TS optimization,
                  C. Bannwarth                     DFT functionals, gCP, sTDA/sTD-DF
   Ed Valeev, F. Pavosevic, A. Kumar             : LibInt (2-el integral package), F12 methods
   Garnet Chan, S. Sharma, J. Yang, R. Olivares  : DMRG
   Ulf Ekstrom                                   : XCFun DFT Library
   Mihaly Kallay                                 : mrcc  (arbitrary order and MRCC methods)
   Andreas Klamt, Michael Diedenhofen            : otool_cosmo (COSMO solvation model)
   Jiri Pittner, Ondrej Demel                    : Mk-CCSD
   Frank Weinhold                                : gennbo (NPA and NBO analysis)
   Christopher J. Cramer and Donald G. Truhlar   : smd solvation model
   Lars Goerigk                                  : TD-DFT with DH, B97 family of functionals
   V. Asgeirsson, H. Jonsson                     : NEB implementation
   FAccTs GmbH                                   : IRC, NEB, NEB-TS, Multilevel, MM, QM/MM, CI optimization
   S Lehtola, MJT Oliveira, MAL Marques          : LibXC Library


 Your calculation uses the libint2 library for the computation of 2-el integrals
 For citations please refer to: http://libint.valeyev.net

 Your ORCA version has been built with support for libXC version: 4.2.3
 For citations please refer to: https://tddft.org/programs/libxc/

 This ORCA versions uses:
   CBLAS   interface :  Fast vector & matrix operations
   LAPACKE interface :  Fast linear algebra routines
   SCALAPACK package :  Parallel linear algebra routines


----- Orbital basis set information -----
Your calculation utilizes the basis: pc-1
   H, C-F              : F. Jensen, J. Chem. Phys. 115, 9113 (2001).
                         F. Jensen, J. Chem. Phys. 116, 7372 (2002).
                         F. Jensen, J. Chem. Phys. 117, 9234 (2002).
   Si-Cl               : F. Jensen, T. Helgaker, J. Chem. Phys. 121, 3463 (2004).
   He-B, Ne-Mg, Al, Ar : F. Jensen, J. Phys. Chem. A 111, 11198 (2007).
   K, Ca, Ga-Kr        : F. Jensen, J. Chem. Phys. 136, 094110 (2012).
   Sc-Zn               : F. Jensen, J. Chem. Phys. 138, 014107 (2013).

================================================================================
                                        WARNINGS
                       Please study these warnings very carefully!
================================================================================


INFO   : the flag for use of LIBINT has been found!

================================================================================
                                       INPUT FILE
================================================================================
NAME = CrCO6_pc-1_.inp
|  1> ! LDA pc-1 nori grid5 finalgrid6 verytightscf
|  2> %Pal NProcs 18 End
|  3> 
|  4> *xyz 0 1
|  5> Cr -7.024455 2.159906 2.687477
|  6> C -5.745125 2.453969 4.046034
|  7> C -5.747986 1.193764 1.686659
|  8> C -6.493665 3.759856 1.835371
|  9> C -8.300845 3.126754 3.687779
| 10> O -9.070901 3.715082 4.291407
| 11> O -4.974179 2.632342 4.869002
| 12> O -4.977695 0.606824 1.081974
| 13> O -6.176347 4.727975 1.320041
| 14> C -8.304393 1.866232 1.329334
| 15> O -9.076187 1.688738 0.506975
| 16> C -7.553951 0.559352 3.539091
| 17> O -7.868850 -0.410064 4.053526
| 18> **                         ****END OF INPUT****
================================================================================

                       ****************************
                       * Single Point Calculation *
                       ****************************

---------------------------------
CARTESIAN COORDINATES (ANGSTROEM)
---------------------------------
  Cr    -7.024455    2.159906    2.687477
  C     -5.745125    2.453969    4.046034
  C     -5.747986    1.193764    1.686659
  C     -6.493665    3.759856    1.835371
  C     -8.300845    3.126754    3.687779
  O     -9.070901    3.715082    4.291407
  O     -4.974179    2.632342    4.869002
  O     -4.977695    0.606824    1.081974
  O     -6.176347    4.727975    1.320041
  C     -8.304393    1.866232    1.329334
  O     -9.076187    1.688738    0.506975
  C     -7.553951    0.559352    3.539091
  O     -7.868850   -0.410064    4.053526

----------------------------
CARTESIAN COORDINATES (A.U.)
----------------------------
  NO LB      ZA    FRAG     MASS         X           Y           Z
   0 Cr   24.0000    0    52.000  -13.274296    4.081631    5.078596
   1 C     6.0000    0    12.011  -10.856713    4.637329    7.645896
   2 C     6.0000    0    12.011  -10.862119    2.255887    3.187324
   3 C     6.0000    0    12.011  -12.271248    7.105098    3.468349
   4 C     6.0000    0    12.011  -15.686324    5.908709    6.968892
   5 O     8.0000    0    15.999  -17.141519    7.020488    8.109584
   6 O     8.0000    0    15.999   -9.399836    4.974405    9.201080
   7 O     8.0000    0    15.999   -9.406480    1.146731    2.044635
   8 O     8.0000    0    15.999  -11.671604    8.934578    2.494516
   9 C     6.0000    0    12.011  -15.693028    3.526667    2.512077
  10 O     8.0000    0    15.999  -17.151508    3.191252    0.958044
  11 C     6.0000    0    12.011  -14.274899    1.057022    6.687913
  12 O     8.0000    0    15.999  -14.869971   -0.774909    7.660054

--------------------------------
INTERNAL COORDINATES (ANGSTROEM)
--------------------------------
 Cr     0   0   0     0.000000000000     0.00000000     0.00000000
 C      1   0   0     1.889136156850     0.00000000     0.00000000
 C      1   2   0     1.887972494834    90.17268949     0.00000000
 C      1   2   3     1.888825736228    90.12994878   269.75154899
 C      1   2   3     1.888007038760    89.83361627   180.02586796
 O      5   1   2     1.141701730359   179.78568509    78.20180125
 O      2   1   3     1.141687781781   179.84904619   198.36638731
 O      3   1   2     1.141705188525   179.84011127   110.82040068
 O      4   1   2     1.141713676972   179.81553639   228.83211052
 C      1   2   3     1.889189802685   179.97481620   177.80260240
 O     10   1   3     1.141684905459   179.88269785   329.31770467
 C      1   2   3     1.888752372845    89.85704854    89.70767146
 O     12   1   2     1.141740833325   179.72277377   302.31452055

---------------------------
INTERNAL COORDINATES (A.U.)
---------------------------
 Cr     0   0   0     0.000000000000     0.00000000     0.00000000
 C      1   0   0     3.569949966135     0.00000000     0.00000000
 C      1   2   0     3.567750963612    90.17268949     0.00000000
 C      1   2   3     3.569363356172    90.12994878   269.75154899
 C      1   2   3     3.567816242172    89.83361627   180.02586796
 O      5   1   2     2.157503597002   179.78568509    78.20180125
 O      2   1   3     2.157477238011   179.84904619   198.36638731
 O      3   1   2     2.157510131990   179.84011127   110.82040068
 O      4   1   2     2.157526172829   179.81553639   228.83211052
 C      1   2   3     3.570051342071   179.97481620   177.80260240
 O     10   1   3     2.157471802549   179.88269785   329.31770467
 C      1   2   3     3.569224719471    89.85704854    89.70767146
 O     12   1   2     2.157577490900   179.72277377   302.31452055

---------------------
BASIS SET INFORMATION
---------------------
There are 3 groups of distinct atoms

 Group   1 Type Cr  : 45s17p6d1f contracted to 5s3p2d1f pattern {111111111/881/51/1}
 Group   2 Type C   : 11s4p1d contracted to 3s2p1d pattern {551/31/1}
 Group   3 Type O   : 11s4p1d contracted to 3s2p1d pattern {551/31/1}

Atom   0Cr   basis set group =>   1
Atom   1C    basis set group =>   2
Atom   2C    basis set group =>   2
Atom   3C    basis set group =>   2
Atom   4C    basis set group =>   2
Atom   5O    basis set group =>   3
Atom   6O    basis set group =>   3
Atom   7O    basis set group =>   3
Atom   8O    basis set group =>   3
Atom   9C    basis set group =>   2
Atom  10O    basis set group =>   3
Atom  11C    basis set group =>   2
Atom  12O    basis set group =>   3


           ************************************************************
           *        Program running with 18 parallel MPI-processes    *
           *              working on a common directory               *
           ************************************************************
------------------------------------------------------------------------------
                           ORCA GTO INTEGRAL CALCULATION
------------------------------------------------------------------------------

                         BASIS SET STATISTICS AND STARTUP INFO

 # of primitive gaussian shells          ...  261
 # of primitive gaussian functions       ...  469
 # of contracted shells                  ...   83
 # of contracted basis functions         ...  199
 Highest angular momentum                ...    3
 Maximum contraction depth               ...   11
 Integral package used                   ... LIBINT
 Integral threshhold            Thresh   ...  1.000e-12
 Primitive cut-off              TCut     ...  1.000e-14


------------------------------ INTEGRAL EVALUATION ----------------------------


 * One electron integrals 
 Pre-screening matrix                    ... done
 Shell pair data                         ... done (   0.001 sec)



           ************************************************************
           *        Program running with 18 parallel MPI-processes    *
           *              working on a common directory               *
           ************************************************************
-------------------------------------------------------------------------------
                                 ORCA SCF
-------------------------------------------------------------------------------

------------
SCF SETTINGS
------------
Hamiltonian:
 Density Functional     Method          .... DFT(GTOs)
 Exchange Functional    Exchange        .... Slater
   X-Alpha parameter    XAlpha          ....  0.666667
 Correlation Functional Correlation     .... VWN-5
 Gradients option       PostSCFGGA      .... off
   Density functional embedding theory  .... OFF


General Settings:
 Integral files         IntName         .... CrCO6_pc-1_
 Hartree-Fock type      HFTyp           .... RHF
 Total Charge           Charge          ....    0
 Multiplicity           Mult            ....    1
 Number of Electrons    NEL             ....  108
 Basis Dimension        Dim             ....  199
 Nuclear Repulsion      ENuc            ....    990.7648602126 Eh

Convergence Acceleration:
 DIIS                   CNVDIIS         .... on
   Start iteration      DIISMaxIt       ....    12
   Startup error        DIISStart       ....  0.200000
   # of expansion vecs  DIISMaxEq       ....     5
   Bias factor          DIISBfac        ....   1.050
   Max. coefficient     DIISMaxC        ....  10.000
 Newton-Raphson         CNVNR           .... off
 SOSCF                  CNVSOSCF        .... off
 Level Shifting         CNVShift        .... on
   Level shift para.    LevelShift      ....    0.2500
   Turn off err/grad.   ShiftErr        ....    0.0010
 Zerner damping         CNVZerner       .... off
 Static damping         CNVDamp         .... on
   Fraction old density DampFac         ....    0.7000
   Max. Damping (<1)    DampMax         ....    0.9800
   Min. Damping (>=0)   DampMin         ....    0.0000
   Turn off err/grad.   DampErr         ....    0.1000
 Fernandez-Rico         CNVRico         .... off

SCF Procedure:
 Maximum # iterations   MaxIter         ....   125
 SCF integral mode      SCFMode         .... Direct
   Integral package                     .... LIBINT
 Reset frequency        DirectResetFreq ....    20
 Integral Threshold     Thresh          ....  1.000e-12 Eh
 Primitive CutOff       TCut            ....  1.000e-14 Eh

Convergence Tolerance:
 Convergence Check Mode ConvCheckMode   .... Total+1el-Energy
 Convergence forced     ConvForced      .... 0
 Energy Change          TolE            ....  1.000e-09 Eh
 1-El. energy change                    ....  1.000e-06 Eh
 DIIS Error             TolErr          ....  1.000e-08


Diagonalization of the overlap matrix:
Smallest eigenvalue                        ... 3.242e-03
Time for diagonalization                   ...    0.010 sec
Threshold for overlap eigenvalues          ... 1.000e-08
Number of eigenvalues below threshold      ... 0
Time for construction of square roots      ...    0.005 sec
Total time needed                          ...    0.015 sec

-------------------
DFT GRID GENERATION
-------------------

General Integration Accuracy     IntAcc      ...  5.010
Radial Grid Type                 RadialGrid  ... Gauss-Chebyshev
Angular Grid (max. acc.)         AngularGrid ... Lebedev-434
Angular grid pruning method      GridPruning ... 3 (G Style)
Weight generation scheme         WeightScheme... Becke
Basis function cutoff            BFCut       ...    1.0000e-12
Integration weight cutoff        WCut        ...    1.0000e-14
Grids for H and He will be reduced by one unit

# of grid points (after initial pruning)     ... 145118 (   0.0 sec)
# of grid points (after weights+screening)   ... 135473 (   0.0 sec)
nearest neighbour list constructed           ...    0.0 sec
Grid point re-assignment to atoms done       ...    0.0 sec
Grid point division into batches done        ...    1.0 sec
Reduced shell lists constructed in    1.1 sec

Total number of grid points                  ...   135473
Total number of batches                      ...     2124
Average number of points per batch           ...       63
Average number of grid points per atom       ...    10421
Average number of shells per batch           ...    65.50 (78.91%)
Average number of basis functions per batch  ...   169.80 (85.33%)
Average number of large shells per batch     ...    53.96 (82.38%)
Average number of large basis fcns per batch ...   137.35 (80.89%)
Maximum spatial batch extension              ...   1.46,  1.50,  1.68 au
Average spatial batch extension              ...   0.05,  0.05,  0.05 au

Time for grid setup =    1.123 sec

------------------------------
INITIAL GUESS: MODEL POTENTIAL
------------------------------
Loading Hartree-Fock densities                     ... done
Calculating cut-offs                               ... done
Setting up the integral package                    ... done
Initializing the effective Hamiltonian             ... done
Starting the Coulomb interaction                   ... done (   0.0 sec)
Reading the grid                                   ... done
Mapping shells                                     ... done
Starting the XC term evaluation                    ... done (   0.0 sec)
  promolecular density results
     # of electrons  =    107.999990006
     EX              =   -116.419010035
     EC              =     -7.724978559
     EX+EC           =   -124.143988594
Transforming the Hamiltonian                       ... done (   0.0 sec)
Diagonalizing the Hamiltonian                      ... done (   0.0 sec)
Back transforming the eigenvectors                 ... done (   0.0 sec)
Now organizing SCF variables                       ... done
                      ------------------
                      INITIAL GUESS DONE (   1.3 sec)
                      ------------------
--------------
SCF ITERATIONS
--------------
ITER       Energy         Delta-E        Max-DP      RMS-DP      [F,P]     Damp
               ***  Starting incremental Fock matrix formation  ***
  0  -1716.8595299590   0.000000000000 0.13501723  0.00297621  0.2306470 0.7000
  1  -1716.9584004373  -0.098870478241 0.04740829  0.00123530  0.0570729 0.7000
                               ***Turning on DIIS***
  2  -1716.9845515298  -0.026151092557 0.17156895  0.00316014  0.0713029 0.0000
  3  -1716.9732121615   0.011339368367 0.02554981  0.00048824  0.2348002 0.7000
  4  -1717.0024727404  -0.029260578889 0.02447067  0.00049349  0.1923293 0.7000
  5  -1717.0291673679  -0.026694627498 0.02199969  0.00037669  0.1380077 0.7000
  6  -1717.0451414174  -0.015974049567 0.05362700  0.00087981  0.0906364 0.0000
  7  -1717.0599703425  -0.014828925088 0.00703242  0.00019960  0.0213521 0.0000
  8  -1717.0606405890  -0.000670246534 0.00267503  0.00006576  0.0061662 0.0000
  9  -1717.0607436104  -0.000103021333 0.00084549  0.00003024  0.0015219 0.0000
 10  -1717.0607613957  -0.000017785316 0.00038225  0.00000914  0.0001610 0.0000
 11  -1717.0607614274  -0.000000031721 0.00027726  0.00000367  0.0004917 0.0000
 12  -1717.0607617786  -0.000000351169 0.00001201  0.00000036  0.0000182 0.0000
 13  -1717.0607617797  -0.000000001160 0.00000381  0.00000012  0.0000059 0.0000
 14  -1717.0607617799  -0.000000000194 0.00000271  0.00000006  0.0000026 0.0000
 15  -1717.0607617800  -0.000000000032 0.00000146  0.00000003  0.0000021 0.0000
 16  -1717.0607617800   0.000000000003 0.00000071  0.00000001  0.0000007 0.0000
 17  -1717.0607617800  -0.000000000086 0.00000054  0.00000001  0.0000006 0.0000
 18  -1717.0607617797   0.000000000381 0.00000019  0.00000000  0.0000004 0.0000
 19  -1717.0607617798  -0.000000000155 0.00000005  0.00000000  0.0000001 0.0000
               *** Restarting incremental Fock matrix formation ***
                                   *** Resetting DIIS ***
 20  -1717.0607617802  -0.000000000370 0.00000018  0.00000000  0.0000000 0.0000
 21  -1717.0607617804  -0.000000000256 0.00000020  0.00000000  0.0000003 0.0000
 22  -1717.0607617802   0.000000000253 0.00000003  0.00000000  0.0000001 0.0000
                 **** Energy Check signals convergence ****

               *****************************************************
               *                     SUCCESS                       *
               *           SCF CONVERGED AFTER  23 CYCLES          *
               *****************************************************

Setting up the final grid:

General Integration Accuracy     IntAcc      ...  5.340
Radial Grid Type                 RadialGrid  ... Gauss-Chebyshev
Angular Grid (max. acc.)         AngularGrid ... Lebedev-590
Angular grid pruning method      GridPruning ... 3 (G Style)
Weight generation scheme         WeightScheme... Becke
Basis function cutoff            BFCut       ...    1.0000e-12
Integration weight cutoff        WCut        ...    1.0000e-14
Grids for H and He will be reduced by one unit

# of grid points (after initial pruning)     ... 222408 (   0.0 sec)
# of grid points (after weights+screening)   ... 206964 (   0.0 sec)
nearest neighbour list constructed           ...    0.0 sec
Grid point re-assignment to atoms done       ...    0.0 sec
Grid point division into batches done        ...    2.4 sec
Reduced shell lists constructed in    2.5 sec

Total number of grid points                  ...   206964
Total number of batches                      ...     3241
Average number of points per batch           ...       63
Average number of grid points per atom       ...    15920
Average number of shells per batch           ...    65.22 (78.58%)
Average number of basis functions per batch  ...   169.76 (85.31%)
Average number of large shells per batch     ...    53.43 (81.92%)
Average number of large basis fcns per batch ...   135.78 (79.98%)
Maximum spatial batch extension              ...   1.25,  1.29,  1.33 au
Average spatial batch extension              ...   0.04,  0.04,  0.04 au

Final grid set up in    2.6 sec
Final integration                            ... done (   0.1 sec)
Change in XC energy                          ...    -0.000029844
Integrated number of electrons               ...   107.999982610
Previous integrated no of electrons          ...   108.000010893

----------------
TOTAL SCF ENERGY
----------------

Total Energy       :        -1717.06079162 Eh          -46723.59952 eV

Components:
Nuclear Repulsion  :          990.76486021 Eh           26960.08247 eV
Electronic Energy  :        -2707.82565184 Eh          -73683.68199 eV
One Electron Energy:        -4335.47646324 Eh         -117974.31226 eV
Two Electron Energy:         1627.65081141 Eh           44290.63027 eV

Virial components:
Potential Energy   :        -3436.64693465 Eh          -93515.91735 eV
Kinetic Energy     :         1719.58614303 Eh           46792.31783 eV
Virial Ratio       :            1.99853142


DFT components:
N(Alpha)           :       53.999991304923 electrons
N(Beta)            :       53.999991304923 electrons
N(Total)           :      107.999982609846 electrons
E(X)               :     -116.990022385046 Eh       
E(C)               :       -7.756735330123 Eh       
E(XC)              :     -124.746757715169 Eh       
DFET-embed. en.    :        0.000000000000 Eh       

---------------
SCF CONVERGENCE
---------------

  Last Energy change         ...   -7.9581e-11  Tolerance :   1.0000e-09
  Last MAX-Density change    ...    1.6734e-08  Tolerance :   1.0000e-08
  Last RMS-Density change    ...    3.7843e-10  Tolerance :   1.0000e-09
  Last DIIS Error            ...    1.9367e-09  Tolerance :   1.0000e-08

             **** THE GBW FILE WAS UPDATED (CrCO6_pc-1_.gbw) ****
             **** DENSITY FILE WAS UPDATED (CrCO6_pc-1_.scfp) ****
             **** ENERGY FILE WAS UPDATED (CrCO6_pc-1_.en.tmp) ****
             **** THE GBW FILE WAS UPDATED (CrCO6_pc-1_.gbw) ****
             **** DENSITY FILE WAS UPDATED (CrCO6_pc-1_.scfp) ****
----------------
ORBITAL ENERGIES
----------------

  NO   OCC          E(Eh)            E(eV) 
   0   2.0000    -213.886452     -5820.1463 
   1   2.0000     -24.211504      -658.8285 
   2   2.0000     -20.620208      -561.1044 
   3   2.0000     -20.620191      -561.1039 
   4   2.0000     -20.620115      -561.1019 
   5   2.0000     -18.694229      -508.6958 
   6   2.0000     -18.694174      -508.6943 
   7   2.0000     -18.694160      -508.6940 
   8   2.0000     -18.694122      -508.6929 
   9   2.0000     -18.694064      -508.6913 
  10   2.0000     -18.694030      -508.6904 
  11   2.0000      -9.912724      -269.7389 
  12   2.0000      -9.912698      -269.7382 
  13   2.0000      -9.912680      -269.7377 
  14   2.0000      -9.912648      -269.7369 
  15   2.0000      -9.912574      -269.7348 
  16   2.0000      -9.912545      -269.7341 
  17   2.0000      -2.730438       -74.2990 
  18   2.0000      -1.736925       -47.2641 
  19   2.0000      -1.736810       -47.2610 
  20   2.0000      -1.736553       -47.2540 
  21   2.0000      -1.070697       -29.1351 
  22   2.0000      -1.069563       -29.1043 
  23   2.0000      -1.069502       -29.1026 
  24   2.0000      -1.069428       -29.1006 
  25   2.0000      -1.069233       -29.0953 
  26   2.0000      -1.069158       -29.0933 
  27   2.0000      -0.569578       -15.4990 
  28   2.0000      -0.522546       -14.2192 
  29   2.0000      -0.522493       -14.2177 
  30   2.0000      -0.522150       -14.2084 
  31   2.0000      -0.519625       -14.1397 
  32   2.0000      -0.519576       -14.1384 
  33   2.0000      -0.465984       -12.6801 
  34   2.0000      -0.456245       -12.4151 
  35   2.0000      -0.456176       -12.4132 
  36   2.0000      -0.456002       -12.4084 
  37   2.0000      -0.450685       -12.2638 
  38   2.0000      -0.450567       -12.2605 
  39   2.0000      -0.450247       -12.2518 
  40   2.0000      -0.436573       -11.8798 
  41   2.0000      -0.436336       -11.8733 
  42   2.0000      -0.436297       -11.8722 
  43   2.0000      -0.429348       -11.6832 
  44   2.0000      -0.429308       -11.6821 
  45   2.0000      -0.429279       -11.6813 
  46   2.0000      -0.422800       -11.5050 
  47   2.0000      -0.422747       -11.5035 
  48   2.0000      -0.381730       -10.3874 
  49   2.0000      -0.381573       -10.3831 
  50   2.0000      -0.380985       -10.3671 
  51   2.0000      -0.248919        -6.7734 
  52   2.0000      -0.248837        -6.7712 
  53   2.0000      -0.248498        -6.7620 
  54   0.0000      -0.096520        -2.6264 
  55   0.0000      -0.096350        -2.6218 
  56   0.0000      -0.095849        -2.6082 
  57   0.0000      -0.080054        -2.1784 
  58   0.0000      -0.079458        -2.1622 
  59   0.0000      -0.079290        -2.1576 
  60   0.0000      -0.058229        -1.5845 
  61   0.0000      -0.058128        -1.5817 
  62   0.0000      -0.058023        -1.5789 
  63   0.0000      -0.038971        -1.0605 
  64   0.0000      -0.038759        -1.0547 
  65   0.0000      -0.031778        -0.8647 
  66   0.0000      -0.031685        -0.8622 
  67   0.0000      -0.031605        -0.8600 
  68   0.0000       0.009461         0.2575 
  69   0.0000       0.143072         3.8932 
  70   0.0000       0.143424         3.9028 
  71   0.0000       0.144512         3.9324 
  72   0.0000       0.239940         6.5291 
  73   0.0000       0.240036         6.5317 
  74   0.0000       0.302937         8.2433 
  75   0.0000       0.303052         8.2465 
  76   0.0000       0.303264         8.2522 
  77   0.0000       0.340328         9.2608 
  78   0.0000       0.376593        10.2476 
  79   0.0000       0.376630        10.2486 
  80   0.0000       0.376719        10.2510 
  81   0.0000       0.417914        11.3720 
  82   0.0000       0.418104        11.3772 
  83   0.0000       0.418534        11.3889 
  84   0.0000       0.442663        12.0455 
  85   0.0000       0.444622        12.0988 
  86   0.0000       0.445514        12.1231 
  87   0.0000       0.507308        13.8045 
  88   0.0000       0.536784        14.6066 
  89   0.0000       0.536890        14.6095 
  90   0.0000       0.549406        14.9501 
  91   0.0000       0.549491        14.9524 
  92   0.0000       0.549526        14.9534 
  93   0.0000       0.587093        15.9756 
  94   0.0000       0.587828        15.9956 
  95   0.0000       0.587924        15.9982 
  96   0.0000       0.604939        16.4612 
  97   0.0000       0.622310        16.9339 
  98   0.0000       0.623549        16.9676 
  99   0.0000       0.623980        16.9794 
 100   0.0000       0.666460        18.1353 
 101   0.0000       0.666550        18.1377 
 102   0.0000       0.672792        18.3076 
 103   0.0000       0.672949        18.3119 
 104   0.0000       0.673422        18.3247 
 105   0.0000       0.830597        22.6017 
 106   0.0000       0.831304        22.6209 
 107   0.0000       0.833103        22.6699 
 108   0.0000       0.838463        22.8157 
 109   0.0000       0.857949        23.3460 
 110   0.0000       0.858174        23.3521 
 111   0.0000       0.858259        23.3544 
 112   0.0000       0.882732        24.0204 
 113   0.0000       0.884229        24.0611 
 114   0.0000       0.884806        24.0768 
 115   0.0000       0.923999        25.1433 
 116   0.0000       0.924217        25.1492 
 117   0.0000       0.981789        26.7158 
 118   0.0000       1.016206        27.6524 
 119   0.0000       1.016293        27.6547 
 120   0.0000       1.016335        27.6559 
 121   0.0000       1.261968        34.3399 
 122   0.0000       1.263640        34.3854 
 123   0.0000       1.269353        34.5409 
 124   0.0000       1.271848        34.6087 
 125   0.0000       1.272335        34.6220 
 126   0.0000       1.474537        40.1242 
 127   0.0000       1.478619        40.2353 
 128   0.0000       1.479426        40.2572 
 129   0.0000       1.479756        40.2662 
 130   0.0000       1.488699        40.5096 
 131   0.0000       1.488779        40.5117 
 132   0.0000       1.489010        40.5180 
 133   0.0000       1.489078        40.5199 
 134   0.0000       1.489154        40.5219 
 135   0.0000       1.503635        40.9160 
 136   0.0000       1.531527        41.6750 
 137   0.0000       1.531658        41.6785 
 138   0.0000       1.531739        41.6807 
 139   0.0000       1.555173        42.3184 
 140   0.0000       1.556072        42.3429 
 141   0.0000       1.556473        42.3538 
 142   0.0000       1.664073        45.2817 
 143   0.0000       1.664229        45.2860 
 144   0.0000       1.676133        45.6099 
 145   0.0000       1.676218        45.6122 
 146   0.0000       1.676420        45.6177 
 147   0.0000       1.801684        49.0263 
 148   0.0000       1.802351        49.0445 
 149   0.0000       1.804707        49.1086 
 150   0.0000       1.827516        49.7292 
 151   0.0000       1.829203        49.7751 
 152   0.0000       1.829668        49.7878 
 153   0.0000       1.875497        51.0349 
 154   0.0000       1.875628        51.0384 
 155   0.0000       2.132893        58.0390 
 156   0.0000       2.136607        58.1400 
 157   0.0000       2.136673        58.1418 
 158   0.0000       2.140207        58.2380 
 159   0.0000       2.142798        58.3085 
 160   0.0000       2.143052        58.3154 
 161   0.0000       2.143203        58.3195 
 162   0.0000       2.146266        58.4029 
 163   0.0000       2.146405        58.4066 
 164   0.0000       2.146540        58.4103 
 165   0.0000       2.178531        59.2808 
 166   0.0000       2.178562        59.2817 
 167   0.0000       2.188617        59.5553 
 168   0.0000       2.298759        62.5524 
 169   0.0000       2.298937        62.5573 
 170   0.0000       2.299108        62.5619 
 171   0.0000       2.563805        69.7647 
 172   0.0000       2.564085        69.7723 
 173   0.0000       2.650689        72.1289 
 174   0.0000       2.675080        72.7926 
 175   0.0000       2.675418        72.8018 
 176   0.0000       2.675663        72.8085 
 177   0.0000       2.748981        74.8036 
 178   0.0000       2.749046        74.8053 
 179   0.0000       2.749056        74.8056 
 180   0.0000       2.778649        75.6109 
 181   0.0000       2.779643        75.6379 
 182   0.0000       2.779940        75.6460 
 183   0.0000       2.831540        77.0501 
 184   0.0000       2.832537        77.0772 
 185   0.0000       2.832824        77.0851 
 186   0.0000       3.016648        82.0872 
 187   0.0000       3.016855        82.0928 
 188   0.0000       3.016898        82.0940 
 189   0.0000       3.062791        83.3428 
 190   0.0000       3.117819        84.8402 
 191   0.0000       3.163688        86.0883 
 192   0.0000       3.164093        86.0993 
 193   0.0000       3.164424        86.1084 
 194   0.0000       3.182146        86.5906 
 195   0.0000       3.182204        86.5922 
 196   0.0000       3.534756        96.1856 
 197   0.0000       3.535012        96.1926 
 198   0.0000       3.538044        96.2751 

                    ********************************
                    * MULLIKEN POPULATION ANALYSIS *
                    ********************************

-----------------------
MULLIKEN ATOMIC CHARGES
-----------------------
   0 Cr:   -1.788136
   1 C :    0.407088
   2 C :    0.407269
   3 C :    0.407130
   4 C :    0.407246
   5 O :   -0.109235
   6 O :   -0.109041
   7 O :   -0.109235
   8 O :   -0.109106
   9 C :    0.407069
  10 O :   -0.109032
  11 C :    0.407140
  12 O :   -0.109157
Sum of atomic charges:   -0.0000000

--------------------------------
MULLIKEN REDUCED ORBITAL CHARGES
--------------------------------
  0 Crs       :     6.477328  s :     6.477328
      pz      :     4.536327  p :    13.606583
      px      :     4.532157
      py      :     4.538099
      dz2     :     1.280213  d :     5.700863
      dxz     :     0.980701
      dyz     :     1.112727
      dx2y2   :     1.176308
      dxy     :     1.150914
      f0      :     0.000423  f :     0.003363
      f+1     :     0.000517
      f-1     :     0.000144
      f+2     :     0.000752
      f-2     :     0.000795
      f+3     :     0.000347
      f-3     :     0.000386
  1 C s       :     3.266402  s :     3.266402
      pz      :     0.796022  p :     2.252072
      px      :     0.780319
      py      :     0.675731
      dz2     :     0.021464  d :     0.074438
      dxz     :     0.015852
      dyz     :     0.013916
      dx2y2   :     0.010863
      dxy     :     0.012344
  2 C s       :     3.265803  s :     3.265803
      pz      :     0.737930  p :     2.252469
      px      :     0.780161
      py      :     0.734378
      dz2     :     0.016211  d :     0.074459
      dxz     :     0.014135
      dyz     :     0.011403
      dx2y2   :     0.018662
      dxy     :     0.014048
  3 C s       :     3.266257  s :     3.266257
      pz      :     0.719217  p :     2.252172
      px      :     0.689044
      py      :     0.843911
      dz2     :     0.013761  d :     0.074442
      dxz     :     0.006929
      dyz     :     0.018250
      dx2y2   :     0.016783
      dxy     :     0.018720
  4 C s       :     3.265839  s :     3.265839
      pz      :     0.737677  p :     2.252458
      px      :     0.780063
      py      :     0.734719
      dz2     :     0.016185  d :     0.074457
      dxz     :     0.014121
      dyz     :     0.011407
      dx2y2   :     0.018688
      dxy     :     0.014056
  5 O s       :     3.758254  s :     3.758254
      pz      :     1.445681  p :     4.324278
      px      :     1.431756
      py      :     1.446842
      dz2     :     0.005315  d :     0.026703
      dxz     :     0.005515
      dyz     :     0.004231
      dx2y2   :     0.006205
      dxy     :     0.005437
  6 O s       :     3.758242  s :     3.758242
      pz      :     1.426703  p :     4.324096
      px      :     1.431695
      py      :     1.465698
      dz2     :     0.007239  d :     0.026703
      dxz     :     0.006858
      dyz     :     0.004644
      dx2y2   :     0.003859
      dxy     :     0.004103
  7 O s       :     3.758258  s :     3.758258
      pz      :     1.445585  p :     4.324274
      px      :     1.431730
      py      :     1.446959
      dz2     :     0.005324  d :     0.026703
      dxz     :     0.005523
      dyz     :     0.004229
      dx2y2   :     0.006195
      dxy     :     0.005432
  8 O s       :     3.758259  s :     3.758259
      pz      :     1.451561  p :     4.324145
      px      :     1.461733
      py      :     1.410851
      dz2     :     0.004585  d :     0.026702
      dxz     :     0.002337
      dyz     :     0.007019
      dx2y2   :     0.006218
      dxy     :     0.006544
  9 C s       :     3.266442  s :     3.266442
      pz      :     0.795846  p :     2.252053
      px      :     0.780534
      py      :     0.675673
      dz2     :     0.021452  d :     0.074437
      dxz     :     0.015852
      dyz     :     0.013896
      dx2y2   :     0.010872
      dxy     :     0.012364
 10 O s       :     3.758239  s :     3.758239
      pz      :     1.426773  p :     4.324090
      px      :     1.431599
      py      :     1.465718
      dz2     :     0.007234  d :     0.026703
      dxz     :     0.006859
      dyz     :     0.004636
      dx2y2   :     0.003864
      dxy     :     0.004110
 11 C s       :     3.266231  s :     3.266231
      pz      :     0.719047  p :     2.252192
      px      :     0.688768
      py      :     0.844377
      dz2     :     0.013738  d :     0.074437
      dxz     :     0.006893
      dyz     :     0.018281
      dx2y2   :     0.016768
      dxy     :     0.018756
 12 O s       :     3.758273  s :     3.758273
      pz      :     1.451647  p :     4.324183
      px      :     1.461864
      py      :     1.410672
      dz2     :     0.004577  d :     0.026700
      dxz     :     0.002322
      dyz     :     0.007030
      dx2y2   :     0.006217
      dxy     :     0.006554


                     *******************************
                     * LOEWDIN POPULATION ANALYSIS *
                     *******************************

----------------------
LOEWDIN ATOMIC CHARGES
----------------------
   0 Cr:   -1.759677
   1 C :    0.246571
   2 C :    0.246292
   3 C :    0.246501
   4 C :    0.246291
   5 O :    0.046745
   6 O :    0.046907
   7 O :    0.046739
   8 O :    0.046843
   9 C :    0.246579
  10 O :    0.046918
  11 C :    0.246490
  12 O :    0.046801

-------------------------------
LOEWDIN REDUCED ORBITAL CHARGES
-------------------------------
  0 Crs       :     6.324777  s :     6.324777
      pz      :     4.449216  p :    13.347425
      px      :     4.448778
      py      :     4.449431
      dz2     :     1.297535  d :     6.079785
      dxz     :     1.123118
      dyz     :     1.199764
      dx2y2   :     1.237091
      dxy     :     1.222278
      f0      :     0.000983  f :     0.007690
      f+1     :     0.001180
      f-1     :     0.000271
      f+2     :     0.001749
      f-2     :     0.001853
      f+3     :     0.000778
      f-3     :     0.000876
  1 C s       :     3.058993  s :     3.058993
      pz      :     0.922398  p :     2.532833
      px      :     0.895844
      py      :     0.714591
      dz2     :     0.043748  d :     0.161603
      dxz     :     0.041284
      dyz     :     0.028134
      dx2y2   :     0.023481
      dxy     :     0.024956
  2 C s       :     3.058634  s :     3.058634
      pz      :     0.822257  p :     2.533340
      px      :     0.895630
      py      :     0.815453
      dz2     :     0.032316  d :     0.161733
      dxz     :     0.033380
      dyz     :     0.025664
      dx2y2   :     0.037496
      dxy     :     0.032877
  3 C s       :     3.058900  s :     3.058900
      pz      :     0.789891  p :     2.532966
      px      :     0.737136
      py      :     1.005940
      dz2     :     0.027852  d :     0.161633
      dxz     :     0.014324
      dyz     :     0.042332
      dx2y2   :     0.037590
      dxy     :     0.039534
  4 C s       :     3.058676  s :     3.058676
      pz      :     0.821857  p :     2.533309
      px      :     0.895502
      py      :     0.815950
      dz2     :     0.032268  d :     0.161725
      dxz     :     0.033335
      dyz     :     0.025674
      dx2y2   :     0.037540
      dxy     :     0.032908
  5 O s       :     3.514131  s :     3.514131
      pz      :     1.460431  p :     4.394381
      px      :     1.474673
      py      :     1.459278
      dz2     :     0.006931  d :     0.044742
      dxz     :     0.011035
      dyz     :     0.007748
      dx2y2   :     0.008290
      dxy     :     0.010739
  6 O s       :     3.514155  s :     3.514155
      pz      :     1.479874  p :     4.394195
      px      :     1.474769
      py      :     1.439552
      dz2     :     0.010152  d :     0.044743
      dxz     :     0.016148
      dyz     :     0.006386
      dx2y2   :     0.006417
      dxy     :     0.005640
  7 O s       :     3.514131  s :     3.514131
      pz      :     1.460492  p :     4.394387
      px      :     1.474691
      py      :     1.459205
      dz2     :     0.006940  d :     0.044743
      dxz     :     0.011061
      dyz     :     0.007743
      dx2y2   :     0.008282
      dxy     :     0.010716
  8 O s       :     3.514163  s :     3.514163
      pz      :     1.454172  p :     4.394254
      px      :     1.444098
      py      :     1.495984
      dz2     :     0.006307  d :     0.044741
      dxz     :     0.003502
      dyz     :     0.013572
      dx2y2   :     0.011199
      dxy     :     0.010160
  9 C s       :     3.059024  s :     3.059024
      pz      :     0.922088  p :     2.532801
      px      :     0.896227
      py      :     0.714487
      dz2     :     0.043716  d :     0.161595
      dxz     :     0.041290
      dyz     :     0.028090
      dx2y2   :     0.023508
      dxy     :     0.024992
 10 O s       :     3.514155  s :     3.514155
      pz      :     1.479822  p :     4.394184
      px      :     1.474832
      py      :     1.439530
      dz2     :     0.010138  d :     0.044743
      dxz     :     0.016155
      dyz     :     0.006372
      dx2y2   :     0.006431
      dxy     :     0.005647
 11 C s       :     3.058916  s :     3.058916
      pz      :     0.789607  p :     2.532970
      px      :     0.736672
      py      :     1.006690
      dz2     :     0.027813  d :     0.161624
      dxz     :     0.014246
      dyz     :     0.042388
      dx2y2   :     0.037594
      dxy     :     0.039584
 12 O s       :     3.514180  s :     3.514180
      pz      :     1.454143  p :     4.394282
      px      :     1.444044
      py      :     1.496096
      dz2     :     0.006302  d :     0.044737
      dxz     :     0.003474
      dyz     :     0.013581
      dx2y2   :     0.011228
      dxy     :     0.010151


                      *****************************
                      * MAYER POPULATION ANALYSIS *
                      *****************************

  NA   - Mulliken gross atomic population
  ZA   - Total nuclear charge
  QA   - Mulliken gross atomic charge
  VA   - Mayer's total valence
  BVA  - Mayer's bonded valence
  FA   - Mayer's free valence

  ATOM       NA         ZA         QA         VA         BVA        FA
  0 Cr    25.7881    24.0000    -1.7881     7.7396     7.7396    -0.0000
  1 C      5.5929     6.0000     0.4071     3.7243     3.7243     0.0000
  2 C      5.5927     6.0000     0.4073     3.7248     3.7248    -0.0000
  3 C      5.5929     6.0000     0.4071     3.7244     3.7244    -0.0000
  4 C      5.5928     6.0000     0.4072     3.7249     3.7249     0.0000
  5 O      8.1092     8.0000    -0.1092     2.5674     2.5674    -0.0000
  6 O      8.1090     8.0000    -0.1090     2.5675     2.5675     0.0000
  7 O      8.1092     8.0000    -0.1092     2.5674     2.5674    -0.0000
  8 O      8.1091     8.0000    -0.1091     2.5674     2.5674    -0.0000
  9 C      5.5929     6.0000     0.4071     3.7243     3.7243    -0.0000
 10 O      8.1090     8.0000    -0.1090     2.5675     2.5675    -0.0000
 11 C      5.5929     6.0000     0.4071     3.7245     3.7245    -0.0000
 12 O      8.1092     8.0000    -0.1092     2.5674     2.5674    -0.0000

  Mayer bond orders larger than 0.100000
B(  0-Cr,  1-C ) :   1.1753 B(  0-Cr,  2-C ) :   1.1760 B(  0-Cr,  3-C ) :   1.1755 
B(  0-Cr,  4-C ) :   1.1760 B(  0-Cr,  5-O ) :   0.1144 B(  0-Cr,  6-O ) :   0.1143 
B(  0-Cr,  7-O ) :   0.1144 B(  0-Cr,  8-O ) :   0.1143 B(  0-Cr,  9-C ) :   1.1752 
B(  0-Cr, 10-O ) :   0.1143 B(  0-Cr, 11-C ) :   1.1756 B(  0-Cr, 12-O ) :   0.1143 
B(  1-C ,  6-O ) :   2.3831 B(  2-C ,  7-O ) :   2.3828 B(  3-C ,  8-O ) :   2.3830 
B(  4-C ,  5-O ) :   2.3828 B(  9-C , 10-O ) :   2.3831 B( 11-C , 12-O ) :   2.3829 


-------
TIMINGS
-------

Total SCF time: 0 days 0 hours 0 min 24 sec 

Total time                  ....      24.058 sec
Sum of individual times     ....      23.797 sec  ( 98.9%)

Fock matrix formation       ....      19.698 sec  ( 81.9%)
  XC integration            ....       1.561 sec  (  7.9% of F)
    Basis function eval.    ....       0.547 sec  ( 35.1% of XC)
    Density eval.           ....       0.252 sec  ( 16.2% of XC)
    XC-Functional eval.     ....       0.068 sec  (  4.4% of XC)
    XC-Potential eval.      ....       0.181 sec  ( 11.6% of XC)
Diagonalization             ....       0.136 sec  (  0.6%)
Density matrix formation    ....       0.017 sec  (  0.1%)
Population analysis         ....       0.005 sec  (  0.0%)
Initial guess               ....       0.141 sec  (  0.6%)
Orbital Transformation      ....       0.000 sec  (  0.0%)
Orbital Orthonormalization  ....       0.000 sec  (  0.0%)
DIIS solution               ....       0.072 sec  (  0.3%)
Grid generation             ....       3.728 sec  ( 15.5%)

-------------------------   --------------------
FINAL SINGLE POINT ENERGY     -1717.060791624203
-------------------------   --------------------


                            ***************************************
                            *     ORCA property calculations      *
                            ***************************************

                                    ---------------------
                                    Active property flags
                                    ---------------------
   (+) Dipole Moment


------------------------------------------------------------------------------
                       ORCA ELECTRIC PROPERTIES CALCULATION
------------------------------------------------------------------------------

Dipole Moment Calculation                       ... on
Quadrupole Moment Calculation                   ... off
Polarizability Calculation                      ... off
GBWName                                         ... CrCO6_pc-1_.gbw
Electron density file                           ... CrCO6_pc-1_.scfp
The origin for moment calculation is the CENTER OF MASS  = (-13.273864,  4.081882  5.078268)

-------------
DIPOLE MOMENT
-------------
                                X             Y             Z
Electronic contribution:     -0.00118      -0.00047       0.00076
Nuclear contribution   :      0.00087       0.00051      -0.00066
                        -----------------------------------------
Total Dipole Moment    :     -0.00031       0.00004       0.00010
                        -----------------------------------------
Magnitude (a.u.)       :      0.00033
Magnitude (Debye)      :      0.00083



--------------------
Rotational spectrum 
--------------------
 
Rotational constants in cm-1:     0.022283     0.022240     0.022104 
Rotational constants in MHz :   668.016885   666.751386   662.674535 

 Dipole components along the rotational axes: 
x,y,z [a.u.] :    -0.000120     0.000005     0.000304 
x,y,z [Debye]:    -0.000304     0.000013     0.000773 

 

Timings for individual modules:

Sum of individual times         ...       24.955 sec (=   0.416 min)
GTO integral calculation        ...        0.672 sec (=   0.011 min)   2.7 %
SCF iterations                  ...       24.283 sec (=   0.405 min)  97.3 %
                             ****ORCA TERMINATED NORMALLY****
TOTAL RUN TIME: 0 days 0 hours 0 minutes 25 seconds 298 msec
