
                                 *****************
                                 * O   R   C   A *
                                 *****************

           --- An Ab Initio, DFT and Semiempirical electronic structure package ---

                  #######################################################
                  #                        -***-                        #
                  #          Department of theory and spectroscopy      #
                  #               Directorship: Frank Neese             #
                  #        Max Planck Institute fuer Kohlenforschung    #
                  #                Kaiser Wilhelm Platz 1               #
                  #                 D-45470 Muelheim/Ruhr               #
                  #                      Germany                        #
                  #                                                     #
                  #                  All rights reserved                #
                  #                        -***-                        #
                  #######################################################


                         Program Version 4.2.1 -  RELEASE  -


 With contributions from (in alphabetic order):
   Daniel Aravena         : Magnetic Suceptibility
   Michael Atanasov       : Ab Initio Ligand Field Theory (pilot matlab implementation)
   Alexander A. Auer      : GIAO ZORA, VPT2
   Ute Becker             : Parallelization
   Giovanni Bistoni       : ED, misc. LED, open-shell LED, HFLD
   Martin Brehm           : Molecular dynamics
   Dmytro Bykov           : SCF Hessian
   Vijay G. Chilkuri      : MRCI spin determinant printing, contributions to CSF-ICE
   Dipayan Datta          : RHF DLPNO-CCSD density
   Achintya Kumar Dutta   : EOM-CC, STEOM-CC
   Dmitry Ganyushin       : Spin-Orbit,Spin-Spin,Magnetic field MRCI
   Miquel Garcia          : C-PCM Hessian, Gaussian charge scheme
   Yang Guo               : DLPNO-NEVPT2, CIM, IAO-localization
   Andreas Hansen         : Spin unrestricted coupled pair/coupled cluster methods
   Benjamin Helmich-Paris : CASSCF linear response (MC-RPA)
   Lee Huntington         : MR-EOM, pCC
   Robert Izsak           : Overlap fitted RIJCOSX, COSX-SCS-MP3, EOM
   Christian Kollmar      : KDIIS, OOCD, Brueckner-CCSD(T), CCSD density
   Simone Kossmann        : Meta GGA functionals, TD-DFT gradient, OOMP2, MP2 Hessian
   Martin Krupicka        : AUTO-CI
   Lucas Lang             : DCDCAS
   Dagmar Lenk            : GEPOL surface, SMD
   Dimitrios Liakos       : Extrapolation schemes; Compound Job, initial MDCI parallelization
   Dimitrios Manganas     : Further ROCIS development; embedding schemes
   Dimitrios Pantazis     : SARC Basis sets
   Taras Petrenko         : DFT Hessian,TD-DFT gradient, ASA, ECA, R-Raman, ABS, FL, XAS/XES, NRVS
   Peter Pinski           : DLPNO-MP2, DLPNO-MP2 Gradient
   Christoph Reimann      : Effective Core Potentials
   Marius Retegan         : Local ZFS, SOC
   Christoph Riplinger    : Optimizer, TS searches, QM/MM, DLPNO-CCSD(T), (RO)-DLPNO pert. Triples
   Tobias Risthaus        : Range-separated hybrids, TD-DFT gradient, RPA, STAB
   Michael Roemelt        : Original ROCIS implementation
   Masaaki Saitow         : Open-shell DLPNO-CCSD energy and density
   Barbara Sandhoefer     : DKH picture change effects
   Avijit Sen             : IP-ROCIS
   Kantharuban Sivalingam : CASSCF convergence, NEVPT2, FIC-MRCI
   Bernardo de Souza      : ESD, SOC TD-DFT
   Georgi Stoychev        : AutoAux, RI-MP2 NMR
   Willem Van den Heuvel  : Paramagnetic NMR
   Boris Wezisla          : Elementary symmetry handling
   Frank Wennmohs         : Technical directorship


 We gratefully acknowledge several colleagues who have allowed us to
 interface, adapt or use parts of their codes:
   Stefan Grimme, W. Hujo, H. Kruse,             : VdW corrections, initial TS optimization,
                  C. Bannwarth                     DFT functionals, gCP, sTDA/sTD-DF
   Ed Valeev, F. Pavosevic, A. Kumar             : LibInt (2-el integral package), F12 methods
   Garnet Chan, S. Sharma, J. Yang, R. Olivares  : DMRG
   Ulf Ekstrom                                   : XCFun DFT Library
   Mihaly Kallay                                 : mrcc  (arbitrary order and MRCC methods)
   Andreas Klamt, Michael Diedenhofen            : otool_cosmo (COSMO solvation model)
   Jiri Pittner, Ondrej Demel                    : Mk-CCSD
   Frank Weinhold                                : gennbo (NPA and NBO analysis)
   Christopher J. Cramer and Donald G. Truhlar   : smd solvation model
   Lars Goerigk                                  : TD-DFT with DH, B97 family of functionals
   V. Asgeirsson, H. Jonsson                     : NEB implementation
   FAccTs GmbH                                   : IRC, NEB, NEB-TS, Multilevel, MM, QM/MM, CI optimization
   S Lehtola, MJT Oliveira, MAL Marques          : LibXC Library


 Your calculation uses the libint2 library for the computation of 2-el integrals
 For citations please refer to: http://libint.valeyev.net

 Your ORCA version has been built with support for libXC version: 4.2.3
 For citations please refer to: https://tddft.org/programs/libxc/

 This ORCA versions uses:
   CBLAS   interface :  Fast vector & matrix operations
   LAPACKE interface :  Fast linear algebra routines
   SCALAPACK package :  Parallel linear algebra routines


----- Orbital basis set information -----
Your calculation utilizes the basis: def2-TZVP
   F. Weigend and R. Ahlrichs, Phys. Chem. Chem. Phys. 7, 3297 (2005).

================================================================================
                                        WARNINGS
                       Please study these warnings very carefully!
================================================================================


INFO   : the flag for use of LIBINT has been found!

================================================================================
                                       INPUT FILE
================================================================================
NAME = H2O_def2-tzvp_.inp
|  1> ! LDA def2-tzvp nori grid5 finalgrid6 verytightscf
|  2> %Pal NProcs 18 End
|  3> 
|  4> *xyz 0 1
|  5> O 0.0000 0.0000 0.1173
|  6> H 0.0000 0.7572 -0.4692
|  7> H 0.0000 -0.7572 -0.4692
|  8> **                         ****END OF INPUT****
================================================================================

                       ****************************
                       * Single Point Calculation *
                       ****************************

---------------------------------
CARTESIAN COORDINATES (ANGSTROEM)
---------------------------------
  O      0.000000    0.000000    0.117300
  H      0.000000    0.757200   -0.469200
  H      0.000000   -0.757200   -0.469200

----------------------------
CARTESIAN COORDINATES (A.U.)
----------------------------
  NO LB      ZA    FRAG     MASS         X           Y           Z
   0 O     8.0000    0    15.999    0.000000    0.000000    0.221665
   1 H     1.0000    0     1.008    0.000000    1.430901   -0.886660
   2 H     1.0000    0     1.008    0.000000   -1.430901   -0.886660

--------------------------------
INTERNAL COORDINATES (ANGSTROEM)
--------------------------------
 O      0   0   0     0.000000000000     0.00000000     0.00000000
 H      1   0   0     0.957775594803     0.00000000     0.00000000
 H      1   2   0     0.957775594803   104.47983882     0.00000000

---------------------------
INTERNAL COORDINATES (A.U.)
---------------------------
 O      0   0   0     0.000000000000     0.00000000     0.00000000
 H      1   0   0     1.809933571931     0.00000000     0.00000000
 H      1   2   0     1.809933571931   104.47983882     0.00000000

---------------------
BASIS SET INFORMATION
---------------------
There are 2 groups of distinct atoms

 Group   1 Type O   : 11s6p2d1f contracted to 5s3p2d1f pattern {62111/411/11/1}
 Group   2 Type H   : 5s1p contracted to 3s1p pattern {311/1}

Atom   0O    basis set group =>   1
Atom   1H    basis set group =>   2
Atom   2H    basis set group =>   2


           ************************************************************
           *        Program running with 18 parallel MPI-processes    *
           *              working on a common directory               *
           ************************************************************
------------------------------------------------------------------------------
                           ORCA GTO INTEGRAL CALCULATION
------------------------------------------------------------------------------

                         BASIS SET STATISTICS AND STARTUP INFO

 # of primitive gaussian shells          ...   32
 # of primitive gaussian functions       ...   62
 # of contracted shells                  ...   19
 # of contracted basis functions         ...   43
 Highest angular momentum                ...    3
 Maximum contraction depth               ...    6
 Integral package used                   ... LIBINT
 Integral threshhold            Thresh   ...  1.000e-12
 Primitive cut-off              TCut     ...  1.000e-14


------------------------------ INTEGRAL EVALUATION ----------------------------


 * One electron integrals 
 Pre-screening matrix                    ... done
 Shell pair data                         ... done (   0.000 sec)



           ************************************************************
           *        Program running with 18 parallel MPI-processes    *
           *              working on a common directory               *
           ************************************************************
-------------------------------------------------------------------------------
                                 ORCA SCF
-------------------------------------------------------------------------------

------------
SCF SETTINGS
------------
Hamiltonian:
 Density Functional     Method          .... DFT(GTOs)
 Exchange Functional    Exchange        .... Slater
   X-Alpha parameter    XAlpha          ....  0.666667
 Correlation Functional Correlation     .... VWN-5
 Gradients option       PostSCFGGA      .... off
   Density functional embedding theory  .... OFF


General Settings:
 Integral files         IntName         .... H2O_def2-tzvp_
 Hartree-Fock type      HFTyp           .... RHF
 Total Charge           Charge          ....    0
 Multiplicity           Mult            ....    1
 Number of Electrons    NEL             ....   10
 Basis Dimension        Dim             ....   43
 Nuclear Repulsion      ENuc            ....      9.1895337174 Eh

Convergence Acceleration:
 DIIS                   CNVDIIS         .... on
   Start iteration      DIISMaxIt       ....    12
   Startup error        DIISStart       ....  0.200000
   # of expansion vecs  DIISMaxEq       ....     5
   Bias factor          DIISBfac        ....   1.050
   Max. coefficient     DIISMaxC        ....  10.000
 Newton-Raphson         CNVNR           .... off
 SOSCF                  CNVSOSCF        .... on
   Start iteration      SOSCFMaxIt      ....   150
   Startup grad/error   SOSCFStart      ....  0.003300
 Level Shifting         CNVShift        .... on
   Level shift para.    LevelShift      ....    0.2500
   Turn off err/grad.   ShiftErr        ....    0.0010
 Zerner damping         CNVZerner       .... off
 Static damping         CNVDamp         .... on
   Fraction old density DampFac         ....    0.7000
   Max. Damping (<1)    DampMax         ....    0.9800
   Min. Damping (>=0)   DampMin         ....    0.0000
   Turn off err/grad.   DampErr         ....    0.1000
 Fernandez-Rico         CNVRico         .... off

SCF Procedure:
 Maximum # iterations   MaxIter         ....   125
 SCF integral mode      SCFMode         .... Direct
   Integral package                     .... LIBINT
 Reset frequency        DirectResetFreq ....    20
 Integral Threshold     Thresh          ....  1.000e-12 Eh
 Primitive CutOff       TCut            ....  1.000e-14 Eh

Convergence Tolerance:
 Convergence Check Mode ConvCheckMode   .... Total+1el-Energy
 Convergence forced     ConvForced      .... 0
 Energy Change          TolE            ....  1.000e-09 Eh
 1-El. energy change                    ....  1.000e-06 Eh
 Orbital Gradient       TolG            ....  2.000e-06
 Orbital Rotation angle TolX            ....  2.000e-06
 DIIS Error             TolErr          ....  1.000e-08


Diagonalization of the overlap matrix:
Smallest eigenvalue                        ... 8.317e-03
Time for diagonalization                   ...    0.001 sec
Threshold for overlap eigenvalues          ... 1.000e-08
Number of eigenvalues below threshold      ... 0
Time for construction of square roots      ...    0.001 sec
Total time needed                          ...    0.002 sec

-------------------
DFT GRID GENERATION
-------------------

General Integration Accuracy     IntAcc      ...  5.010
Radial Grid Type                 RadialGrid  ... Gauss-Chebyshev
Angular Grid (max. acc.)         AngularGrid ... Lebedev-434
Angular grid pruning method      GridPruning ... 3 (G Style)
Weight generation scheme         WeightScheme... Becke
Basis function cutoff            BFCut       ...    1.0000e-12
Integration weight cutoff        WCut        ...    1.0000e-14
Grids for H and He will be reduced by one unit

# of grid points (after initial pruning)     ...  24226 (   0.0 sec)
# of grid points (after weights+screening)   ...  24010 (   0.0 sec)
nearest neighbour list constructed           ...    0.0 sec
Grid point re-assignment to atoms done       ...    0.0 sec
Grid point division into batches done        ...    0.1 sec
Reduced shell lists constructed in    0.1 sec

Total number of grid points                  ...    24010
Total number of batches                      ...      376
Average number of points per batch           ...       63
Average number of grid points per atom       ...     8003
Average number of shells per batch           ...     6.77 (35.65%)
Average number of basis functions per batch  ...    13.14 (30.55%)
Average number of large shells per batch     ...     5.36 (79.19%)
Average number of large basis fcns per batch ...     9.64 (73.36%)
Maximum spatial batch extension              ...  16.27, 13.72, 10.73 au
Average spatial batch extension              ...   0.47,  0.42,  0.38 au

Time for grid setup =    0.185 sec

------------------------------
INITIAL GUESS: MODEL POTENTIAL
------------------------------
Loading Hartree-Fock densities                     ... done
Calculating cut-offs                               ... done
Setting up the integral package                    ... done
Initializing the effective Hamiltonian             ... done
Starting the Coulomb interaction                   ... done (   0.0 sec)
Reading the grid                                   ... done
Mapping shells                                     ... done
Starting the XC term evaluation                    ... done (   0.0 sec)
  promolecular density results
     # of electrons  =      9.999021916
     EX              =     -7.925608619
     EC              =     -0.652088290
     EX+EC           =     -8.577696910
Transforming the Hamiltonian                       ... done (   0.0 sec)
Diagonalizing the Hamiltonian                      ... done (   0.0 sec)
Back transforming the eigenvectors                 ... done (   0.0 sec)
Now organizing SCF variables                       ... done
                      ------------------
                      INITIAL GUESS DONE (   0.3 sec)
                      ------------------
--------------
SCF ITERATIONS
--------------
ITER       Energy         Delta-E        Max-DP      RMS-DP      [F,P]     Damp
               ***  Starting incremental Fock matrix formation  ***
  0    -75.8023888499   0.000000000000 0.07406939  0.00450069  0.3306892 0.7000
  1    -75.8541691520  -0.051780302154 0.03919893  0.00246879  0.1047245 0.7000
                               ***Turning on DIIS***
  2    -75.8669486852  -0.012779533161 0.02726320  0.00218708  0.0171951 0.0000
  3    -75.8976322062  -0.030683521042 0.02287029  0.00130981  0.0584157 0.0000
  4    -75.9007115894  -0.003079383183 0.00361538  0.00031707  0.0058708 0.0000
                      *** Initiating the SOSCF procedure ***
                           *** Shutting down DIIS ***
                      *** Re-Reading the Fockian *** 
                      *** Removing any level shift *** 
ITER      Energy       Delta-E        Grad      Rot      Max-DP    RMS-DP
  5    -75.90078695  -0.0000753644  0.000816  0.000816  0.002011  0.000153
               *** Restarting incremental Fock matrix formation ***
  6    -75.90079155  -0.0000045953  0.000167  0.000294  0.000390  0.000025
  7    -75.90079118   0.0000003679  0.000346  0.000181  0.000266  0.000016
  8    -75.90079173  -0.0000005528  0.000017  0.000020  0.000022  0.000001
  9    -75.90079174  -0.0000000014  0.000007  0.000005  0.000006  0.000000
 10    -75.90079174  -0.0000000002  0.000001  0.000001  0.000000  0.000000
                 **** Energy Check signals convergence ****
              ***Rediagonalizing the Fockian in SOSCF/NRSCF***

               *****************************************************
               *                     SUCCESS                       *
               *           SCF CONVERGED AFTER  11 CYCLES          *
               *****************************************************

Setting up the final grid:

General Integration Accuracy     IntAcc      ...  5.340
Radial Grid Type                 RadialGrid  ... Gauss-Chebyshev
Angular Grid (max. acc.)         AngularGrid ... Lebedev-590
Angular grid pruning method      GridPruning ... 3 (G Style)
Weight generation scheme         WeightScheme... Becke
Basis function cutoff            BFCut       ...    1.0000e-12
Integration weight cutoff        WCut        ...    1.0000e-14
Grids for H and He will be reduced by one unit

# of grid points (after initial pruning)     ...  38728 (   0.0 sec)
# of grid points (after weights+screening)   ...  38328 (   0.0 sec)
nearest neighbour list constructed           ...    0.0 sec
Grid point re-assignment to atoms done       ...    0.0 sec
Grid point division into batches done        ...    0.3 sec
Reduced shell lists constructed in    0.3 sec

Total number of grid points                  ...    38328
Total number of batches                      ...      600
Average number of points per batch           ...       63
Average number of grid points per atom       ...    12776
Average number of shells per batch           ...     6.26 (32.93%)
Average number of basis functions per batch  ...    12.31 (28.64%)
Average number of large shells per batch     ...     4.51 (72.15%)
Average number of large basis fcns per batch ...     7.89 (64.04%)
Maximum spatial batch extension              ...  14.03, 13.64, 12.40 au
Average spatial batch extension              ...   0.39,  0.38,  0.36 au

Final grid set up in    0.4 sec
Final integration                            ... done (   0.0 sec)
Change in XC energy                          ...     0.000001453
Integrated number of electrons               ...    10.000000091
Previous integrated no of electrons          ...    10.000000528

----------------
TOTAL SCF ENERGY
----------------

Total Energy       :          -75.90079028 Eh           -2065.36550 eV

Components:
Nuclear Repulsion  :            9.18953372 Eh             250.05993 eV
Electronic Energy  :          -85.09032400 Eh           -2315.42543 eV
One Electron Energy:         -123.00327505 Eh           -3347.08928 eV
Two Electron Energy:           37.91295105 Eh            1031.66385 eV

Virial components:
Potential Energy   :         -151.44009290 Eh           -4120.89443 eV
Kinetic Energy     :           75.53930261 Eh            2055.52893 eV
Virial Ratio       :            2.00478543


DFT components:
N(Alpha)           :        5.000000045267 electrons
N(Beta)            :        5.000000045267 electrons
N(Total)           :       10.000000090535 electrons
E(X)               :       -8.086061261378 Eh       
E(C)               :       -0.662515999009 Eh       
E(XC)              :       -8.748577260387 Eh       
DFET-embed. en.    :        0.000000000000 Eh       

---------------
SCF CONVERGENCE
---------------

  Last Energy change         ...   -1.1653e-12  Tolerance :   1.0000e-09
  Last MAX-Density change    ...    1.6586e-07  Tolerance :   1.0000e-08
  Last RMS-Density change    ...    1.5645e-08  Tolerance :   1.0000e-09
  Last Orbital Gradient      ...    2.3083e-07  Tolerance :   2.0000e-06
  Last Orbital Rotation      ...    1.8161e-07  Tolerance :   2.0000e-06

             **** THE GBW FILE WAS UPDATED (H2O_def2-tzvp_.gbw) ****
             **** DENSITY FILE WAS UPDATED (H2O_def2-tzvp_.scfp) ****
             **** ENERGY FILE WAS UPDATED (H2O_def2-tzvp_.en.tmp) ****
             **** THE GBW FILE WAS UPDATED (H2O_def2-tzvp_.gbw) ****
             **** DENSITY FILE WAS UPDATED (H2O_def2-tzvp_.scfp) ****
----------------
ORBITAL ENERGIES
----------------

  NO   OCC          E(Eh)            E(eV) 
   0   2.0000     -18.599823      -506.1269 
   1   2.0000      -0.920412       -25.0457 
   2   2.0000      -0.482323       -13.1247 
   3   2.0000      -0.336506        -9.1568 
   4   2.0000      -0.262602        -7.1458 
   5   0.0000      -0.002605        -0.0709 
   6   0.0000       0.073868         2.0100 
   7   0.0000       0.327344         8.9075 
   8   0.0000       0.377514        10.2727 
   9   0.0000       0.389289        10.5931 
  10   0.0000       0.396890        10.7999 
  11   0.0000       0.530011        14.4223 
  12   0.0000       0.559525        15.2254 
  13   0.0000       1.097467        29.8636 
  14   0.0000       1.124139        30.5894 
  15   0.0000       1.229461        33.4553 
  16   0.0000       1.466826        39.9144 
  17   0.0000       1.573940        42.8291 
  18   0.0000       1.685785        45.8725 
  19   0.0000       1.912373        52.0383 
  20   0.0000       1.984938        54.0129 
  21   0.0000       2.029018        55.2124 
  22   0.0000       2.212370        60.2016 
  23   0.0000       2.296866        62.5009 
  24   0.0000       2.486533        67.6620 
  25   0.0000       2.505429        68.1762 
  26   0.0000       2.518001        68.5183 
  27   0.0000       2.691364        73.2357 
  28   0.0000       3.556617        96.7805 
  29   0.0000       3.840882       104.5157 
  30   0.0000       4.986456       135.6884 
  31   0.0000       5.090485       138.5191 
  32   0.0000       5.268261       143.3567 
  33   0.0000       5.292775       144.0237 
  34   0.0000       5.350904       145.6055 
  35   0.0000       5.929030       161.3371 
  36   0.0000       6.097936       165.9333 
  37   0.0000       6.177893       168.1090 
  38   0.0000       6.239599       169.7881 
  39   0.0000       6.292304       171.2223 
  40   0.0000       6.794164       184.8786 
  41   0.0000       6.873841       187.0467 
  42   0.0000      43.076993      1172.1846 

                    ********************************
                    * MULLIKEN POPULATION ANALYSIS *
                    ********************************

-----------------------
MULLIKEN ATOMIC CHARGES
-----------------------
   0 O :   -0.645627
   1 H :    0.322814
   2 H :    0.322814
Sum of atomic charges:    0.0000000

--------------------------------
MULLIKEN REDUCED ORBITAL CHARGES
--------------------------------
  0 O s       :     3.809464  s :     3.809464
      pz      :     1.587550  p :     4.815375
      px      :     1.961163
      py      :     1.266662
      dz2     :     0.003435  d :     0.019538
      dxz     :     0.002802
      dyz     :     0.011606
      dx2y2   :     0.001695
      dxy     :     0.000000
      f0      :     0.000021  f :     0.001249
      f+1     :     0.000022
      f-1     :     0.000054
      f+2     :     0.000636
      f-2     :     0.000000
      f+3     :     0.000133
      f-3     :     0.000383
  1 H s       :     0.627015  s :     0.627015
      pz      :     0.015770  p :     0.050172
      px      :     0.017940
      py      :     0.016462
  2 H s       :     0.627015  s :     0.627015
      pz      :     0.015770  p :     0.050172
      px      :     0.017940
      py      :     0.016462


                     *******************************
                     * LOEWDIN POPULATION ANALYSIS *
                     *******************************

----------------------
LOEWDIN ATOMIC CHARGES
----------------------
   0 O :   -0.312988
   1 H :    0.156494
   2 H :    0.156494

-------------------------------
LOEWDIN REDUCED ORBITAL CHARGES
-------------------------------
  0 O s       :     3.453308  s :     3.453308
      pz      :     1.622024  p :     4.826589
      px      :     1.901008
      py      :     1.303557
      dz2     :     0.001658  d :     0.030715
      dxz     :     0.001026
      dyz     :     0.023328
      dx2y2   :     0.004704
      dxy     :     0.000000
      f0      :     0.000202  f :     0.002376
      f+1     :     0.000000
      f-1     :     0.000508
      f+2     :     0.001153
      f-2     :     0.000000
      f+3     :     0.000000
      f-3     :     0.000513
  1 H s       :     0.679989  s :     0.679989
      pz      :     0.057689  p :     0.163517
      px      :     0.048983
      py      :     0.056845
  2 H s       :     0.679989  s :     0.679989
      pz      :     0.057689  p :     0.163517
      px      :     0.048983
      py      :     0.056845


                      *****************************
                      * MAYER POPULATION ANALYSIS *
                      *****************************

  NA   - Mulliken gross atomic population
  ZA   - Total nuclear charge
  QA   - Mulliken gross atomic charge
  VA   - Mayer's total valence
  BVA  - Mayer's bonded valence
  FA   - Mayer's free valence

  ATOM       NA         ZA         QA         VA         BVA        FA
  0 O      8.6456     8.0000    -0.6456     1.8162     1.8162     0.0000
  1 H      0.6772     1.0000     0.3228     0.9140     0.9140     0.0000
  2 H      0.6772     1.0000     0.3228     0.9140     0.9140     0.0000

  Mayer bond orders larger than 0.100000
B(  0-O ,  1-H ) :   0.9081 B(  0-O ,  2-H ) :   0.9081 

-------
TIMINGS
-------

Total SCF time: 0 days 0 hours 0 min 2 sec 

Total time                  ....       2.269 sec
Sum of individual times     ....       2.100 sec  ( 92.5%)

Fock matrix formation       ....       1.449 sec  ( 63.8%)
  XC integration            ....       0.054 sec  (  3.7% of F)
    Basis function eval.    ....       0.011 sec  ( 20.1% of XC)
    Density eval.           ....       0.004 sec  (  7.7% of XC)
    XC-Functional eval.     ....       0.006 sec  ( 11.0% of XC)
    XC-Potential eval.      ....       0.004 sec  (  8.1% of XC)
Diagonalization             ....       0.002 sec  (  0.1%)
Density matrix formation    ....       0.001 sec  (  0.0%)
Population analysis         ....       0.001 sec  (  0.0%)
Initial guess               ....       0.072 sec  (  3.2%)
Orbital Transformation      ....       0.000 sec  (  0.0%)
Orbital Orthonormalization  ....       0.000 sec  (  0.0%)
DIIS solution               ....       0.001 sec  (  0.0%)
SOSCF solution              ....       0.001 sec  (  0.1%)
Grid generation             ....       0.573 sec  ( 25.3%)

-------------------------   --------------------
FINAL SINGLE POINT ENERGY       -75.900790282695
-------------------------   --------------------


                            ***************************************
                            *     ORCA property calculations      *
                            ***************************************

                                    ---------------------
                                    Active property flags
                                    ---------------------
   (+) Dipole Moment


------------------------------------------------------------------------------
                       ORCA ELECTRIC PROPERTIES CALCULATION
------------------------------------------------------------------------------

Dipole Moment Calculation                       ... on
Quadrupole Moment Calculation                   ... off
Polarizability Calculation                      ... off
GBWName                                         ... H2O_def2-tzvp_.gbw
Electron density file                           ... H2O_def2-tzvp_.scfp
The origin for moment calculation is the CENTER OF MASS  = ( 0.000000,  0.000000  0.097636)

-------------
DIPOLE MOMENT
-------------
                                X             Y             Z
Electronic contribution:     -0.00000       0.00000       0.14438
Nuclear contribution   :      0.00000       0.00000      -0.97636
                        -----------------------------------------
Total Dipole Moment    :     -0.00000       0.00000      -0.83198
                        -----------------------------------------
Magnitude (a.u.)       :      0.83198
Magnitude (Debye)      :      2.11473



--------------------
Rotational spectrum 
--------------------
 
Rotational constants in cm-1:    27.372330    14.584286     9.514730 
Rotational constants in MHz : 820601.811463 437225.885101 285244.437146 

 Dipole components along the rotational axes: 
x,y,z [a.u.] :     0.000000    -0.831983    -0.000000 
x,y,z [Debye]:     0.000000    -2.114733    -0.000000 

 

Timings for individual modules:

Sum of individual times         ...        2.975 sec (=   0.050 min)
GTO integral calculation        ...        0.485 sec (=   0.008 min)  16.3 %
SCF iterations                  ...        2.489 sec (=   0.041 min)  83.7 %
                             ****ORCA TERMINATED NORMALLY****
TOTAL RUN TIME: 0 days 0 hours 0 minutes 3 seconds 288 msec
