
                                 *****************
                                 * O   R   C   A *
                                 *****************

           --- An Ab Initio, DFT and Semiempirical electronic structure package ---

                  #######################################################
                  #                        -***-                        #
                  #          Department of theory and spectroscopy      #
                  #               Directorship: Frank Neese             #
                  #        Max Planck Institute fuer Kohlenforschung    #
                  #                Kaiser Wilhelm Platz 1               #
                  #                 D-45470 Muelheim/Ruhr               #
                  #                      Germany                        #
                  #                                                     #
                  #                  All rights reserved                #
                  #                        -***-                        #
                  #######################################################


                         Program Version 4.2.1 -  RELEASE  -


 With contributions from (in alphabetic order):
   Daniel Aravena         : Magnetic Suceptibility
   Michael Atanasov       : Ab Initio Ligand Field Theory (pilot matlab implementation)
   Alexander A. Auer      : GIAO ZORA, VPT2
   Ute Becker             : Parallelization
   Giovanni Bistoni       : ED, misc. LED, open-shell LED, HFLD
   Martin Brehm           : Molecular dynamics
   Dmytro Bykov           : SCF Hessian
   Vijay G. Chilkuri      : MRCI spin determinant printing, contributions to CSF-ICE
   Dipayan Datta          : RHF DLPNO-CCSD density
   Achintya Kumar Dutta   : EOM-CC, STEOM-CC
   Dmitry Ganyushin       : Spin-Orbit,Spin-Spin,Magnetic field MRCI
   Miquel Garcia          : C-PCM Hessian, Gaussian charge scheme
   Yang Guo               : DLPNO-NEVPT2, CIM, IAO-localization
   Andreas Hansen         : Spin unrestricted coupled pair/coupled cluster methods
   Benjamin Helmich-Paris : CASSCF linear response (MC-RPA)
   Lee Huntington         : MR-EOM, pCC
   Robert Izsak           : Overlap fitted RIJCOSX, COSX-SCS-MP3, EOM
   Christian Kollmar      : KDIIS, OOCD, Brueckner-CCSD(T), CCSD density
   Simone Kossmann        : Meta GGA functionals, TD-DFT gradient, OOMP2, MP2 Hessian
   Martin Krupicka        : AUTO-CI
   Lucas Lang             : DCDCAS
   Dagmar Lenk            : GEPOL surface, SMD
   Dimitrios Liakos       : Extrapolation schemes; Compound Job, initial MDCI parallelization
   Dimitrios Manganas     : Further ROCIS development; embedding schemes
   Dimitrios Pantazis     : SARC Basis sets
   Taras Petrenko         : DFT Hessian,TD-DFT gradient, ASA, ECA, R-Raman, ABS, FL, XAS/XES, NRVS
   Peter Pinski           : DLPNO-MP2, DLPNO-MP2 Gradient
   Christoph Reimann      : Effective Core Potentials
   Marius Retegan         : Local ZFS, SOC
   Christoph Riplinger    : Optimizer, TS searches, QM/MM, DLPNO-CCSD(T), (RO)-DLPNO pert. Triples
   Tobias Risthaus        : Range-separated hybrids, TD-DFT gradient, RPA, STAB
   Michael Roemelt        : Original ROCIS implementation
   Masaaki Saitow         : Open-shell DLPNO-CCSD energy and density
   Barbara Sandhoefer     : DKH picture change effects
   Avijit Sen             : IP-ROCIS
   Kantharuban Sivalingam : CASSCF convergence, NEVPT2, FIC-MRCI
   Bernardo de Souza      : ESD, SOC TD-DFT
   Georgi Stoychev        : AutoAux, RI-MP2 NMR
   Willem Van den Heuvel  : Paramagnetic NMR
   Boris Wezisla          : Elementary symmetry handling
   Frank Wennmohs         : Technical directorship


 We gratefully acknowledge several colleagues who have allowed us to
 interface, adapt or use parts of their codes:
   Stefan Grimme, W. Hujo, H. Kruse,             : VdW corrections, initial TS optimization,
                  C. Bannwarth                     DFT functionals, gCP, sTDA/sTD-DF
   Ed Valeev, F. Pavosevic, A. Kumar             : LibInt (2-el integral package), F12 methods
   Garnet Chan, S. Sharma, J. Yang, R. Olivares  : DMRG
   Ulf Ekstrom                                   : XCFun DFT Library
   Mihaly Kallay                                 : mrcc  (arbitrary order and MRCC methods)
   Andreas Klamt, Michael Diedenhofen            : otool_cosmo (COSMO solvation model)
   Jiri Pittner, Ondrej Demel                    : Mk-CCSD
   Frank Weinhold                                : gennbo (NPA and NBO analysis)
   Christopher J. Cramer and Donald G. Truhlar   : smd solvation model
   Lars Goerigk                                  : TD-DFT with DH, B97 family of functionals
   V. Asgeirsson, H. Jonsson                     : NEB implementation
   FAccTs GmbH                                   : IRC, NEB, NEB-TS, Multilevel, MM, QM/MM, CI optimization
   S Lehtola, MJT Oliveira, MAL Marques          : LibXC Library


 Your calculation uses the libint2 library for the computation of 2-el integrals
 For citations please refer to: http://libint.valeyev.net

 Your ORCA version has been built with support for libXC version: 4.2.3
 For citations please refer to: https://tddft.org/programs/libxc/

 This ORCA versions uses:
   CBLAS   interface :  Fast vector & matrix operations
   LAPACKE interface :  Fast linear algebra routines
   SCALAPACK package :  Parallel linear algebra routines


----- Orbital basis set information -----
Your calculation utilizes the basis: ZORA-def2-SVP 
   Exponents from def2-SVP [F. Weigend and R. Ahlrichs, Phys. Chem. Chem. Phys. 7, 3297 (2005)],
   recontracted for ZORA by D. A. Pantazis.

================================================================================
                                        WARNINGS
                       Please study these warnings very carefully!
================================================================================


INFO   : the flag for use of LIBINT has been found!

================================================================================
                                       INPUT FILE
================================================================================
NAME = H2O_zora-def2-svp_.inp
|  1> ! LDA zora-def2-svp nori grid5 finalgrid6 verytightscf
|  2> %Pal NProcs 18 End
|  3> 
|  4> *xyz 0 1
|  5> O 0.0000 0.0000 0.1173
|  6> H 0.0000 0.7572 -0.4692
|  7> H 0.0000 -0.7572 -0.4692
|  8> **                         ****END OF INPUT****
================================================================================

                       ****************************
                       * Single Point Calculation *
                       ****************************

---------------------------------
CARTESIAN COORDINATES (ANGSTROEM)
---------------------------------
  O      0.000000    0.000000    0.117300
  H      0.000000    0.757200   -0.469200
  H      0.000000   -0.757200   -0.469200

----------------------------
CARTESIAN COORDINATES (A.U.)
----------------------------
  NO LB      ZA    FRAG     MASS         X           Y           Z
   0 O     8.0000    0    15.999    0.000000    0.000000    0.221665
   1 H     1.0000    0     1.008    0.000000    1.430901   -0.886660
   2 H     1.0000    0     1.008    0.000000   -1.430901   -0.886660

--------------------------------
INTERNAL COORDINATES (ANGSTROEM)
--------------------------------
 O      0   0   0     0.000000000000     0.00000000     0.00000000
 H      1   0   0     0.957775594803     0.00000000     0.00000000
 H      1   2   0     0.957775594803   104.47983882     0.00000000

---------------------------
INTERNAL COORDINATES (A.U.)
---------------------------
 O      0   0   0     0.000000000000     0.00000000     0.00000000
 H      1   0   0     1.809933571931     0.00000000     0.00000000
 H      1   2   0     1.809933571931   104.47983882     0.00000000

---------------------
BASIS SET INFORMATION
---------------------
There are 2 groups of distinct atoms

 Group   1 Type O   : 7s4p1d contracted to 3s2p1d pattern {511/31/1}
 Group   2 Type H   : 4s1p contracted to 2s1p pattern {31/1}

Atom   0O    basis set group =>   1
Atom   1H    basis set group =>   2
Atom   2H    basis set group =>   2


           ************************************************************
           *        Program running with 18 parallel MPI-processes    *
           *              working on a common directory               *
           ************************************************************
------------------------------------------------------------------------------
                           ORCA GTO INTEGRAL CALCULATION
------------------------------------------------------------------------------

                         BASIS SET STATISTICS AND STARTUP INFO

 # of primitive gaussian shells          ...   22
 # of primitive gaussian functions       ...   38
 # of contracted shells                  ...   12
 # of contracted basis functions         ...   24
 Highest angular momentum                ...    2
 Maximum contraction depth               ...    5
 Integral package used                   ... LIBINT
 Integral threshhold            Thresh   ...  1.000e-12
 Primitive cut-off              TCut     ...  1.000e-14


------------------------------ INTEGRAL EVALUATION ----------------------------


 * One electron integrals 
 Pre-screening matrix                    ... done
 Shell pair data                         ... done (   0.000 sec)



           ************************************************************
           *        Program running with 18 parallel MPI-processes    *
           *              working on a common directory               *
           ************************************************************
-------------------------------------------------------------------------------
                                 ORCA SCF
-------------------------------------------------------------------------------

------------
SCF SETTINGS
------------
Hamiltonian:
 Density Functional     Method          .... DFT(GTOs)
 Exchange Functional    Exchange        .... Slater
   X-Alpha parameter    XAlpha          ....  0.666667
 Correlation Functional Correlation     .... VWN-5
 Gradients option       PostSCFGGA      .... off
   Density functional embedding theory  .... OFF


General Settings:
 Integral files         IntName         .... H2O_zora-def2-svp_
 Hartree-Fock type      HFTyp           .... RHF
 Total Charge           Charge          ....    0
 Multiplicity           Mult            ....    1
 Number of Electrons    NEL             ....   10
 Basis Dimension        Dim             ....   24
 Nuclear Repulsion      ENuc            ....      9.1895337174 Eh

Convergence Acceleration:
 DIIS                   CNVDIIS         .... on
   Start iteration      DIISMaxIt       ....    12
   Startup error        DIISStart       ....  0.200000
   # of expansion vecs  DIISMaxEq       ....     5
   Bias factor          DIISBfac        ....   1.050
   Max. coefficient     DIISMaxC        ....  10.000
 Newton-Raphson         CNVNR           .... off
 SOSCF                  CNVSOSCF        .... on
   Start iteration      SOSCFMaxIt      ....   150
   Startup grad/error   SOSCFStart      ....  0.003300
 Level Shifting         CNVShift        .... on
   Level shift para.    LevelShift      ....    0.2500
   Turn off err/grad.   ShiftErr        ....    0.0010
 Zerner damping         CNVZerner       .... off
 Static damping         CNVDamp         .... on
   Fraction old density DampFac         ....    0.7000
   Max. Damping (<1)    DampMax         ....    0.9800
   Min. Damping (>=0)   DampMin         ....    0.0000
   Turn off err/grad.   DampErr         ....    0.1000
 Fernandez-Rico         CNVRico         .... off

SCF Procedure:
 Maximum # iterations   MaxIter         ....   125
 SCF integral mode      SCFMode         .... Direct
   Integral package                     .... LIBINT
 Reset frequency        DirectResetFreq ....    20
 Integral Threshold     Thresh          ....  1.000e-12 Eh
 Primitive CutOff       TCut            ....  1.000e-14 Eh

Convergence Tolerance:
 Convergence Check Mode ConvCheckMode   .... Total+1el-Energy
 Convergence forced     ConvForced      .... 0
 Energy Change          TolE            ....  1.000e-09 Eh
 1-El. energy change                    ....  1.000e-06 Eh
 Orbital Gradient       TolG            ....  2.000e-06
 Orbital Rotation angle TolX            ....  2.000e-06
 DIIS Error             TolErr          ....  1.000e-08


Diagonalization of the overlap matrix:
Smallest eigenvalue                        ... 4.050e-02
Time for diagonalization                   ...    0.001 sec
Threshold for overlap eigenvalues          ... 1.000e-08
Number of eigenvalues below threshold      ... 0
Time for construction of square roots      ...    0.001 sec
Total time needed                          ...    0.002 sec

-------------------
DFT GRID GENERATION
-------------------

General Integration Accuracy     IntAcc      ...  5.010
Radial Grid Type                 RadialGrid  ... Gauss-Chebyshev
Angular Grid (max. acc.)         AngularGrid ... Lebedev-434
Angular grid pruning method      GridPruning ... 3 (G Style)
Weight generation scheme         WeightScheme... Becke
Basis function cutoff            BFCut       ...    1.0000e-12
Integration weight cutoff        WCut        ...    1.0000e-14
Grids for H and He will be reduced by one unit

# of grid points (after initial pruning)     ...  24226 (   0.0 sec)
# of grid points (after weights+screening)   ...  24010 (   0.0 sec)
nearest neighbour list constructed           ...    0.0 sec
Grid point re-assignment to atoms done       ...    0.0 sec
Grid point division into batches done        ...    0.2 sec
Reduced shell lists constructed in    0.2 sec

Total number of grid points                  ...    24010
Total number of batches                      ...      376
Average number of points per batch           ...       63
Average number of grid points per atom       ...     8003
Average number of shells per batch           ...     5.00 (41.67%)
Average number of basis functions per batch  ...     8.09 (33.71%)
Average number of large shells per batch     ...     3.41 (68.18%)
Average number of large basis fcns per batch ...     5.05 (62.36%)
Maximum spatial batch extension              ...  16.27, 13.72, 10.73 au
Average spatial batch extension              ...   0.47,  0.42,  0.38 au

Time for grid setup =    0.200 sec

------------------------------
INITIAL GUESS: MODEL POTENTIAL
------------------------------
Loading Hartree-Fock densities                     ... done
Calculating cut-offs                               ... done
Setting up the integral package                    ... done
Initializing the effective Hamiltonian             ... done
Starting the Coulomb interaction                   ... done (   0.0 sec)
Reading the grid                                   ... done
Mapping shells                                     ... done
Starting the XC term evaluation                    ... done (   0.0 sec)
  promolecular density results
     # of electrons  =      9.999021916
     EX              =     -7.925608619
     EC              =     -0.652088290
     EX+EC           =     -8.577696910
Transforming the Hamiltonian                       ... done (   0.0 sec)
Diagonalizing the Hamiltonian                      ... done (   0.0 sec)
Back transforming the eigenvectors                 ... done (   0.0 sec)
Now organizing SCF variables                       ... done
                      ------------------
                      INITIAL GUESS DONE (   0.3 sec)
                      ------------------
--------------
SCF ITERATIONS
--------------
ITER       Energy         Delta-E        Max-DP      RMS-DP      [F,P]     Damp
               ***  Starting incremental Fock matrix formation  ***
  0    -75.7043595844   0.000000000000 0.09176319  0.00958984  0.2918349 0.7000
  1    -75.7494055781  -0.045045993777 0.04814018  0.00502932  0.1030962 0.7000
                               ***Turning on DIIS***
  2    -75.7622430662  -0.012837488079 0.04036341  0.00477501  0.0160297 0.0000
  3    -75.7884053386  -0.026162272355 0.02684644  0.00285531  0.0593458 0.0000
  4    -75.7921146457  -0.003709307162 0.00381424  0.00061383  0.0062888 0.0000
                      *** Initiating the SOSCF procedure ***
                           *** Shutting down DIIS ***
                      *** Re-Reading the Fockian *** 
                      *** Removing any level shift *** 
ITER      Energy       Delta-E        Grad      Rot      Max-DP    RMS-DP
  5    -75.79221078  -0.0000961330  0.000987  0.000987  0.001835  0.000215
               *** Restarting incremental Fock matrix formation ***
  6    -75.79221762  -0.0000068444  0.000417  0.001250  0.001740  0.000157
  7    -75.79221832  -0.0000006998  0.000295  0.000192  0.000443  0.000044
  8    -75.79221849  -0.0000001669  0.000218  0.000254  0.000276  0.000037
  9    -75.79221864  -0.0000001496  0.000016  0.000045  0.000043  0.000005
 10    -75.79221864  -0.0000000021  0.000005  0.000003  0.000005  0.000001
 11    -75.79221864  -0.0000000001  0.000001  0.000001  0.000001  0.000000
                  ***Gradient check signals convergence***
              ***Rediagonalizing the Fockian in SOSCF/NRSCF***

               *****************************************************
               *                     SUCCESS                       *
               *           SCF CONVERGED AFTER  12 CYCLES          *
               *****************************************************

Setting up the final grid:

General Integration Accuracy     IntAcc      ...  5.340
Radial Grid Type                 RadialGrid  ... Gauss-Chebyshev
Angular Grid (max. acc.)         AngularGrid ... Lebedev-590
Angular grid pruning method      GridPruning ... 3 (G Style)
Weight generation scheme         WeightScheme... Becke
Basis function cutoff            BFCut       ...    1.0000e-12
Integration weight cutoff        WCut        ...    1.0000e-14
Grids for H and He will be reduced by one unit

# of grid points (after initial pruning)     ...  38728 (   0.0 sec)
# of grid points (after weights+screening)   ...  38328 (   0.0 sec)
nearest neighbour list constructed           ...    0.0 sec
Grid point re-assignment to atoms done       ...    0.0 sec
Grid point division into batches done        ...    0.3 sec
Reduced shell lists constructed in    0.3 sec

Total number of grid points                  ...    38328
Total number of batches                      ...      600
Average number of points per batch           ...       63
Average number of grid points per atom       ...    12776
Average number of shells per batch           ...     4.31 (35.95%)
Average number of basis functions per batch  ...     6.94 (28.93%)
Average number of large shells per batch     ...     2.83 (65.56%)
Average number of large basis fcns per batch ...     4.37 (62.96%)
Maximum spatial batch extension              ...  14.03, 13.64, 12.40 au
Average spatial batch extension              ...   0.39,  0.38,  0.36 au

Final grid set up in    0.3 sec
Final integration                            ... done (   0.0 sec)
Change in XC energy                          ...    -0.000001233
Integrated number of electrons               ...    10.000000286
Previous integrated no of electrons          ...    10.000000006

----------------
TOTAL SCF ENERGY
----------------

Total Energy       :          -75.79221988 Eh           -2062.41115 eV

Components:
Nuclear Repulsion  :            9.18953372 Eh             250.05993 eV
Electronic Energy  :          -84.98175359 Eh           -2312.47108 eV
One Electron Energy:         -123.06984645 Eh           -3348.90078 eV
Two Electron Energy:           38.08809286 Eh            1036.42970 eV

Virial components:
Potential Energy   :         -152.37441189 Eh           -4146.31854 eV
Kinetic Energy     :           76.58219202 Eh            2083.90739 eV
Virial Ratio       :            1.98968465


DFT components:
N(Alpha)           :        5.000000142930 electrons
N(Beta)            :        5.000000142930 electrons
N(Total)           :       10.000000285860 electrons
E(X)               :       -8.137752945248 Eh       
E(C)               :       -0.665311269464 Eh       
E(XC)              :       -8.803064214712 Eh       
DFET-embed. en.    :        0.000000000000 Eh       

---------------
SCF CONVERGENCE
---------------

  Last Energy change         ...   -2.4443e-12  Tolerance :   1.0000e-09
  Last MAX-Density change    ...    2.1597e-07  Tolerance :   1.0000e-08
  Last RMS-Density change    ...    2.9781e-08  Tolerance :   1.0000e-09
  Last Orbital Gradient      ...    1.2497e-07  Tolerance :   2.0000e-06
  Last Orbital Rotation      ...    2.9307e-07  Tolerance :   2.0000e-06

             **** THE GBW FILE WAS UPDATED (H2O_zora-def2-svp_.gbw) ****
             **** DENSITY FILE WAS UPDATED (H2O_zora-def2-svp_.scfp) ****
             **** ENERGY FILE WAS UPDATED (H2O_zora-def2-svp_.en.tmp) ****
             **** THE GBW FILE WAS UPDATED (H2O_zora-def2-svp_.gbw) ****
             **** DENSITY FILE WAS UPDATED (H2O_zora-def2-svp_.scfp) ****
----------------
ORBITAL ENERGIES
----------------

  NO   OCC          E(Eh)            E(eV) 
   0   2.0000     -18.558016      -504.9893 
   1   2.0000      -0.881959       -23.9993 
   2   2.0000      -0.463813       -12.6210 
   3   2.0000      -0.304887        -8.2964 
   4   2.0000      -0.232613        -6.3297 
   5   0.0000       0.028845         0.7849 
   6   0.0000       0.106469         2.8972 
   7   0.0000       0.567857        15.4522 
   8   0.0000       0.606932        16.5155 
   9   0.0000       0.857125        23.3235 
  10   0.0000       0.867313        23.6008 
  11   0.0000       0.954645        25.9772 
  12   0.0000       1.054976        28.7073 
  13   0.0000       1.283375        34.9224 
  14   0.0000       1.379205        37.5301 
  15   0.0000       1.489934        40.5432 
  16   0.0000       1.727635        47.0113 
  17   0.0000       2.140744        58.2526 
  18   0.0000       2.187717        59.5308 
  19   0.0000       2.878868        78.3380 
  20   0.0000       2.925430        79.6050 
  21   0.0000       3.104000        84.4641 
  22   0.0000       3.416093        92.9566 
  23   0.0000       3.751084       102.0722 

                    ********************************
                    * MULLIKEN POPULATION ANALYSIS *
                    ********************************

-----------------------
MULLIKEN ATOMIC CHARGES
-----------------------
   0 O :   -0.429803
   1 H :    0.214901
   2 H :    0.214901
Sum of atomic charges:   -0.0000000

--------------------------------
MULLIKEN REDUCED ORBITAL CHARGES
--------------------------------
  0 O s       :     3.704148  s :     3.704148
      pz      :     1.556387  p :     4.712965
      px      :     1.956322
      py      :     1.200256
      dz2     :     0.001719  d :     0.012690
      dxz     :     0.001374
      dyz     :     0.008358
      dx2y2   :     0.001240
      dxy     :     0.000000
  1 H s       :     0.719768  s :     0.719768
      pz      :     0.020613  p :     0.065331
      px      :     0.021152
      py      :     0.023565
  2 H s       :     0.719768  s :     0.719768
      pz      :     0.020613  p :     0.065331
      px      :     0.021152
      py      :     0.023565


                     *******************************
                     * LOEWDIN POPULATION ANALYSIS *
                     *******************************

----------------------
LOEWDIN ATOMIC CHARGES
----------------------
   0 O :   -0.180021
   1 H :    0.090011
   2 H :    0.090011

-------------------------------
LOEWDIN REDUCED ORBITAL CHARGES
-------------------------------
  0 O s       :     3.423992  s :     3.423992
      pz      :     1.595176  p :     4.737659
      px      :     1.886155
      py      :     1.256329
      dz2     :     0.000948  d :     0.018370
      dxz     :     0.000437
      dyz     :     0.014214
      dx2y2   :     0.002770
      dxy     :     0.000000
  1 H s       :     0.729047  s :     0.729047
      pz      :     0.062983  p :     0.180942
      px      :     0.056704
      py      :     0.061255
  2 H s       :     0.729047  s :     0.729047
      pz      :     0.062983  p :     0.180942
      px      :     0.056704
      py      :     0.061255


                      *****************************
                      * MAYER POPULATION ANALYSIS *
                      *****************************

  NA   - Mulliken gross atomic population
  ZA   - Total nuclear charge
  QA   - Mulliken gross atomic charge
  VA   - Mayer's total valence
  BVA  - Mayer's bonded valence
  FA   - Mayer's free valence

  ATOM       NA         ZA         QA         VA         BVA        FA
  0 O      8.4298     8.0000    -0.4298     1.9680     1.9680    -0.0000
  1 H      0.7851     1.0000     0.2149     0.9869     0.9869    -0.0000
  2 H      0.7851     1.0000     0.2149     0.9869     0.9869     0.0000

  Mayer bond orders larger than 0.100000
B(  0-O ,  1-H ) :   0.9840 B(  0-O ,  2-H ) :   0.9840 

-------
TIMINGS
-------

Total SCF time: 0 days 0 hours 0 min 2 sec 

Total time                  ....       2.238 sec
Sum of individual times     ....       2.072 sec  ( 92.6%)

Fock matrix formation       ....       1.463 sec  ( 65.4%)
  XC integration            ....       0.049 sec  (  3.4% of F)
    Basis function eval.    ....       0.008 sec  ( 16.8% of XC)
    Density eval.           ....       0.003 sec  (  5.4% of XC)
    XC-Functional eval.     ....       0.006 sec  ( 12.9% of XC)
    XC-Potential eval.      ....       0.002 sec  (  3.5% of XC)
Diagonalization             ....       0.001 sec  (  0.0%)
Density matrix formation    ....       0.000 sec  (  0.0%)
Population analysis         ....       0.001 sec  (  0.0%)
Initial guess               ....       0.071 sec  (  3.2%)
Orbital Transformation      ....       0.000 sec  (  0.0%)
Orbital Orthonormalization  ....       0.000 sec  (  0.0%)
DIIS solution               ....       0.001 sec  (  0.0%)
SOSCF solution              ....       0.001 sec  (  0.0%)
Grid generation             ....       0.534 sec  ( 23.9%)

-------------------------   --------------------
FINAL SINGLE POINT ENERGY       -75.792219875257
-------------------------   --------------------


                            ***************************************
                            *     ORCA property calculations      *
                            ***************************************

                                    ---------------------
                                    Active property flags
                                    ---------------------
   (+) Dipole Moment


------------------------------------------------------------------------------
                       ORCA ELECTRIC PROPERTIES CALCULATION
------------------------------------------------------------------------------

Dipole Moment Calculation                       ... on
Quadrupole Moment Calculation                   ... off
Polarizability Calculation                      ... off
GBWName                                         ... H2O_zora-def2-svp_.gbw
Electron density file                           ... H2O_zora-def2-svp_.scfp
The origin for moment calculation is the CENTER OF MASS  = ( 0.000000,  0.000000  0.097636)

-------------
DIPOLE MOMENT
-------------
                                X             Y             Z
Electronic contribution:     -0.00000      -0.00000       0.15509
Nuclear contribution   :      0.00000       0.00000      -0.97636
                        -----------------------------------------
Total Dipole Moment    :     -0.00000      -0.00000      -0.82127
                        -----------------------------------------
Magnitude (a.u.)       :      0.82127
Magnitude (Debye)      :      2.08749



--------------------
Rotational spectrum 
--------------------
 
Rotational constants in cm-1:    27.372330    14.584286     9.514730 
Rotational constants in MHz : 820601.811463 437225.885101 285244.437146 

 Dipole components along the rotational axes: 
x,y,z [a.u.] :    -0.000000    -0.821266    -0.000000 
x,y,z [Debye]:    -0.000000    -2.087492    -0.000000 

 

Timings for individual modules:

Sum of individual times         ...        2.975 sec (=   0.050 min)
GTO integral calculation        ...        0.485 sec (=   0.008 min)  16.3 %
SCF iterations                  ...        2.490 sec (=   0.042 min)  83.7 %
                             ****ORCA TERMINATED NORMALLY****
TOTAL RUN TIME: 0 days 0 hours 0 minutes 3 seconds 291 msec
