
                                 *****************
                                 * O   R   C   A *
                                 *****************

           --- An Ab Initio, DFT and Semiempirical electronic structure package ---

                  #######################################################
                  #                        -***-                        #
                  #          Department of theory and spectroscopy      #
                  #               Directorship: Frank Neese             #
                  #        Max Planck Institute fuer Kohlenforschung    #
                  #                Kaiser Wilhelm Platz 1               #
                  #                 D-45470 Muelheim/Ruhr               #
                  #                      Germany                        #
                  #                                                     #
                  #                  All rights reserved                #
                  #                        -***-                        #
                  #######################################################


                         Program Version 4.2.1 -  RELEASE  -


 With contributions from (in alphabetic order):
   Daniel Aravena         : Magnetic Suceptibility
   Michael Atanasov       : Ab Initio Ligand Field Theory (pilot matlab implementation)
   Alexander A. Auer      : GIAO ZORA, VPT2
   Ute Becker             : Parallelization
   Giovanni Bistoni       : ED, misc. LED, open-shell LED, HFLD
   Martin Brehm           : Molecular dynamics
   Dmytro Bykov           : SCF Hessian
   Vijay G. Chilkuri      : MRCI spin determinant printing, contributions to CSF-ICE
   Dipayan Datta          : RHF DLPNO-CCSD density
   Achintya Kumar Dutta   : EOM-CC, STEOM-CC
   Dmitry Ganyushin       : Spin-Orbit,Spin-Spin,Magnetic field MRCI
   Miquel Garcia          : C-PCM Hessian, Gaussian charge scheme
   Yang Guo               : DLPNO-NEVPT2, CIM, IAO-localization
   Andreas Hansen         : Spin unrestricted coupled pair/coupled cluster methods
   Benjamin Helmich-Paris : CASSCF linear response (MC-RPA)
   Lee Huntington         : MR-EOM, pCC
   Robert Izsak           : Overlap fitted RIJCOSX, COSX-SCS-MP3, EOM
   Christian Kollmar      : KDIIS, OOCD, Brueckner-CCSD(T), CCSD density
   Simone Kossmann        : Meta GGA functionals, TD-DFT gradient, OOMP2, MP2 Hessian
   Martin Krupicka        : AUTO-CI
   Lucas Lang             : DCDCAS
   Dagmar Lenk            : GEPOL surface, SMD
   Dimitrios Liakos       : Extrapolation schemes; Compound Job, initial MDCI parallelization
   Dimitrios Manganas     : Further ROCIS development; embedding schemes
   Dimitrios Pantazis     : SARC Basis sets
   Taras Petrenko         : DFT Hessian,TD-DFT gradient, ASA, ECA, R-Raman, ABS, FL, XAS/XES, NRVS
   Peter Pinski           : DLPNO-MP2, DLPNO-MP2 Gradient
   Christoph Reimann      : Effective Core Potentials
   Marius Retegan         : Local ZFS, SOC
   Christoph Riplinger    : Optimizer, TS searches, QM/MM, DLPNO-CCSD(T), (RO)-DLPNO pert. Triples
   Tobias Risthaus        : Range-separated hybrids, TD-DFT gradient, RPA, STAB
   Michael Roemelt        : Original ROCIS implementation
   Masaaki Saitow         : Open-shell DLPNO-CCSD energy and density
   Barbara Sandhoefer     : DKH picture change effects
   Avijit Sen             : IP-ROCIS
   Kantharuban Sivalingam : CASSCF convergence, NEVPT2, FIC-MRCI
   Bernardo de Souza      : ESD, SOC TD-DFT
   Georgi Stoychev        : AutoAux, RI-MP2 NMR
   Willem Van den Heuvel  : Paramagnetic NMR
   Boris Wezisla          : Elementary symmetry handling
   Frank Wennmohs         : Technical directorship


 We gratefully acknowledge several colleagues who have allowed us to
 interface, adapt or use parts of their codes:
   Stefan Grimme, W. Hujo, H. Kruse,             : VdW corrections, initial TS optimization,
                  C. Bannwarth                     DFT functionals, gCP, sTDA/sTD-DF
   Ed Valeev, F. Pavosevic, A. Kumar             : LibInt (2-el integral package), F12 methods
   Garnet Chan, S. Sharma, J. Yang, R. Olivares  : DMRG
   Ulf Ekstrom                                   : XCFun DFT Library
   Mihaly Kallay                                 : mrcc  (arbitrary order and MRCC methods)
   Andreas Klamt, Michael Diedenhofen            : otool_cosmo (COSMO solvation model)
   Jiri Pittner, Ondrej Demel                    : Mk-CCSD
   Frank Weinhold                                : gennbo (NPA and NBO analysis)
   Christopher J. Cramer and Donald G. Truhlar   : smd solvation model
   Lars Goerigk                                  : TD-DFT with DH, B97 family of functionals
   V. Asgeirsson, H. Jonsson                     : NEB implementation
   FAccTs GmbH                                   : IRC, NEB, NEB-TS, Multilevel, MM, QM/MM, CI optimization
   S Lehtola, MJT Oliveira, MAL Marques          : LibXC Library


 Your calculation uses the libint2 library for the computation of 2-el integrals
 For citations please refer to: http://libint.valeyev.net

 Your ORCA version has been built with support for libXC version: 4.2.3
 For citations please refer to: https://tddft.org/programs/libxc/

 This ORCA versions uses:
   CBLAS   interface :  Fast vector & matrix operations
   LAPACKE interface :  Fast linear algebra routines
   SCALAPACK package :  Parallel linear algebra routines


----- Orbital basis set information -----
Your calculation utilizes the basis: def2-SVP
   F. Weigend and R. Ahlrichs, Phys. Chem. Chem. Phys. 7, 3297 (2005).

================================================================================
                                        WARNINGS
                       Please study these warnings very carefully!
================================================================================


INFO   : the flag for use of LIBINT has been found!

================================================================================
                                       INPUT FILE
================================================================================
NAME = H2O_def2-svp_.inp
|  1> ! LDA def2-svp nori grid5 finalgrid6 verytightscf
|  2> %Pal NProcs 18 End
|  3> 
|  4> *xyz 0 1
|  5> O 0.0000 0.0000 0.1173
|  6> H 0.0000 0.7572 -0.4692
|  7> H 0.0000 -0.7572 -0.4692
|  8> **                         ****END OF INPUT****
================================================================================

                       ****************************
                       * Single Point Calculation *
                       ****************************

---------------------------------
CARTESIAN COORDINATES (ANGSTROEM)
---------------------------------
  O      0.000000    0.000000    0.117300
  H      0.000000    0.757200   -0.469200
  H      0.000000   -0.757200   -0.469200

----------------------------
CARTESIAN COORDINATES (A.U.)
----------------------------
  NO LB      ZA    FRAG     MASS         X           Y           Z
   0 O     8.0000    0    15.999    0.000000    0.000000    0.221665
   1 H     1.0000    0     1.008    0.000000    1.430901   -0.886660
   2 H     1.0000    0     1.008    0.000000   -1.430901   -0.886660

--------------------------------
INTERNAL COORDINATES (ANGSTROEM)
--------------------------------
 O      0   0   0     0.000000000000     0.00000000     0.00000000
 H      1   0   0     0.957775594803     0.00000000     0.00000000
 H      1   2   0     0.957775594803   104.47983882     0.00000000

---------------------------
INTERNAL COORDINATES (A.U.)
---------------------------
 O      0   0   0     0.000000000000     0.00000000     0.00000000
 H      1   0   0     1.809933571931     0.00000000     0.00000000
 H      1   2   0     1.809933571931   104.47983882     0.00000000

---------------------
BASIS SET INFORMATION
---------------------
There are 2 groups of distinct atoms

 Group   1 Type O   : 7s4p1d contracted to 3s2p1d pattern {511/31/1}
 Group   2 Type H   : 4s1p contracted to 2s1p pattern {31/1}

Atom   0O    basis set group =>   1
Atom   1H    basis set group =>   2
Atom   2H    basis set group =>   2


           ************************************************************
           *        Program running with 18 parallel MPI-processes    *
           *              working on a common directory               *
           ************************************************************
------------------------------------------------------------------------------
                           ORCA GTO INTEGRAL CALCULATION
------------------------------------------------------------------------------

                         BASIS SET STATISTICS AND STARTUP INFO

 # of primitive gaussian shells          ...   22
 # of primitive gaussian functions       ...   38
 # of contracted shells                  ...   12
 # of contracted basis functions         ...   24
 Highest angular momentum                ...    2
 Maximum contraction depth               ...    5
 Integral package used                   ... LIBINT
 Integral threshhold            Thresh   ...  1.000e-12
 Primitive cut-off              TCut     ...  1.000e-14


------------------------------ INTEGRAL EVALUATION ----------------------------


 * One electron integrals 
 Pre-screening matrix                    ... done
 Shell pair data                         ... done (   0.000 sec)



           ************************************************************
           *        Program running with 18 parallel MPI-processes    *
           *              working on a common directory               *
           ************************************************************
-------------------------------------------------------------------------------
                                 ORCA SCF
-------------------------------------------------------------------------------

------------
SCF SETTINGS
------------
Hamiltonian:
 Density Functional     Method          .... DFT(GTOs)
 Exchange Functional    Exchange        .... Slater
   X-Alpha parameter    XAlpha          ....  0.666667
 Correlation Functional Correlation     .... VWN-5
 Gradients option       PostSCFGGA      .... off
   Density functional embedding theory  .... OFF


General Settings:
 Integral files         IntName         .... H2O_def2-svp_
 Hartree-Fock type      HFTyp           .... RHF
 Total Charge           Charge          ....    0
 Multiplicity           Mult            ....    1
 Number of Electrons    NEL             ....   10
 Basis Dimension        Dim             ....   24
 Nuclear Repulsion      ENuc            ....      9.1895337174 Eh

Convergence Acceleration:
 DIIS                   CNVDIIS         .... on
   Start iteration      DIISMaxIt       ....    12
   Startup error        DIISStart       ....  0.200000
   # of expansion vecs  DIISMaxEq       ....     5
   Bias factor          DIISBfac        ....   1.050
   Max. coefficient     DIISMaxC        ....  10.000
 Newton-Raphson         CNVNR           .... off
 SOSCF                  CNVSOSCF        .... on
   Start iteration      SOSCFMaxIt      ....   150
   Startup grad/error   SOSCFStart      ....  0.003300
 Level Shifting         CNVShift        .... on
   Level shift para.    LevelShift      ....    0.2500
   Turn off err/grad.   ShiftErr        ....    0.0010
 Zerner damping         CNVZerner       .... off
 Static damping         CNVDamp         .... on
   Fraction old density DampFac         ....    0.7000
   Max. Damping (<1)    DampMax         ....    0.9800
   Min. Damping (>=0)   DampMin         ....    0.0000
   Turn off err/grad.   DampErr         ....    0.1000
 Fernandez-Rico         CNVRico         .... off

SCF Procedure:
 Maximum # iterations   MaxIter         ....   125
 SCF integral mode      SCFMode         .... Direct
   Integral package                     .... LIBINT
 Reset frequency        DirectResetFreq ....    20
 Integral Threshold     Thresh          ....  1.000e-12 Eh
 Primitive CutOff       TCut            ....  1.000e-14 Eh

Convergence Tolerance:
 Convergence Check Mode ConvCheckMode   .... Total+1el-Energy
 Convergence forced     ConvForced      .... 0
 Energy Change          TolE            ....  1.000e-09 Eh
 1-El. energy change                    ....  1.000e-06 Eh
 Orbital Gradient       TolG            ....  2.000e-06
 Orbital Rotation angle TolX            ....  2.000e-06
 DIIS Error             TolErr          ....  1.000e-08


Diagonalization of the overlap matrix:
Smallest eigenvalue                        ... 3.757e-02
Time for diagonalization                   ...    0.001 sec
Threshold for overlap eigenvalues          ... 1.000e-08
Number of eigenvalues below threshold      ... 0
Time for construction of square roots      ...    0.001 sec
Total time needed                          ...    0.002 sec

-------------------
DFT GRID GENERATION
-------------------

General Integration Accuracy     IntAcc      ...  5.010
Radial Grid Type                 RadialGrid  ... Gauss-Chebyshev
Angular Grid (max. acc.)         AngularGrid ... Lebedev-434
Angular grid pruning method      GridPruning ... 3 (G Style)
Weight generation scheme         WeightScheme... Becke
Basis function cutoff            BFCut       ...    1.0000e-12
Integration weight cutoff        WCut        ...    1.0000e-14
Grids for H and He will be reduced by one unit

# of grid points (after initial pruning)     ...  24226 (   0.0 sec)
# of grid points (after weights+screening)   ...  24010 (   0.0 sec)
nearest neighbour list constructed           ...    0.0 sec
Grid point re-assignment to atoms done       ...    0.0 sec
Grid point division into batches done        ...    0.1 sec
Reduced shell lists constructed in    0.2 sec

Total number of grid points                  ...    24010
Total number of batches                      ...      376
Average number of points per batch           ...       63
Average number of grid points per atom       ...     8003
Average number of shells per batch           ...     5.00 (41.67%)
Average number of basis functions per batch  ...     8.09 (33.71%)
Average number of large shells per batch     ...     3.41 (68.18%)
Average number of large basis fcns per batch ...     5.05 (62.36%)
Maximum spatial batch extension              ...  16.27, 13.72, 10.73 au
Average spatial batch extension              ...   0.47,  0.42,  0.38 au

Time for grid setup =    0.190 sec

------------------------------
INITIAL GUESS: MODEL POTENTIAL
------------------------------
Loading Hartree-Fock densities                     ... done
Calculating cut-offs                               ... done
Setting up the integral package                    ... done
Initializing the effective Hamiltonian             ... done
Starting the Coulomb interaction                   ... done (   0.0 sec)
Reading the grid                                   ... done
Mapping shells                                     ... done
Starting the XC term evaluation                    ... done (   0.0 sec)
  promolecular density results
     # of electrons  =      9.999021916
     EX              =     -7.925608619
     EC              =     -0.652088290
     EX+EC           =     -8.577696910
Transforming the Hamiltonian                       ... done (   0.0 sec)
Diagonalizing the Hamiltonian                      ... done (   0.0 sec)
Back transforming the eigenvectors                 ... done (   0.0 sec)
Now organizing SCF variables                       ... done
                      ------------------
                      INITIAL GUESS DONE (   0.3 sec)
                      ------------------
--------------
SCF ITERATIONS
--------------
ITER       Energy         Delta-E        Max-DP      RMS-DP      [F,P]     Damp
               ***  Starting incremental Fock matrix formation  ***
  0    -75.7068533073   0.000000000000 0.09193460  0.00975966  0.2918719 0.7000
  1    -75.7521907737  -0.045337466452 0.04835307  0.00513838  0.1029895 0.7000
                               ***Turning on DIIS***
  2    -75.7650622358  -0.012871462053 0.04049781  0.00487720  0.0152544 0.0000
  3    -75.7913359517  -0.026273715917 0.02688088  0.00292000  0.0592620 0.0000
  4    -75.7950725224  -0.003736570729 0.00426947  0.00064232  0.0063357 0.0000
                      *** Initiating the SOSCF procedure ***
                           *** Shutting down DIIS ***
                      *** Re-Reading the Fockian *** 
                      *** Removing any level shift *** 
ITER      Energy       Delta-E        Grad      Rot      Max-DP    RMS-DP
  5    -75.79517088  -0.0000983547  0.000998  0.000998  0.002032  0.000223
               *** Restarting incremental Fock matrix formation ***
  6    -75.79517783  -0.0000069526  0.000423  0.001265  0.001882  0.000162
  7    -75.79517853  -0.0000007013  0.000302  0.000198  0.000449  0.000045
  8    -75.79517871  -0.0000001826  0.000219  0.000260  0.000283  0.000038
  9    -75.79517887  -0.0000001517  0.000017  0.000047  0.000049  0.000006
 10    -75.79517887  -0.0000000023  0.000005  0.000004  0.000006  0.000001
 11    -75.79517887  -0.0000000001  0.000001  0.000001  0.000001  0.000000
                  ***Gradient check signals convergence***
              ***Rediagonalizing the Fockian in SOSCF/NRSCF***

               *****************************************************
               *                     SUCCESS                       *
               *           SCF CONVERGED AFTER  12 CYCLES          *
               *****************************************************

Setting up the final grid:

General Integration Accuracy     IntAcc      ...  5.340
Radial Grid Type                 RadialGrid  ... Gauss-Chebyshev
Angular Grid (max. acc.)         AngularGrid ... Lebedev-590
Angular grid pruning method      GridPruning ... 3 (G Style)
Weight generation scheme         WeightScheme... Becke
Basis function cutoff            BFCut       ...    1.0000e-12
Integration weight cutoff        WCut        ...    1.0000e-14
Grids for H and He will be reduced by one unit

# of grid points (after initial pruning)     ...  38728 (   0.0 sec)
# of grid points (after weights+screening)   ...  38328 (   0.0 sec)
nearest neighbour list constructed           ...    0.0 sec
Grid point re-assignment to atoms done       ...    0.0 sec
Grid point division into batches done        ...    0.3 sec
Reduced shell lists constructed in    0.3 sec

Total number of grid points                  ...    38328
Total number of batches                      ...      600
Average number of points per batch           ...       63
Average number of grid points per atom       ...    12776
Average number of shells per batch           ...     4.31 (35.95%)
Average number of basis functions per batch  ...     6.94 (28.93%)
Average number of large shells per batch     ...     2.83 (65.56%)
Average number of large basis fcns per batch ...     4.37 (62.96%)
Maximum spatial batch extension              ...  14.03, 13.64, 12.40 au
Average spatial batch extension              ...   0.39,  0.38,  0.36 au

Final grid set up in    0.4 sec
Final integration                            ... done (   0.0 sec)
Change in XC energy                          ...    -0.000001139
Integrated number of electrons               ...    10.000000281
Previous integrated no of electrons          ...    10.000000021

----------------
TOTAL SCF ENERGY
----------------

Total Energy       :          -75.79518001 Eh           -2062.49170 eV

Components:
Nuclear Repulsion  :            9.18953372 Eh             250.05993 eV
Electronic Energy  :          -84.98471372 Eh           -2312.55163 eV
One Electron Energy:         -123.04975450 Eh           -3348.35405 eV
Two Electron Energy:           38.06504078 Eh            1035.80242 eV

Virial components:
Potential Energy   :         -151.43202314 Eh           -4120.67484 eV
Kinetic Energy     :           75.63684313 Eh            2058.18314 eV
Virial Ratio       :            2.00209338


DFT components:
N(Alpha)           :        5.000000140351 electrons
N(Beta)            :        5.000000140351 electrons
N(Total)           :       10.000000280703 electrons
E(X)               :       -8.114713361753 Eh       
E(C)               :       -0.665165310765 Eh       
E(XC)              :       -8.779878672518 Eh       
DFET-embed. en.    :        0.000000000000 Eh       

---------------
SCF CONVERGENCE
---------------

  Last Energy change         ...   -2.6859e-12  Tolerance :   1.0000e-09
  Last MAX-Density change    ...    2.2368e-07  Tolerance :   1.0000e-08
  Last RMS-Density change    ...    3.2033e-08  Tolerance :   1.0000e-09
  Last Orbital Gradient      ...    1.3164e-07  Tolerance :   2.0000e-06
  Last Orbital Rotation      ...    3.0687e-07  Tolerance :   2.0000e-06

             **** THE GBW FILE WAS UPDATED (H2O_def2-svp_.gbw) ****
             **** DENSITY FILE WAS UPDATED (H2O_def2-svp_.scfp) ****
             **** ENERGY FILE WAS UPDATED (H2O_def2-svp_.en.tmp) ****
             **** THE GBW FILE WAS UPDATED (H2O_def2-svp_.gbw) ****
             **** DENSITY FILE WAS UPDATED (H2O_def2-svp_.scfp) ****
----------------
ORBITAL ENERGIES
----------------

  NO   OCC          E(Eh)            E(eV) 
   0   2.0000     -18.579103      -505.5631 
   1   2.0000      -0.883944       -24.0533 
   2   2.0000      -0.462049       -12.5730 
   3   2.0000      -0.305100        -8.3022 
   4   2.0000      -0.231853        -6.3090 
   5   0.0000       0.029099         0.7918 
   6   0.0000       0.107054         2.9131 
   7   0.0000       0.529818        14.4171 
   8   0.0000       0.584880        15.9154 
   9   0.0000       0.857190        23.3253 
  10   0.0000       0.857242        23.3267 
  11   0.0000       0.945444        25.7268 
  12   0.0000       1.039289        28.2805 
  13   0.0000       1.283742        34.9324 
  14   0.0000       1.353414        36.8283 
  15   0.0000       1.490149        40.5490 
  16   0.0000       1.722285        46.8658 
  17   0.0000       2.145446        58.3806 
  18   0.0000       2.189581        59.5815 
  19   0.0000       2.879694        78.3605 
  20   0.0000       2.926276        79.6280 
  21   0.0000       3.106228        84.5248 
  22   0.0000       3.418675        93.0269 
  23   0.0000       3.732371       101.5630 

                    ********************************
                    * MULLIKEN POPULATION ANALYSIS *
                    ********************************

-----------------------
MULLIKEN ATOMIC CHARGES
-----------------------
   0 O :   -0.328020
   1 H :    0.164010
   2 H :    0.164010
Sum of atomic charges:   -0.0000000

--------------------------------
MULLIKEN REDUCED ORBITAL CHARGES
--------------------------------
  0 O s       :     3.679359  s :     3.679359
      pz      :     1.521137  p :     4.637585
      px      :     1.956391
      py      :     1.160057
      dz2     :     0.001658  d :     0.011076
      dxz     :     0.001351
      dyz     :     0.007203
      dx2y2   :     0.000864
      dxy     :     0.000000
  1 H s       :     0.765094  s :     0.765094
      pz      :     0.022275  p :     0.070896
      px      :     0.021129
      py      :     0.027492
  2 H s       :     0.765094  s :     0.765094
      pz      :     0.022275  p :     0.070896
      px      :     0.021129
      py      :     0.027492


                     *******************************
                     * LOEWDIN POPULATION ANALYSIS *
                     *******************************

----------------------
LOEWDIN ATOMIC CHARGES
----------------------
   0 O :   -0.151193
   1 H :    0.075596
   2 H :    0.075596

-------------------------------
LOEWDIN REDUCED ORBITAL CHARGES
-------------------------------
  0 O s       :     3.419686  s :     3.419686
      pz      :     1.585628  p :     4.712397
      px      :     1.886236
      py      :     1.240533
      dz2     :     0.000987  d :     0.019110
      dxz     :     0.000425
      dyz     :     0.014684
      dx2y2   :     0.003014
      dxy     :     0.000000
  1 H s       :     0.743659  s :     0.743659
      pz      :     0.062979  p :     0.180745
      px      :     0.056670
      py      :     0.061097
  2 H s       :     0.743659  s :     0.743659
      pz      :     0.062979  p :     0.180745
      px      :     0.056670
      py      :     0.061097


                      *****************************
                      * MAYER POPULATION ANALYSIS *
                      *****************************

  NA   - Mulliken gross atomic population
  ZA   - Total nuclear charge
  QA   - Mulliken gross atomic charge
  VA   - Mayer's total valence
  BVA  - Mayer's bonded valence
  FA   - Mayer's free valence

  ATOM       NA         ZA         QA         VA         BVA        FA
  0 O      8.3280     8.0000    -0.3280     2.0123     2.0123    -0.0000
  1 H      0.8360     1.0000     0.1640     1.0119     1.0119     0.0000
  2 H      0.8360     1.0000     0.1640     1.0119     1.0119     0.0000

  Mayer bond orders larger than 0.100000
B(  0-O ,  1-H ) :   1.0062 B(  0-O ,  2-H ) :   1.0062 

-------
TIMINGS
-------

Total SCF time: 0 days 0 hours 0 min 2 sec 

Total time                  ....       2.286 sec
Sum of individual times     ....       2.119 sec  ( 92.7%)

Fock matrix formation       ....       1.453 sec  ( 63.5%)
  XC integration            ....       0.046 sec  (  3.2% of F)
    Basis function eval.    ....       0.008 sec  ( 18.0% of XC)
    Density eval.           ....       0.003 sec  (  5.7% of XC)
    XC-Functional eval.     ....       0.006 sec  ( 13.7% of XC)
    XC-Potential eval.      ....       0.002 sec  (  3.7% of XC)
Diagonalization             ....       0.001 sec  (  0.0%)
Density matrix formation    ....       0.001 sec  (  0.0%)
Population analysis         ....       0.001 sec  (  0.0%)
Initial guess               ....       0.070 sec  (  3.1%)
Orbital Transformation      ....       0.000 sec  (  0.0%)
Orbital Orthonormalization  ....       0.000 sec  (  0.0%)
DIIS solution               ....       0.001 sec  (  0.0%)
SOSCF solution              ....       0.001 sec  (  0.0%)
Grid generation             ....       0.592 sec  ( 25.9%)

-------------------------   --------------------
FINAL SINGLE POINT ENERGY       -75.795180006779
-------------------------   --------------------


                            ***************************************
                            *     ORCA property calculations      *
                            ***************************************

                                    ---------------------
                                    Active property flags
                                    ---------------------
   (+) Dipole Moment


------------------------------------------------------------------------------
                       ORCA ELECTRIC PROPERTIES CALCULATION
------------------------------------------------------------------------------

Dipole Moment Calculation                       ... on
Quadrupole Moment Calculation                   ... off
Polarizability Calculation                      ... off
GBWName                                         ... H2O_def2-svp_.gbw
Electron density file                           ... H2O_def2-svp_.scfp
The origin for moment calculation is the CENTER OF MASS  = ( 0.000000,  0.000000  0.097636)

-------------
DIPOLE MOMENT
-------------
                                X             Y             Z
Electronic contribution:     -0.00000      -0.00000       0.17977
Nuclear contribution   :      0.00000       0.00000      -0.97636
                        -----------------------------------------
Total Dipole Moment    :     -0.00000      -0.00000      -0.79659
                        -----------------------------------------
Magnitude (a.u.)       :      0.79659
Magnitude (Debye)      :      2.02477



--------------------
Rotational spectrum 
--------------------
 
Rotational constants in cm-1:    27.372330    14.584286     9.514730 
Rotational constants in MHz : 820601.811463 437225.885101 285244.437146 

 Dipole components along the rotational axes: 
x,y,z [a.u.] :    -0.000000    -0.796588    -0.000000 
x,y,z [Debye]:    -0.000000    -2.024766    -0.000000 

 

Timings for individual modules:

Sum of individual times         ...        2.993 sec (=   0.050 min)
GTO integral calculation        ...        0.481 sec (=   0.008 min)  16.1 %
SCF iterations                  ...        2.512 sec (=   0.042 min)  83.9 %
                             ****ORCA TERMINATED NORMALLY****
TOTAL RUN TIME: 0 days 0 hours 0 minutes 3 seconds 320 msec
