
                                 *****************
                                 * O   R   C   A *
                                 *****************

           --- An Ab Initio, DFT and Semiempirical electronic structure package ---

                  #######################################################
                  #                        -***-                        #
                  #          Department of theory and spectroscopy      #
                  #               Directorship: Frank Neese             #
                  #        Max Planck Institute fuer Kohlenforschung    #
                  #                Kaiser Wilhelm Platz 1               #
                  #                 D-45470 Muelheim/Ruhr               #
                  #                      Germany                        #
                  #                                                     #
                  #                  All rights reserved                #
                  #                        -***-                        #
                  #######################################################


                         Program Version 4.2.1 -  RELEASE  -


 With contributions from (in alphabetic order):
   Daniel Aravena         : Magnetic Suceptibility
   Michael Atanasov       : Ab Initio Ligand Field Theory (pilot matlab implementation)
   Alexander A. Auer      : GIAO ZORA, VPT2
   Ute Becker             : Parallelization
   Giovanni Bistoni       : ED, misc. LED, open-shell LED, HFLD
   Martin Brehm           : Molecular dynamics
   Dmytro Bykov           : SCF Hessian
   Vijay G. Chilkuri      : MRCI spin determinant printing, contributions to CSF-ICE
   Dipayan Datta          : RHF DLPNO-CCSD density
   Achintya Kumar Dutta   : EOM-CC, STEOM-CC
   Dmitry Ganyushin       : Spin-Orbit,Spin-Spin,Magnetic field MRCI
   Miquel Garcia          : C-PCM Hessian, Gaussian charge scheme
   Yang Guo               : DLPNO-NEVPT2, CIM, IAO-localization
   Andreas Hansen         : Spin unrestricted coupled pair/coupled cluster methods
   Benjamin Helmich-Paris : CASSCF linear response (MC-RPA)
   Lee Huntington         : MR-EOM, pCC
   Robert Izsak           : Overlap fitted RIJCOSX, COSX-SCS-MP3, EOM
   Christian Kollmar      : KDIIS, OOCD, Brueckner-CCSD(T), CCSD density
   Simone Kossmann        : Meta GGA functionals, TD-DFT gradient, OOMP2, MP2 Hessian
   Martin Krupicka        : AUTO-CI
   Lucas Lang             : DCDCAS
   Dagmar Lenk            : GEPOL surface, SMD
   Dimitrios Liakos       : Extrapolation schemes; Compound Job, initial MDCI parallelization
   Dimitrios Manganas     : Further ROCIS development; embedding schemes
   Dimitrios Pantazis     : SARC Basis sets
   Taras Petrenko         : DFT Hessian,TD-DFT gradient, ASA, ECA, R-Raman, ABS, FL, XAS/XES, NRVS
   Peter Pinski           : DLPNO-MP2, DLPNO-MP2 Gradient
   Christoph Reimann      : Effective Core Potentials
   Marius Retegan         : Local ZFS, SOC
   Christoph Riplinger    : Optimizer, TS searches, QM/MM, DLPNO-CCSD(T), (RO)-DLPNO pert. Triples
   Tobias Risthaus        : Range-separated hybrids, TD-DFT gradient, RPA, STAB
   Michael Roemelt        : Original ROCIS implementation
   Masaaki Saitow         : Open-shell DLPNO-CCSD energy and density
   Barbara Sandhoefer     : DKH picture change effects
   Avijit Sen             : IP-ROCIS
   Kantharuban Sivalingam : CASSCF convergence, NEVPT2, FIC-MRCI
   Bernardo de Souza      : ESD, SOC TD-DFT
   Georgi Stoychev        : AutoAux, RI-MP2 NMR
   Willem Van den Heuvel  : Paramagnetic NMR
   Boris Wezisla          : Elementary symmetry handling
   Frank Wennmohs         : Technical directorship


 We gratefully acknowledge several colleagues who have allowed us to
 interface, adapt or use parts of their codes:
   Stefan Grimme, W. Hujo, H. Kruse,             : VdW corrections, initial TS optimization,
                  C. Bannwarth                     DFT functionals, gCP, sTDA/sTD-DF
   Ed Valeev, F. Pavosevic, A. Kumar             : LibInt (2-el integral package), F12 methods
   Garnet Chan, S. Sharma, J. Yang, R. Olivares  : DMRG
   Ulf Ekstrom                                   : XCFun DFT Library
   Mihaly Kallay                                 : mrcc  (arbitrary order and MRCC methods)
   Andreas Klamt, Michael Diedenhofen            : otool_cosmo (COSMO solvation model)
   Jiri Pittner, Ondrej Demel                    : Mk-CCSD
   Frank Weinhold                                : gennbo (NPA and NBO analysis)
   Christopher J. Cramer and Donald G. Truhlar   : smd solvation model
   Lars Goerigk                                  : TD-DFT with DH, B97 family of functionals
   V. Asgeirsson, H. Jonsson                     : NEB implementation
   FAccTs GmbH                                   : IRC, NEB, NEB-TS, Multilevel, MM, QM/MM, CI optimization
   S Lehtola, MJT Oliveira, MAL Marques          : LibXC Library


 Your calculation uses the libint2 library for the computation of 2-el integrals
 For citations please refer to: http://libint.valeyev.net

 Your ORCA version has been built with support for libXC version: 4.2.3
 For citations please refer to: https://tddft.org/programs/libxc/

 This ORCA versions uses:
   CBLAS   interface :  Fast vector & matrix operations
   LAPACKE interface :  Fast linear algebra routines
   SCALAPACK package :  Parallel linear algebra routines


----- Orbital basis set information -----
Your calculation utilizes the basis: cc-pCVDZ 
             H : cc-pVDZ. Obtained from the ccRepo (grant-hill.group.shef.ac.uk/ccrepo) Feb. 2017
                 T. H. Dunning, Jr., J. Chem. Phys. 90, 1007 (1989)
            He : cc-pVDZ. Obtained from the ccRepo (grant-hill.group.shef.ac.uk/ccrepo) Feb. 2017
                 D. E. Woon, T. H. Dunning, Jr., J. Chem. Phys. 100, 2975 (1994)
  Li-Be, Na-Mg : Obtained from the ccRepo (grant-hill.group.shef.ac.uk/ccrepo) Feb. 2017
                 B. P. Prascher, D. E. Woon, K. A. Peterson, T. H. Dunning, Jr., A. K. Wilson, Theor. Chem. Acc. 128, 69 (2011)
          B-Ne : Obtained from the ccRepo (grant-hill.group.shef.ac.uk/ccrepo) Feb. 2017
                 D. E. Woon, T. H. Dunning, Jr., J. Chem. Phys. 103, 4572 (1995)
                  K. A. Peterson, T. H. Dunning, Jr., J. Chem. Phys. 117, 10548 (2002)
         Al-Ar : Obtained from the EMSL Basis Set Exchange (bse.pnl.gov) Feb. 2017
                 K. A. Peterson, T. H. Dunning, Jr., J. Chem. Phys. 117, 10548 (2002)
            Ca : Obtained from the Peterson Research Group Website (tyr0.chem.wsu.edu/~kipeters) Feb. 2017
                 J. Koput, K. A. Peterson, J. Phys. Chem. 106, 9595 (2002)
         Ga-Kr : Obtained from the Peterson Research Group Website (tyr0.chem.wsu.edu/~kipeters) Feb. 2017
                 N. J. DeYonker, K. A. Peterson, A. K. Wilson, J. Phys. Chem. A 111, 11383 (2007)

================================================================================
                                        WARNINGS
                       Please study these warnings very carefully!
================================================================================


INFO   : the flag for use of LIBINT has been found!

================================================================================
                                       INPUT FILE
================================================================================
NAME = PH2OH_cc-pcvdz_.inp
|  1> ! LDA cc-pcvdz nori grid5 finalgrid6 verytightscf
|  2> %Pal NProcs 18 End
|  3> 
|  4> *xyz 0 1
|  5> P 0.0000000000 0.0000000000 0.0000000000
|  6> H 0.0000000000 0.0000000000 1.4141500000
|  7> H 1.4127052064 0.0000000000 -0.0639079205
|  8> O -0.2628101077 1.6275926322 -0.2511898901
|  9> H -0.9542069755 1.7138775927 -0.9120164663
| 10> **                         ****END OF INPUT****
================================================================================

                       ****************************
                       * Single Point Calculation *
                       ****************************

---------------------------------
CARTESIAN COORDINATES (ANGSTROEM)
---------------------------------
  P      0.000000    0.000000    0.000000
  H      0.000000    0.000000    1.414150
  H      1.412705    0.000000   -0.063908
  O     -0.262810    1.627593   -0.251190
  H     -0.954207    1.713878   -0.912016

----------------------------
CARTESIAN COORDINATES (A.U.)
----------------------------
  NO LB      ZA    FRAG     MASS         X           Y           Z
   0 P    15.0000    0    30.974    0.000000    0.000000    0.000000
   1 H     1.0000    0     1.008    0.000000    0.000000    2.672356
   2 H     1.0000    0     1.008    2.669626    0.000000   -0.120768
   3 O     8.0000    0    15.999   -0.496639    3.075704   -0.474680
   4 H     1.0000    0     1.008   -1.803190    3.238759   -1.723461

--------------------------------
INTERNAL COORDINATES (ANGSTROEM)
--------------------------------
 P      0   0   0     0.000000000000     0.00000000     0.00000000
 H      1   0   0     1.414150000000     0.00000000     0.00000000
 H      1   2   0     1.414149999997    92.59017900     0.00000000
 O      1   2   3     1.667699999997    98.66289000   260.82752600
 H      4   1   2     0.960295000000   107.74626300   226.99131300

---------------------------
INTERNAL COORDINATES (A.U.)
---------------------------
 P      0   0   0     0.000000000000     0.00000000     0.00000000
 H      1   0   0     2.672356212285     0.00000000     0.00000000
 H      1   2   0     2.672356212280    92.59017900     0.00000000
 O      1   2   3     3.151496273534    98.66289000   260.82752600
 H      4   1   2     1.814694557773   107.74626300   226.99131300

---------------------
BASIS SET INFORMATION
---------------------
There are 3 groups of distinct atoms

 Group   1 Type P   : 35s16p2d contracted to 5s4p2d pattern {11111111/7711/11}
 Group   2 Type H   : 4s1p contracted to 2s1p pattern {31/1}
 Group   3 Type O   : 18s5p1d contracted to 4s3p1d pattern {8811/311/1}

Atom   0P    basis set group =>   1
Atom   1H    basis set group =>   2
Atom   2H    basis set group =>   2
Atom   3O    basis set group =>   3
Atom   4H    basis set group =>   2


           ************************************************************
           *        Program running with 18 parallel MPI-processes    *
           *              working on a common directory               *
           ************************************************************
------------------------------------------------------------------------------
                           ORCA GTO INTEGRAL CALCULATION
------------------------------------------------------------------------------

                         BASIS SET STATISTICS AND STARTUP INFO

 # of primitive gaussian shells          ...   92
 # of primitive gaussian functions       ...  152
 # of contracted shells                  ...   28
 # of contracted basis functions         ...   60
 Highest angular momentum                ...    2
 Maximum contraction depth               ...   11
 Integral package used                   ... LIBINT
 Integral threshhold            Thresh   ...  1.000e-12
 Primitive cut-off              TCut     ...  1.000e-14


------------------------------ INTEGRAL EVALUATION ----------------------------


 * One electron integrals 
 Pre-screening matrix                    ... done
 Shell pair data                         ... done (   0.000 sec)



           ************************************************************
           *        Program running with 18 parallel MPI-processes    *
           *              working on a common directory               *
           ************************************************************
-------------------------------------------------------------------------------
                                 ORCA SCF
-------------------------------------------------------------------------------

------------
SCF SETTINGS
------------
Hamiltonian:
 Density Functional     Method          .... DFT(GTOs)
 Exchange Functional    Exchange        .... Slater
   X-Alpha parameter    XAlpha          ....  0.666667
 Correlation Functional Correlation     .... VWN-5
 Gradients option       PostSCFGGA      .... off
   Density functional embedding theory  .... OFF


General Settings:
 Integral files         IntName         .... PH2OH_cc-pcvdz_
 Hartree-Fock type      HFTyp           .... RHF
 Total Charge           Charge          ....    0
 Multiplicity           Mult            ....    1
 Number of Electrons    NEL             ....   26
 Basis Dimension        Dim             ....   60
 Nuclear Repulsion      ENuc            ....     61.6006741189 Eh

Convergence Acceleration:
 DIIS                   CNVDIIS         .... on
   Start iteration      DIISMaxIt       ....    12
   Startup error        DIISStart       ....  0.200000
   # of expansion vecs  DIISMaxEq       ....     5
   Bias factor          DIISBfac        ....   1.050
   Max. coefficient     DIISMaxC        ....  10.000
 Newton-Raphson         CNVNR           .... off
 SOSCF                  CNVSOSCF        .... on
   Start iteration      SOSCFMaxIt      ....   150
   Startup grad/error   SOSCFStart      ....  0.003300
 Level Shifting         CNVShift        .... on
   Level shift para.    LevelShift      ....    0.2500
   Turn off err/grad.   ShiftErr        ....    0.0010
 Zerner damping         CNVZerner       .... off
 Static damping         CNVDamp         .... on
   Fraction old density DampFac         ....    0.7000
   Max. Damping (<1)    DampMax         ....    0.9800
   Min. Damping (>=0)   DampMin         ....    0.0000
   Turn off err/grad.   DampErr         ....    0.1000
 Fernandez-Rico         CNVRico         .... off

SCF Procedure:
 Maximum # iterations   MaxIter         ....   125
 SCF integral mode      SCFMode         .... Direct
   Integral package                     .... LIBINT
 Reset frequency        DirectResetFreq ....    20
 Integral Threshold     Thresh          ....  1.000e-12 Eh
 Primitive CutOff       TCut            ....  1.000e-14 Eh

Convergence Tolerance:
 Convergence Check Mode ConvCheckMode   .... Total+1el-Energy
 Convergence forced     ConvForced      .... 0
 Energy Change          TolE            ....  1.000e-09 Eh
 1-El. energy change                    ....  1.000e-06 Eh
 Orbital Gradient       TolG            ....  2.000e-06
 Orbital Rotation angle TolX            ....  2.000e-06
 DIIS Error             TolErr          ....  1.000e-08


Diagonalization of the overlap matrix:
Smallest eigenvalue                        ... 1.612e-02
Time for diagonalization                   ...    0.001 sec
Threshold for overlap eigenvalues          ... 1.000e-08
Number of eigenvalues below threshold      ... 0
Time for construction of square roots      ...    0.001 sec
Total time needed                          ...    0.002 sec

-------------------
DFT GRID GENERATION
-------------------

General Integration Accuracy     IntAcc      ...  5.010
Radial Grid Type                 RadialGrid  ... Gauss-Chebyshev
Angular Grid (max. acc.)         AngularGrid ... Lebedev-434
Angular grid pruning method      GridPruning ... 3 (G Style)
Weight generation scheme         WeightScheme... Becke
Basis function cutoff            BFCut       ...    1.0000e-12
Integration weight cutoff        WCut        ...    1.0000e-14
Grids for H and He will be reduced by one unit

# of grid points (after initial pruning)     ...  42550 (   0.0 sec)
# of grid points (after weights+screening)   ...  41637 (   0.0 sec)
nearest neighbour list constructed           ...    0.0 sec
Grid point re-assignment to atoms done       ...    0.0 sec
Grid point division into batches done        ...    0.2 sec
Reduced shell lists constructed in    0.2 sec

Total number of grid points                  ...    41637
Total number of batches                      ...      653
Average number of points per batch           ...       63
Average number of grid points per atom       ...     8327
Average number of shells per batch           ...    18.39 (65.70%)
Average number of basis functions per batch  ...    37.66 (62.76%)
Average number of large shells per batch     ...    15.24 (82.83%)
Average number of large basis fcns per batch ...    30.29 (80.43%)
Maximum spatial batch extension              ...  17.74, 17.40, 17.44 au
Average spatial batch extension              ...   0.22,  0.24,  0.22 au

Time for grid setup =    0.292 sec

------------------------------
INITIAL GUESS: MODEL POTENTIAL
------------------------------
Loading Hartree-Fock densities                     ... done
Calculating cut-offs                               ... done
Setting up the integral package                    ... done
Initializing the effective Hamiltonian             ... done
Starting the Coulomb interaction                   ... done (   0.0 sec)
Reading the grid                                   ... done
Mapping shells                                     ... done
Starting the XC term evaluation                    ... done (   0.0 sec)
  promolecular density results
     # of electrons  =     25.998536344
     EX              =    -29.048622791
     EC              =     -1.857157360
     EX+EC           =    -30.905780151
Transforming the Hamiltonian                       ... done (   0.0 sec)
Diagonalizing the Hamiltonian                      ... done (   0.0 sec)
Back transforming the eigenvectors                 ... done (   0.0 sec)
Now organizing SCF variables                       ... done
                      ------------------
                      INITIAL GUESS DONE (   0.4 sec)
                      ------------------
--------------
SCF ITERATIONS
--------------
ITER       Energy         Delta-E        Max-DP      RMS-DP      [F,P]     Damp
               ***  Starting incremental Fock matrix formation  ***
  0   -416.4688649844   0.000000000000 0.09072923  0.00390031  0.2655840 0.7000
  1   -416.5118169203  -0.042951935864 0.04398645  0.00218751  0.0784015 0.7000
                               ***Turning on DIIS***
  2   -416.5219279721  -0.010111051768 0.05530359  0.00256654  0.0168917 0.0000
  3   -416.5486148949  -0.026686922832 0.03091502  0.00150891  0.0344454 0.0000
  4   -416.5499241406  -0.001309245673 0.00951256  0.00052465  0.0259650 0.0000
  5   -416.5506779578  -0.000753817237 0.00246496  0.00013843  0.0070188 0.0000
                      *** Initiating the SOSCF procedure ***
                           *** Shutting down DIIS ***
                      *** Re-Reading the Fockian *** 
                      *** Removing any level shift *** 
ITER      Energy       Delta-E        Grad      Rot      Max-DP    RMS-DP
  6   -416.55073865  -0.0000606937  0.000260  0.000260  0.000733  0.000038
               *** Restarting incremental Fock matrix formation ***
  7   -416.55074251  -0.0000038551  0.000166  0.000333  0.000705  0.000034
  8   -416.55074174   0.0000007675  0.000359  0.000331  0.000507  0.000024
  9   -416.55074279  -0.0000010511  0.000045  0.000059  0.000182  0.000006
 10   -416.55074279   0.0000000026  0.000037  0.000035  0.000101  0.000004
 11   -416.55074280  -0.0000000128  0.000004  0.000005  0.000003  0.000000
 12   -416.55074280  -0.0000000000  0.000002  0.000002  0.000002  0.000000
                  ***Gradient check signals convergence***
              ***Rediagonalizing the Fockian in SOSCF/NRSCF***

               *****************************************************
               *                     SUCCESS                       *
               *           SCF CONVERGED AFTER  13 CYCLES          *
               *****************************************************

Setting up the final grid:

General Integration Accuracy     IntAcc      ...  5.340
Radial Grid Type                 RadialGrid  ... Gauss-Chebyshev
Angular Grid (max. acc.)         AngularGrid ... Lebedev-590
Angular grid pruning method      GridPruning ... 3 (G Style)
Weight generation scheme         WeightScheme... Becke
Basis function cutoff            BFCut       ...    1.0000e-12
Integration weight cutoff        WCut        ...    1.0000e-14
Grids for H and He will be reduced by one unit

# of grid points (after initial pruning)     ...  67380 (   0.0 sec)
# of grid points (after weights+screening)   ...  65798 (   0.0 sec)
nearest neighbour list constructed           ...    0.0 sec
Grid point re-assignment to atoms done       ...    0.0 sec
Grid point division into batches done        ...    0.6 sec
Reduced shell lists constructed in    0.6 sec

Total number of grid points                  ...    65798
Total number of batches                      ...     1031
Average number of points per batch           ...       63
Average number of grid points per atom       ...    13160
Average number of shells per batch           ...    17.85 (63.74%)
Average number of basis functions per batch  ...    36.29 (60.48%)
Average number of large shells per batch     ...    14.56 (81.58%)
Average number of large basis fcns per batch ...    29.00 (79.92%)
Maximum spatial batch extension              ...  15.70, 15.37, 15.70 au
Average spatial batch extension              ...   0.19,  0.20,  0.19 au

Final grid set up in    0.6 sec
Final integration                            ... done (   0.0 sec)
Change in XC energy                          ...    -0.000002439
Integrated number of electrons               ...    26.000000674
Previous integrated no of electrons          ...    26.000001190

----------------
TOTAL SCF ENERGY
----------------

Total Energy       :         -416.55074524 Eh          -11334.92203 eV

Components:
Nuclear Repulsion  :           61.60067412 Eh            1676.23956 eV
Electronic Energy  :         -478.15141936 Eh          -13011.16160 eV
One Electron Energy:         -699.88341278 Eh          -19044.79588 eV
Two Electron Energy:          221.73199343 Eh            6033.63429 eV

Virial components:
Potential Energy   :         -832.05823731 Eh          -22641.45571 eV
Kinetic Energy     :          415.50749207 Eh           11306.53367 eV
Virial Ratio       :            2.00251079


DFT components:
N(Alpha)           :       13.000000336755 electrons
N(Beta)            :       13.000000336755 electrons
N(Total)           :       26.000000673510 electrons
E(X)               :      -29.233131904526 Eh       
E(C)               :       -1.872894078834 Eh       
E(XC)              :      -31.106025983361 Eh       
DFET-embed. en.    :        0.000000000000 Eh       

---------------
SCF CONVERGENCE
---------------

  Last Energy change         ...   -4.2007e-11  Tolerance :   1.0000e-09
  Last MAX-Density change    ...    4.9382e-07  Tolerance :   1.0000e-08
  Last RMS-Density change    ...    3.0992e-08  Tolerance :   1.0000e-09
  Last Orbital Gradient      ...    3.5335e-07  Tolerance :   2.0000e-06
  Last Orbital Rotation      ...    3.4425e-07  Tolerance :   2.0000e-06

             **** THE GBW FILE WAS UPDATED (PH2OH_cc-pcvdz_.gbw) ****
             **** DENSITY FILE WAS UPDATED (PH2OH_cc-pcvdz_.scfp) ****
             **** ENERGY FILE WAS UPDATED (PH2OH_cc-pcvdz_.en.tmp) ****
             **** THE GBW FILE WAS UPDATED (PH2OH_cc-pcvdz_.gbw) ****
             **** DENSITY FILE WAS UPDATED (PH2OH_cc-pcvdz_.scfp) ****
----------------
ORBITAL ENERGIES
----------------

  NO   OCC          E(Eh)            E(eV) 
   0   2.0000     -76.009262     -2068.3172 
   1   2.0000     -18.626495      -506.8527 
   2   2.0000      -6.282773      -170.9629 
   3   2.0000      -4.533088      -123.3516 
   4   2.0000      -4.529144      -123.2443 
   5   2.0000      -4.524600      -123.1206 
   6   2.0000      -0.926704       -25.2169 
   7   2.0000      -0.581402       -15.8207 
   8   2.0000      -0.430097       -11.7035 
   9   2.0000      -0.363901        -9.9022 
  10   2.0000      -0.357119        -9.7177 
  11   2.0000      -0.253844        -6.9074 
  12   2.0000      -0.216030        -5.8785 
  13   0.0000      -0.030608        -0.8329 
  14   0.0000       0.020988         0.5711 
  15   0.0000       0.047667         1.2971 
  16   0.0000       0.068253         1.8573 
  17   0.0000       0.276118         7.5135 
  18   0.0000       0.353766         9.6265 
  19   0.0000       0.366755         9.9799 
  20   0.0000       0.381785        10.3889 
  21   0.0000       0.393589        10.7101 
  22   0.0000       0.412923        11.2362 
  23   0.0000       0.488012        13.2795 
  24   0.0000       0.492844        13.4110 
  25   0.0000       0.562389        15.3034 
  26   0.0000       0.597112        16.2482 
  27   0.0000       0.798510        21.7286 
  28   0.0000       0.831068        22.6145 
  29   0.0000       0.924734        25.1633 
  30   0.0000       0.953954        25.9584 
  31   0.0000       1.037197        28.2236 
  32   0.0000       1.262775        34.3619 
  33   0.0000       1.305676        35.5292 
  34   0.0000       1.331591        36.2344 
  35   0.0000       1.343111        36.5479 
  36   0.0000       1.430599        38.9286 
  37   0.0000       1.527560        41.5670 
  38   0.0000       1.720304        46.8119 
  39   0.0000       1.938473        52.7485 
  40   0.0000       1.951305        53.0977 
  41   0.0000       2.029039        55.2130 
  42   0.0000       2.606945        70.9386 
  43   0.0000       2.798879        76.1614 
  44   0.0000       2.829120        76.9843 
  45   0.0000       2.921024        79.4851 
  46   0.0000       3.527781        95.9958 
  47   0.0000       7.880185       214.4307 
  48   0.0000       7.975396       217.0216 
  49   0.0000       8.081660       219.9131 
  50   0.0000      11.178310       304.1773 
  51   0.0000      11.178443       304.1809 
  52   0.0000      11.182231       304.2840 
  53   0.0000      11.211831       305.0894 
  54   0.0000      11.222106       305.3690 
  55   0.0000      13.170990       358.4009 
  56   0.0000      32.968830       897.1275 
  57   0.0000      37.591298      1022.9112 
  58   0.0000      37.664215      1024.8954 
  59   0.0000      38.182797      1039.0067 

                    ********************************
                    * MULLIKEN POPULATION ANALYSIS *
                    ********************************

-----------------------
MULLIKEN ATOMIC CHARGES
-----------------------
   0 P :    0.097673
   1 H :    0.023744
   2 H :    0.023745
   3 O :   -0.328033
   4 H :    0.182871
Sum of atomic charges:   -0.0000000

--------------------------------
MULLIKEN REDUCED ORBITAL CHARGES
--------------------------------
  0 P s       :     5.688936  s :     5.688936
      pz      :     3.089846  p :     8.978204
      px      :     3.102088
      py      :     2.786270
      dz2     :     0.071691  d :     0.235188
      dxz     :     0.003879
      dyz     :     0.040692
      dx2y2   :     0.079093
      dxy     :     0.039833
  1 H s       :     0.960260  s :     0.960260
      pz      :     0.010537  p :     0.015995
      px      :     0.003569
      py      :     0.001889
  2 H s       :     0.960260  s :     0.960260
      pz      :     0.003565  p :     0.015995
      px      :     0.010541
      py      :     0.001889
  3 O s       :     3.724464  s :     3.724464
      pz      :     1.588228  p :     4.592519
      px      :     1.564362
      py      :     1.439929
      dz2     :     0.001476  d :     0.011050
      dxz     :     0.003103
      dyz     :     0.001488
      dx2y2   :     0.003502
      dxy     :     0.001480
  4 H s       :     0.735708  s :     0.735708
      pz      :     0.030946  p :     0.081421
      px      :     0.031690
      py      :     0.018785


                     *******************************
                     * LOEWDIN POPULATION ANALYSIS *
                     *******************************

----------------------
LOEWDIN ATOMIC CHARGES
----------------------
   0 P :    0.185114
   1 H :   -0.037480
   2 H :   -0.037479
   3 O :   -0.153386
   4 H :    0.043230

-------------------------------
LOEWDIN REDUCED ORBITAL CHARGES
-------------------------------
  0 P s       :     5.390650  s :     5.390650
      pz      :     3.101860  p :     9.093620
      px      :     3.113827
      py      :     2.877933
      dz2     :     0.106917  d :     0.330616
      dxz     :     0.003952
      dyz     :     0.051507
      dx2y2   :     0.117870
      dxy     :     0.050370
  1 H s       :     0.983648  s :     0.983648
      pz      :     0.038765  p :     0.053832
      px      :     0.008968
      py      :     0.006099
  2 H s       :     0.983647  s :     0.983647
      pz      :     0.008813  p :     0.053832
      px      :     0.038920
      py      :     0.006099
  3 O s       :     3.452215  s :     3.452215
      pz      :     1.607839  p :     4.681775
      px      :     1.590103
      py      :     1.483834
      dz2     :     0.002252  d :     0.019396
      dxz     :     0.006551
      dyz     :     0.001780
      dx2y2   :     0.007036
      dxy     :     0.001776
  4 H s       :     0.746250  s :     0.746250
      pz      :     0.081818  p :     0.210519
      px      :     0.083780
      py      :     0.044921


                      *****************************
                      * MAYER POPULATION ANALYSIS *
                      *****************************

  NA   - Mulliken gross atomic population
  ZA   - Total nuclear charge
  QA   - Mulliken gross atomic charge
  VA   - Mayer's total valence
  BVA  - Mayer's bonded valence
  FA   - Mayer's free valence

  ATOM       NA         ZA         QA         VA         BVA        FA
  0 P     14.9023    15.0000     0.0977     3.0391     3.0391    -0.0000
  1 H      0.9763     1.0000     0.0237     0.9575     0.9575    -0.0000
  2 H      0.9763     1.0000     0.0237     0.9575     0.9575    -0.0000
  3 O      8.3280     8.0000    -0.3280     2.1699     2.1699    -0.0000
  4 H      0.8171     1.0000     0.1829     1.0270     1.0270    -0.0000

  Mayer bond orders larger than 0.100000
B(  0-P ,  1-H ) :   0.9377 B(  0-P ,  2-H ) :   0.9377 B(  0-P ,  3-O ) :   1.1409 
B(  3-O ,  4-H ) :   0.9942 

-------
TIMINGS
-------

Total SCF time: 0 days 0 hours 0 min 3 sec 

Total time                  ....       3.695 sec
Sum of individual times     ....       3.504 sec  ( 94.8%)

Fock matrix formation       ....       2.522 sec  ( 68.2%)
  XC integration            ....       0.149 sec  (  5.9% of F)
    Basis function eval.    ....       0.050 sec  ( 33.4% of XC)
    Density eval.           ....       0.011 sec  (  7.4% of XC)
    XC-Functional eval.     ....       0.012 sec  (  7.9% of XC)
    XC-Potential eval.      ....       0.010 sec  (  6.7% of XC)
Diagonalization             ....       0.003 sec  (  0.1%)
Density matrix formation    ....       0.001 sec  (  0.0%)
Population analysis         ....       0.001 sec  (  0.0%)
Initial guess               ....       0.077 sec  (  2.1%)
Orbital Transformation      ....       0.000 sec  (  0.0%)
Orbital Orthonormalization  ....       0.000 sec  (  0.0%)
DIIS solution               ....       0.001 sec  (  0.0%)
SOSCF solution              ....       0.002 sec  (  0.1%)
Grid generation             ....       0.896 sec  ( 24.2%)

-------------------------   --------------------
FINAL SINGLE POINT ENERGY      -416.550745239113
-------------------------   --------------------


                            ***************************************
                            *     ORCA property calculations      *
                            ***************************************

                                    ---------------------
                                    Active property flags
                                    ---------------------
   (+) Dipole Moment


------------------------------------------------------------------------------
                       ORCA ELECTRIC PROPERTIES CALCULATION
------------------------------------------------------------------------------

Dipole Moment Calculation                       ... on
Quadrupole Moment Calculation                   ... off
Polarizability Calculation                      ... off
GBWName                                         ... PH2OH_cc-pcvdz_.gbw
Electron density file                           ... PH2OH_cc-pcvdz_.scfp
The origin for moment calculation is the CENTER OF MASS  = (-0.141456,  1.049520 -0.135201)

-------------
DIPOLE MOMENT
-------------
                                X             Y             Z
Electronic contribution:     -0.76588      -0.61050      -0.73202
Nuclear contribution   :      0.57117       0.55687       0.54592
                        -----------------------------------------
Total Dipole Moment    :     -0.19471      -0.05363      -0.18610
                        -----------------------------------------
Magnitude (a.u.)       :      0.27463
Magnitude (Debye)      :      0.69806



--------------------
Rotational spectrum 
--------------------
 
Rotational constants in cm-1:     3.740760     0.483188     0.479169 
Rotational constants in MHz : 112145.176126 14485.620170 14365.126502 

 Dipole components along the rotational axes: 
x,y,z [a.u.] :     0.031595     0.272808    -0.000001 
x,y,z [Debye]:     0.080308     0.693423    -0.000002 

 

Timings for individual modules:

Sum of individual times         ...        4.449 sec (=   0.074 min)
GTO integral calculation        ...        0.529 sec (=   0.009 min)  11.9 %
SCF iterations                  ...        3.920 sec (=   0.065 min)  88.1 %
                             ****ORCA TERMINATED NORMALLY****
TOTAL RUN TIME: 0 days 0 hours 0 minutes 4 seconds 776 msec
