
                                 *****************
                                 * O   R   C   A *
                                 *****************

           --- An Ab Initio, DFT and Semiempirical electronic structure package ---

                  #######################################################
                  #                        -***-                        #
                  #          Department of theory and spectroscopy      #
                  #               Directorship: Frank Neese             #
                  #        Max Planck Institute fuer Kohlenforschung    #
                  #                Kaiser Wilhelm Platz 1               #
                  #                 D-45470 Muelheim/Ruhr               #
                  #                      Germany                        #
                  #                                                     #
                  #                  All rights reserved                #
                  #                        -***-                        #
                  #######################################################


                         Program Version 4.2.1 -  RELEASE  -


 With contributions from (in alphabetic order):
   Daniel Aravena         : Magnetic Suceptibility
   Michael Atanasov       : Ab Initio Ligand Field Theory (pilot matlab implementation)
   Alexander A. Auer      : GIAO ZORA, VPT2
   Ute Becker             : Parallelization
   Giovanni Bistoni       : ED, misc. LED, open-shell LED, HFLD
   Martin Brehm           : Molecular dynamics
   Dmytro Bykov           : SCF Hessian
   Vijay G. Chilkuri      : MRCI spin determinant printing, contributions to CSF-ICE
   Dipayan Datta          : RHF DLPNO-CCSD density
   Achintya Kumar Dutta   : EOM-CC, STEOM-CC
   Dmitry Ganyushin       : Spin-Orbit,Spin-Spin,Magnetic field MRCI
   Miquel Garcia          : C-PCM Hessian, Gaussian charge scheme
   Yang Guo               : DLPNO-NEVPT2, CIM, IAO-localization
   Andreas Hansen         : Spin unrestricted coupled pair/coupled cluster methods
   Benjamin Helmich-Paris : CASSCF linear response (MC-RPA)
   Lee Huntington         : MR-EOM, pCC
   Robert Izsak           : Overlap fitted RIJCOSX, COSX-SCS-MP3, EOM
   Christian Kollmar      : KDIIS, OOCD, Brueckner-CCSD(T), CCSD density
   Simone Kossmann        : Meta GGA functionals, TD-DFT gradient, OOMP2, MP2 Hessian
   Martin Krupicka        : AUTO-CI
   Lucas Lang             : DCDCAS
   Dagmar Lenk            : GEPOL surface, SMD
   Dimitrios Liakos       : Extrapolation schemes; Compound Job, initial MDCI parallelization
   Dimitrios Manganas     : Further ROCIS development; embedding schemes
   Dimitrios Pantazis     : SARC Basis sets
   Taras Petrenko         : DFT Hessian,TD-DFT gradient, ASA, ECA, R-Raman, ABS, FL, XAS/XES, NRVS
   Peter Pinski           : DLPNO-MP2, DLPNO-MP2 Gradient
   Christoph Reimann      : Effective Core Potentials
   Marius Retegan         : Local ZFS, SOC
   Christoph Riplinger    : Optimizer, TS searches, QM/MM, DLPNO-CCSD(T), (RO)-DLPNO pert. Triples
   Tobias Risthaus        : Range-separated hybrids, TD-DFT gradient, RPA, STAB
   Michael Roemelt        : Original ROCIS implementation
   Masaaki Saitow         : Open-shell DLPNO-CCSD energy and density
   Barbara Sandhoefer     : DKH picture change effects
   Avijit Sen             : IP-ROCIS
   Kantharuban Sivalingam : CASSCF convergence, NEVPT2, FIC-MRCI
   Bernardo de Souza      : ESD, SOC TD-DFT
   Georgi Stoychev        : AutoAux, RI-MP2 NMR
   Willem Van den Heuvel  : Paramagnetic NMR
   Boris Wezisla          : Elementary symmetry handling
   Frank Wennmohs         : Technical directorship


 We gratefully acknowledge several colleagues who have allowed us to
 interface, adapt or use parts of their codes:
   Stefan Grimme, W. Hujo, H. Kruse,             : VdW corrections, initial TS optimization,
                  C. Bannwarth                     DFT functionals, gCP, sTDA/sTD-DF
   Ed Valeev, F. Pavosevic, A. Kumar             : LibInt (2-el integral package), F12 methods
   Garnet Chan, S. Sharma, J. Yang, R. Olivares  : DMRG
   Ulf Ekstrom                                   : XCFun DFT Library
   Mihaly Kallay                                 : mrcc  (arbitrary order and MRCC methods)
   Andreas Klamt, Michael Diedenhofen            : otool_cosmo (COSMO solvation model)
   Jiri Pittner, Ondrej Demel                    : Mk-CCSD
   Frank Weinhold                                : gennbo (NPA and NBO analysis)
   Christopher J. Cramer and Donald G. Truhlar   : smd solvation model
   Lars Goerigk                                  : TD-DFT with DH, B97 family of functionals
   V. Asgeirsson, H. Jonsson                     : NEB implementation
   FAccTs GmbH                                   : IRC, NEB, NEB-TS, Multilevel, MM, QM/MM, CI optimization
   S Lehtola, MJT Oliveira, MAL Marques          : LibXC Library


 Your calculation uses the libint2 library for the computation of 2-el integrals
 For citations please refer to: http://libint.valeyev.net

 Your ORCA version has been built with support for libXC version: 4.2.3
 For citations please refer to: https://tddft.org/programs/libxc/

 This ORCA versions uses:
   CBLAS   interface :  Fast vector & matrix operations
   LAPACKE interface :  Fast linear algebra routines
   SCALAPACK package :  Parallel linear algebra routines


----- Orbital basis set information -----
Your calculation utilizes the basis: cc-pVTZ 
       H, B-Ne : Obtained from the ccRepo (grant-hill.group.shef.ac.uk/ccrepo) Feb. 2017
                 T. H. Dunning, Jr., J. Chem. Phys. 90, 1007 (1989)
            He : Obtained from the ccRepo (grant-hill.group.shef.ac.uk/ccrepo) Feb. 2017
                 D. E. Woon, T. H. Dunning, Jr., J. Chem. Phys. 100, 2975 (1994)
  Li-Be, Na-Mg : Obtained from the ccRepo (grant-hill.group.shef.ac.uk/ccrepo) Feb. 2017
                 B. P. Prascher, D. E. Woon, K. A. Peterson, T. H. Dunning, Jr., A. K. Wilson, Theor. Chem. Acc. 128, 69 (2011)
         Al-Ar : Obtained from the ccRepo (grant-hill.group.shef.ac.uk/ccrepo) Feb. 2017
                 D. E. Woon, T. H. Dunning, Jr., J. Chem. Phys. 98, 1358 (1993)
            Ca : Obtained from the Peterson Research Group Website (tyr0.chem.wsu.edu/~kipeters) Feb. 2017
                 J. Koput, K. A. Peterson, J. Phys. Chem. 106, 9595 (2002)
         Sc-Zn : Obtained from the ccRepo (grant-hill.group.shef.ac.uk/ccrepo) Feb. 2017
                 N. B. Balabanov, K. A. Peterson, J. Chem. Phys. 123, 064107 (2005)
                 N. B. Balabanov, K. A. Peterson, J. Chem. Phys. 125, 074110 (2006)
         Ga-Kr : Obtained from the ccRepo (grant-hill.group.shef.ac.uk/ccrepo) Feb. 2017
                 A. K. Wilson, D. E. Woon, K. A. Peterson, T. H. Dunning, Jr., J. Chem. Phys. 110, 7667 (1999)
             Y : Obtained from the ccRepo (grant-hill.group.shef.ac.uk/ccrepo) Feb. 2017
                 K. A. Peterson, D. Figgen, M. Dolg, H. Stoll, J. Chem. Phys. 126, 124101 (2007)
        Ag, Au : Obtained from the Peterson Research Group Website (tyr0.chem.wsu.edu/~kipeters) Feb. 2017
                 K. A. Peterson, C. Puzzarini, Theor. Chem. Acc. 114, 283 (2005)

================================================================================
                                        WARNINGS
                       Please study these warnings very carefully!
================================================================================


INFO   : the flag for use of LIBINT has been found!

================================================================================
                                       INPUT FILE
================================================================================
NAME = PH2OH_cc-pvtz_.inp
|  1> ! LDA cc-pvtz nori grid5 finalgrid6 verytightscf
|  2> %Pal NProcs 18 End
|  3> 
|  4> *xyz 0 1
|  5> P 0.0000000000 0.0000000000 0.0000000000
|  6> H 0.0000000000 0.0000000000 1.4141500000
|  7> H 1.4127052064 0.0000000000 -0.0639079205
|  8> O -0.2628101077 1.6275926322 -0.2511898901
|  9> H -0.9542069755 1.7138775927 -0.9120164663
| 10> **                         ****END OF INPUT****
================================================================================

                       ****************************
                       * Single Point Calculation *
                       ****************************

---------------------------------
CARTESIAN COORDINATES (ANGSTROEM)
---------------------------------
  P      0.000000    0.000000    0.000000
  H      0.000000    0.000000    1.414150
  H      1.412705    0.000000   -0.063908
  O     -0.262810    1.627593   -0.251190
  H     -0.954207    1.713878   -0.912016

----------------------------
CARTESIAN COORDINATES (A.U.)
----------------------------
  NO LB      ZA    FRAG     MASS         X           Y           Z
   0 P    15.0000    0    30.974    0.000000    0.000000    0.000000
   1 H     1.0000    0     1.008    0.000000    0.000000    2.672356
   2 H     1.0000    0     1.008    2.669626    0.000000   -0.120768
   3 O     8.0000    0    15.999   -0.496639    3.075704   -0.474680
   4 H     1.0000    0     1.008   -1.803190    3.238759   -1.723461

--------------------------------
INTERNAL COORDINATES (ANGSTROEM)
--------------------------------
 P      0   0   0     0.000000000000     0.00000000     0.00000000
 H      1   0   0     1.414150000000     0.00000000     0.00000000
 H      1   2   0     1.414149999997    92.59017900     0.00000000
 O      1   2   3     1.667699999997    98.66289000   260.82752600
 H      4   1   2     0.960295000000   107.74626300   226.99131300

---------------------------
INTERNAL COORDINATES (A.U.)
---------------------------
 P      0   0   0     0.000000000000     0.00000000     0.00000000
 H      1   0   0     2.672356212285     0.00000000     0.00000000
 H      1   2   0     2.672356212280    92.59017900     0.00000000
 O      1   2   3     3.151496273534    98.66289000   260.82752600
 H      4   1   2     1.814694557773   107.74626300   226.99131300

---------------------
BASIS SET INFORMATION
---------------------
There are 3 groups of distinct atoms

 Group   1 Type P   : 41s16p2d1f contracted to 5s4p2d1f pattern {13131311/7711/11/1}
 Group   2 Type H   : 5s2p1d contracted to 3s2p1d pattern {311/11/1}
 Group   3 Type O   : 18s5p2d1f contracted to 4s3p2d1f pattern {8811/311/11/1}

Atom   0P    basis set group =>   1
Atom   1H    basis set group =>   2
Atom   2H    basis set group =>   2
Atom   3O    basis set group =>   3
Atom   4H    basis set group =>   2


           ************************************************************
           *        Program running with 18 parallel MPI-processes    *
           *              working on a common directory               *
           ************************************************************
------------------------------------------------------------------------------
                           ORCA GTO INTEGRAL CALCULATION
------------------------------------------------------------------------------

                         BASIS SET STATISTICS AND STARTUP INFO

 # of primitive gaussian shells          ...  110
 # of primitive gaussian functions       ...  204
 # of contracted shells                  ...   40
 # of contracted basis functions         ...  106
 Highest angular momentum                ...    3
 Maximum contraction depth               ...   13
 Integral package used                   ... LIBINT
 Integral threshhold            Thresh   ...  1.000e-12
 Primitive cut-off              TCut     ...  1.000e-14


------------------------------ INTEGRAL EVALUATION ----------------------------


 * One electron integrals 
 Pre-screening matrix                    ... done
 Shell pair data                         ... done (   0.000 sec)



           ************************************************************
           *        Program running with 18 parallel MPI-processes    *
           *              working on a common directory               *
           ************************************************************
-------------------------------------------------------------------------------
                                 ORCA SCF
-------------------------------------------------------------------------------

------------
SCF SETTINGS
------------
Hamiltonian:
 Density Functional     Method          .... DFT(GTOs)
 Exchange Functional    Exchange        .... Slater
   X-Alpha parameter    XAlpha          ....  0.666667
 Correlation Functional Correlation     .... VWN-5
 Gradients option       PostSCFGGA      .... off
   Density functional embedding theory  .... OFF


General Settings:
 Integral files         IntName         .... PH2OH_cc-pvtz_
 Hartree-Fock type      HFTyp           .... RHF
 Total Charge           Charge          ....    0
 Multiplicity           Mult            ....    1
 Number of Electrons    NEL             ....   26
 Basis Dimension        Dim             ....  106
 Nuclear Repulsion      ENuc            ....     61.6006741189 Eh

Convergence Acceleration:
 DIIS                   CNVDIIS         .... on
   Start iteration      DIISMaxIt       ....    12
   Startup error        DIISStart       ....  0.200000
   # of expansion vecs  DIISMaxEq       ....     5
   Bias factor          DIISBfac        ....   1.050
   Max. coefficient     DIISMaxC        ....  10.000
 Newton-Raphson         CNVNR           .... off
 SOSCF                  CNVSOSCF        .... on
   Start iteration      SOSCFMaxIt      ....   150
   Startup grad/error   SOSCFStart      ....  0.003300
 Level Shifting         CNVShift        .... on
   Level shift para.    LevelShift      ....    0.2500
   Turn off err/grad.   ShiftErr        ....    0.0010
 Zerner damping         CNVZerner       .... off
 Static damping         CNVDamp         .... on
   Fraction old density DampFac         ....    0.7000
   Max. Damping (<1)    DampMax         ....    0.9800
   Min. Damping (>=0)   DampMin         ....    0.0000
   Turn off err/grad.   DampErr         ....    0.1000
 Fernandez-Rico         CNVRico         .... off

SCF Procedure:
 Maximum # iterations   MaxIter         ....   125
 SCF integral mode      SCFMode         .... Direct
   Integral package                     .... LIBINT
 Reset frequency        DirectResetFreq ....    20
 Integral Threshold     Thresh          ....  1.000e-12 Eh
 Primitive CutOff       TCut            ....  1.000e-14 Eh

Convergence Tolerance:
 Convergence Check Mode ConvCheckMode   .... Total+1el-Energy
 Convergence forced     ConvForced      .... 0
 Energy Change          TolE            ....  1.000e-09 Eh
 1-El. energy change                    ....  1.000e-06 Eh
 Orbital Gradient       TolG            ....  2.000e-06
 Orbital Rotation angle TolX            ....  2.000e-06
 DIIS Error             TolErr          ....  1.000e-08


Diagonalization of the overlap matrix:
Smallest eigenvalue                        ... 2.473e-03
Time for diagonalization                   ...    0.004 sec
Threshold for overlap eigenvalues          ... 1.000e-08
Number of eigenvalues below threshold      ... 0
Time for construction of square roots      ...    0.002 sec
Total time needed                          ...    0.006 sec

-------------------
DFT GRID GENERATION
-------------------

General Integration Accuracy     IntAcc      ...  5.010
Radial Grid Type                 RadialGrid  ... Gauss-Chebyshev
Angular Grid (max. acc.)         AngularGrid ... Lebedev-434
Angular grid pruning method      GridPruning ... 3 (G Style)
Weight generation scheme         WeightScheme... Becke
Basis function cutoff            BFCut       ...    1.0000e-12
Integration weight cutoff        WCut        ...    1.0000e-14
Grids for H and He will be reduced by one unit

# of grid points (after initial pruning)     ...  42550 (   0.0 sec)
# of grid points (after weights+screening)   ...  41637 (   0.0 sec)
nearest neighbour list constructed           ...    0.0 sec
Grid point re-assignment to atoms done       ...    0.0 sec
Grid point division into batches done        ...    0.2 sec
Reduced shell lists constructed in    0.2 sec

Total number of grid points                  ...    41637
Total number of batches                      ...      653
Average number of points per batch           ...       63
Average number of grid points per atom       ...     8327
Average number of shells per batch           ...    27.97 (69.93%)
Average number of basis functions per batch  ...    70.92 (66.91%)
Average number of large shells per batch     ...    22.45 (80.24%)
Average number of large basis fcns per batch ...    56.13 (79.15%)
Maximum spatial batch extension              ...  17.74, 17.40, 17.44 au
Average spatial batch extension              ...   0.22,  0.24,  0.22 au

Time for grid setup =    0.303 sec

------------------------------
INITIAL GUESS: MODEL POTENTIAL
------------------------------
Loading Hartree-Fock densities                     ... done
Calculating cut-offs                               ... done
Setting up the integral package                    ... done
Initializing the effective Hamiltonian             ... done
Starting the Coulomb interaction                   ... done (   0.0 sec)
Reading the grid                                   ... done
Mapping shells                                     ... done
Starting the XC term evaluation                    ... done (   0.0 sec)
  promolecular density results
     # of electrons  =     25.998536373
     EX              =    -29.048622791
     EC              =     -1.857157360
     EX+EC           =    -30.905780151
Transforming the Hamiltonian                       ... done (   0.0 sec)
Diagonalizing the Hamiltonian                      ... done (   0.0 sec)
Back transforming the eigenvectors                 ... done (   0.0 sec)
Now organizing SCF variables                       ... done
                      ------------------
                      INITIAL GUESS DONE (   0.4 sec)
                      ------------------
--------------
SCF ITERATIONS
--------------
ITER       Energy         Delta-E        Max-DP      RMS-DP      [F,P]     Damp
               ***  Starting incremental Fock matrix formation  ***
  0   -416.5170079762   0.000000000000 0.04181729  0.00164894  0.3027484 0.7000
  1   -416.5624129709  -0.045404994739 0.02845796  0.00093774  0.0797501 0.7000
                               ***Turning on DIIS***
  2   -416.5724359875  -0.010023016603 0.04829262  0.00120632  0.0220760 0.0000
  3   -416.6013494042  -0.028913416725 0.01732560  0.00063211  0.0300952 0.0000
  4   -416.6019290565  -0.000579652224 0.00722071  0.00022681  0.0336037 0.0000
  5   -416.6029294573  -0.001000400869 0.00224843  0.00008002  0.0085323 0.0000
                      *** Initiating the SOSCF procedure ***
                           *** Shutting down DIIS ***
                      *** Re-Reading the Fockian *** 
                      *** Removing any level shift *** 
ITER      Energy       Delta-E        Grad      Rot      Max-DP    RMS-DP
  6   -416.60302937  -0.0000999122  0.000386  0.000386  0.000638  0.000025
               *** Restarting incremental Fock matrix formation ***
  7   -416.60303903  -0.0000096568  0.000253  0.000698  0.000611  0.000025
  8   -416.60303585   0.0000031727  0.000614  0.000560  0.000420  0.000017
  9   -416.60303984  -0.0000039902  0.000032  0.000056  0.000118  0.000003
 10   -416.60303984   0.0000000025  0.000033  0.000035  0.000080  0.000002
 11   -416.60303986  -0.0000000194  0.000004  0.000008  0.000011  0.000000
 12   -416.60303986  -0.0000000001  0.000003  0.000004  0.000003  0.000000
                  ***Gradient check signals convergence***
              ***Rediagonalizing the Fockian in SOSCF/NRSCF***

               *****************************************************
               *                     SUCCESS                       *
               *           SCF CONVERGED AFTER  13 CYCLES          *
               *****************************************************

Setting up the final grid:

General Integration Accuracy     IntAcc      ...  5.340
Radial Grid Type                 RadialGrid  ... Gauss-Chebyshev
Angular Grid (max. acc.)         AngularGrid ... Lebedev-590
Angular grid pruning method      GridPruning ... 3 (G Style)
Weight generation scheme         WeightScheme... Becke
Basis function cutoff            BFCut       ...    1.0000e-12
Integration weight cutoff        WCut        ...    1.0000e-14
Grids for H and He will be reduced by one unit

# of grid points (after initial pruning)     ...  67380 (   0.0 sec)
# of grid points (after weights+screening)   ...  65798 (   0.0 sec)
nearest neighbour list constructed           ...    0.0 sec
Grid point re-assignment to atoms done       ...    0.0 sec
Grid point division into batches done        ...    0.6 sec
Reduced shell lists constructed in    0.6 sec

Total number of grid points                  ...    65798
Total number of batches                      ...     1031
Average number of points per batch           ...       63
Average number of grid points per atom       ...    13160
Average number of shells per batch           ...    26.85 (67.12%)
Average number of basis functions per batch  ...    67.86 (64.02%)
Average number of large shells per batch     ...    21.19 (78.91%)
Average number of large basis fcns per batch ...    52.64 (77.57%)
Maximum spatial batch extension              ...  15.70, 15.37, 15.70 au
Average spatial batch extension              ...   0.19,  0.20,  0.19 au

Final grid set up in    0.6 sec
Final integration                            ... done (   0.0 sec)
Change in XC energy                          ...    -0.000003172
Integrated number of electrons               ...    26.000000385
Previous integrated no of electrons          ...    26.000001737

----------------
TOTAL SCF ENERGY
----------------

Total Energy       :         -416.60304303 Eh          -11336.34513 eV

Components:
Nuclear Repulsion  :           61.60067412 Eh            1676.23956 eV
Electronic Energy  :         -478.20371715 Eh          -13012.58469 eV
One Electron Energy:         -699.70701521 Eh          -19039.99586 eV
Two Electron Energy:          221.50329806 Eh            6027.41117 eV

Virial components:
Potential Energy   :         -832.50989521 Eh          -22653.74594 eV
Kinetic Energy     :          415.90685218 Eh           11317.40081 eV
Virial Ratio       :            2.00167391


DFT components:
N(Alpha)           :       13.000000192552 electrons
N(Beta)            :       13.000000192552 electrons
N(Total)           :       26.000000385104 electrons
E(X)               :      -29.202752370581 Eh       
E(C)               :       -1.870854236004 Eh       
E(XC)              :      -31.073606606585 Eh       
DFET-embed. en.    :        0.000000000000 Eh       

---------------
SCF CONVERGENCE
---------------

  Last Energy change         ...   -1.6740e-10  Tolerance :   1.0000e-09
  Last MAX-Density change    ...    6.0223e-07  Tolerance :   1.0000e-08
  Last RMS-Density change    ...    2.6220e-08  Tolerance :   1.0000e-09
  Last Orbital Gradient      ...    2.1124e-07  Tolerance :   2.0000e-06
  Last Orbital Rotation      ...    6.3146e-07  Tolerance :   2.0000e-06

             **** THE GBW FILE WAS UPDATED (PH2OH_cc-pvtz_.gbw) ****
             **** DENSITY FILE WAS UPDATED (PH2OH_cc-pvtz_.scfp) ****
             **** ENERGY FILE WAS UPDATED (PH2OH_cc-pvtz_.en.tmp) ****
             **** THE GBW FILE WAS UPDATED (PH2OH_cc-pvtz_.gbw) ****
             **** DENSITY FILE WAS UPDATED (PH2OH_cc-pvtz_.scfp) ****
----------------
ORBITAL ENERGIES
----------------

  NO   OCC          E(Eh)            E(eV) 
   0   2.0000     -76.040049     -2069.1549 
   1   2.0000     -18.624122      -506.7881 
   2   2.0000      -6.295302      -171.3039 
   3   2.0000      -4.547682      -123.7487 
   4   2.0000      -4.544080      -123.6507 
   5   2.0000      -4.539641      -123.5299 
   6   2.0000      -0.935182       -25.4476 
   7   2.0000      -0.586260       -15.9529 
   8   2.0000      -0.439332       -11.9548 
   9   2.0000      -0.371049       -10.0967 
  10   2.0000      -0.369961       -10.0672 
  11   2.0000      -0.268735        -7.3127 
  12   2.0000      -0.224627        -6.1124 
  13   0.0000      -0.047156        -1.2832 
  14   0.0000       0.007689         0.2092 
  15   0.0000       0.027862         0.7582 
  16   0.0000       0.043872         1.1938 
  17   0.0000       0.167974         4.5708 
  18   0.0000       0.198318         5.3965 
  19   0.0000       0.228521         6.2184 
  20   0.0000       0.246345         6.7034 
  21   0.0000       0.268426         7.3042 
  22   0.0000       0.269931         7.3452 
  23   0.0000       0.323133         8.7929 
  24   0.0000       0.340415         9.2632 
  25   0.0000       0.381027        10.3683 
  26   0.0000       0.395602        10.7649 
  27   0.0000       0.503202        13.6928 
  28   0.0000       0.527358        14.3501 
  29   0.0000       0.580970        15.8090 
  30   0.0000       0.583638        15.8816 
  31   0.0000       0.620604        16.8875 
  32   0.0000       0.703417        19.1410 
  33   0.0000       0.782912        21.3041 
  34   0.0000       0.794007        21.6060 
  35   0.0000       0.813380        22.1332 
  36   0.0000       0.904823        24.6215 
  37   0.0000       0.912798        24.8385 
  38   0.0000       1.011403        27.5217 
  39   0.0000       1.051762        28.6199 
  40   0.0000       1.122183        30.5362 
  41   0.0000       1.159269        31.5453 
  42   0.0000       1.222589        33.2683 
  43   0.0000       1.223685        33.2982 
  44   0.0000       1.263780        34.3892 
  45   0.0000       1.321657        35.9641 
  46   0.0000       1.371787        37.3282 
  47   0.0000       1.397346        38.0237 
  48   0.0000       1.459082        39.7036 
  49   0.0000       1.497742        40.7556 
  50   0.0000       1.504484        40.9391 
  51   0.0000       1.585094        43.1326 
  52   0.0000       1.639248        44.6062 
  53   0.0000       1.741076        47.3771 
  54   0.0000       1.809120        49.2287 
  55   0.0000       1.867042        50.8048 
  56   0.0000       1.986850        54.0649 
  57   0.0000       2.011750        54.7425 
  58   0.0000       2.043472        55.6057 
  59   0.0000       2.084774        56.7296 
  60   0.0000       2.289977        62.3135 
  61   0.0000       2.354089        64.0580 
  62   0.0000       2.494094        67.8678 
  63   0.0000       2.594443        70.5984 
  64   0.0000       2.636963        71.7554 
  65   0.0000       3.117843        84.8408 
  66   0.0000       3.124870        85.0320 
  67   0.0000       3.184560        86.6563 
  68   0.0000       3.186257        86.7025 
  69   0.0000       3.231039        87.9210 
  70   0.0000       3.322091        90.3987 
  71   0.0000       3.325240        90.4844 
  72   0.0000       3.422894        93.1417 
  73   0.0000       3.486315        94.8675 
  74   0.0000       3.564924        97.0065 
  75   0.0000       3.573975        97.2528 
  76   0.0000       3.634734        98.9061 
  77   0.0000       3.639563        99.0375 
  78   0.0000       3.656801        99.5066 
  79   0.0000       3.752379       102.1074 
  80   0.0000       3.870208       105.3137 
  81   0.0000       3.912377       106.4612 
  82   0.0000       3.954126       107.5973 
  83   0.0000       3.985517       108.4514 
  84   0.0000       4.049749       110.1993 
  85   0.0000       4.079734       111.0152 
  86   0.0000       4.137708       112.5928 
  87   0.0000       4.158556       113.1601 
  88   0.0000       4.308466       117.2393 
  89   0.0000       4.442897       120.8974 
  90   0.0000       4.665897       126.9655 
  91   0.0000       4.813522       130.9826 
  92   0.0000       5.131213       139.6274 
  93   0.0000       5.158104       140.3591 
  94   0.0000       5.361850       145.9034 
  95   0.0000       5.377341       146.3249 
  96   0.0000       5.510517       149.9488 
  97   0.0000       6.279974       170.8868 
  98   0.0000       6.402768       174.2282 
  99   0.0000       6.430456       174.9816 
 100   0.0000       6.433682       175.0694 
 101   0.0000       6.538528       177.9224 
 102   0.0000       6.562276       178.5686 
 103   0.0000       6.846707       186.3084 
 104   0.0000       7.094882       193.0615 
 105   0.0000      10.943642       297.7916 

                    ********************************
                    * MULLIKEN POPULATION ANALYSIS *
                    ********************************

-----------------------
MULLIKEN ATOMIC CHARGES
-----------------------
   0 P :    0.037218
   1 H :    0.048236
   2 H :    0.048236
   3 O :   -0.346138
   4 H :    0.212447
Sum of atomic charges:   -0.0000000

--------------------------------
MULLIKEN REDUCED ORBITAL CHARGES
--------------------------------
  0 P s       :     5.712895  s :     5.712895
      pz      :     3.089861  p :     8.927687
      px      :     3.101881
      py      :     2.735944
      dz2     :     0.093303  d :     0.287349
      dxz     :     0.005157
      dyz     :     0.048460
      dx2y2   :     0.093446
      dxy     :     0.046983
      f0      :     0.006885  f :     0.034852
      f+1     :     0.001324
      f-1     :     0.004205
      f+2     :     0.004843
      f-2     :     0.001004
      f+3     :     0.010228
      f-3     :     0.006363
  1 H s       :     0.924006  s :     0.924006
      pz      :     0.013087  p :     0.026717
      px      :     0.008754
      py      :     0.004876
      dz2     :     0.000336  d :     0.001041
      dxz     :     0.000409
      dyz     :     0.000293
      dx2y2   :     0.000001
      dxy     :     0.000002
  2 H s       :     0.924006  s :     0.924006
      pz      :     0.008777  p :     0.026717
      px      :     0.013064
      py      :     0.004876
      dz2     :     0.000087  d :     0.001041
      dxz     :     0.000415
      dyz     :     0.000002
      dx2y2   :     0.000244
      dxy     :     0.000293
  3 O s       :     3.735008  s :     3.735008
      pz      :     1.571870  p :     4.589355
      px      :     1.549975
      py      :     1.467509
      dz2     :     0.002765  d :     0.020993
      dxz     :     0.004261
      dyz     :     0.003802
      dx2y2   :     0.006376
      dxy     :     0.003789
      f0      :     0.000092  f :     0.000783
      f+1     :     0.000151
      f-1     :     0.000086
      f+2     :     0.000174
      f-2     :     0.000069
      f+3     :     0.000093
      f-3     :     0.000118
  4 H s       :     0.681383  s :     0.681383
      pz      :     0.035840  p :     0.097784
      px      :     0.035457
      py      :     0.026487
      dz2     :     0.002536  d :     0.008386
      dxz     :     0.002175
      dyz     :     0.001066
      dx2y2   :     0.001447
      dxy     :     0.001162


                     *******************************
                     * LOEWDIN POPULATION ANALYSIS *
                     *******************************

----------------------
LOEWDIN ATOMIC CHARGES
----------------------
   0 P :    0.232463
   1 H :   -0.114634
   2 H :   -0.114634
   3 O :    0.217477
   4 H :   -0.220671

-------------------------------
LOEWDIN REDUCED ORBITAL CHARGES
-------------------------------
  0 P s       :     5.225794  s :     5.225794
      pz      :     3.050398  p :     8.933270
      px      :     3.062120
      py      :     2.820752
      dz2     :     0.148898  d :     0.492808
      dxz     :     0.006278
      dyz     :     0.085724
      dx2y2   :     0.167666
      dxy     :     0.084241
      f0      :     0.022551  f :     0.115665
      f+1     :     0.004435
      f-1     :     0.015612
      f+2     :     0.014129
      f-2     :     0.003133
      f+3     :     0.031745
      f-3     :     0.024060
  1 H s       :     0.965901  s :     0.965901
      pz      :     0.085569  p :     0.136016
      px      :     0.030343
      py      :     0.020104
      dz2     :     0.006161  d :     0.012718
      dxz     :     0.003706
      dyz     :     0.002790
      dx2y2   :     0.000039
      dxy     :     0.000023
  2 H s       :     0.965901  s :     0.965901
      pz      :     0.029714  p :     0.136016
      px      :     0.086198
      py      :     0.020104
      dz2     :     0.001673  d :     0.012718
      dxz     :     0.003595
      dyz     :     0.000025
      dx2y2   :     0.004638
      dxy     :     0.002788
  3 O s       :     3.259840  s :     3.259840
      pz      :     1.515831  p :     4.466963
      px      :     1.504023
      py      :     1.447109
      dz2     :     0.006553  d :     0.052890
      dxz     :     0.010468
      dyz     :     0.008245
      dx2y2   :     0.019221
      dxy     :     0.008403
      f0      :     0.000307  f :     0.002831
      f+1     :     0.000417
      f-1     :     0.000412
      f+2     :     0.000484
      f-2     :     0.000186
      f+3     :     0.000346
      f-3     :     0.000680
  4 H s       :     0.730830  s :     0.730830
      pz      :     0.147189  p :     0.387970
      px      :     0.150050
      py      :     0.090731
      dz2     :     0.028515  d :     0.101871
      dxz     :     0.025844
      dyz     :     0.014561
      dx2y2   :     0.017059
      dxy     :     0.015892


                      *****************************
                      * MAYER POPULATION ANALYSIS *
                      *****************************

  NA   - Mulliken gross atomic population
  ZA   - Total nuclear charge
  QA   - Mulliken gross atomic charge
  VA   - Mayer's total valence
  BVA  - Mayer's bonded valence
  FA   - Mayer's free valence

  ATOM       NA         ZA         QA         VA         BVA        FA
  0 P     14.9628    15.0000     0.0372     3.1140     3.1140    -0.0000
  1 H      0.9518     1.0000     0.0482     0.9824     0.9824    -0.0000
  2 H      0.9518     1.0000     0.0482     0.9824     0.9824    -0.0000
  3 O      8.3461     8.0000    -0.3461     2.1806     2.1806     0.0000
  4 H      0.7876     1.0000     0.2124     1.0533     1.0533    -0.0000

  Mayer bond orders larger than 0.100000
B(  0-P ,  1-H ) :   0.9629 B(  0-P ,  2-H ) :   0.9629 B(  0-P ,  3-O ) :   1.1493 
B(  3-O ,  4-H ) :   1.0081 

-------
TIMINGS
-------

Total SCF time: 0 days 0 hours 0 min 5 sec 

Total time                  ....       5.312 sec
Sum of individual times     ....       5.095 sec  ( 95.9%)

Fock matrix formation       ....       4.039 sec  ( 76.0%)
  XC integration            ....       0.233 sec  (  5.8% of F)
    Basis function eval.    ....       0.073 sec  ( 31.3% of XC)
    Density eval.           ....       0.027 sec  ( 11.4% of XC)
    XC-Functional eval.     ....       0.013 sec  (  5.6% of XC)
    XC-Potential eval.      ....       0.038 sec  ( 16.1% of XC)
Diagonalization             ....       0.009 sec  (  0.2%)
Density matrix formation    ....       0.003 sec  (  0.0%)
Population analysis         ....       0.002 sec  (  0.0%)
Initial guess               ....       0.083 sec  (  1.6%)
Orbital Transformation      ....       0.000 sec  (  0.0%)
Orbital Orthonormalization  ....       0.000 sec  (  0.0%)
DIIS solution               ....       0.003 sec  (  0.1%)
SOSCF solution              ....       0.006 sec  (  0.1%)
Grid generation             ....       0.951 sec  ( 17.9%)

-------------------------   --------------------
FINAL SINGLE POINT ENERGY      -416.603043032775
-------------------------   --------------------


                            ***************************************
                            *     ORCA property calculations      *
                            ***************************************

                                    ---------------------
                                    Active property flags
                                    ---------------------
   (+) Dipole Moment


------------------------------------------------------------------------------
                       ORCA ELECTRIC PROPERTIES CALCULATION
------------------------------------------------------------------------------

Dipole Moment Calculation                       ... on
Quadrupole Moment Calculation                   ... off
Polarizability Calculation                      ... off
GBWName                                         ... PH2OH_cc-pvtz_.gbw
Electron density file                           ... PH2OH_cc-pvtz_.scfp
The origin for moment calculation is the CENTER OF MASS  = (-0.141456,  1.049520 -0.135201)

-------------
DIPOLE MOMENT
-------------
                                X             Y             Z
Electronic contribution:     -0.76115      -0.60582      -0.72749
Nuclear contribution   :      0.57117       0.55687       0.54592
                        -----------------------------------------
Total Dipole Moment    :     -0.18998      -0.04896      -0.18158
                        -----------------------------------------
Magnitude (a.u.)       :      0.26732
Magnitude (Debye)      :      0.67946



--------------------
Rotational spectrum 
--------------------
 
Rotational constants in cm-1:     3.740760     0.483188     0.479169 
Rotational constants in MHz : 112145.176126 14485.620170 14365.126502 

 Dipole components along the rotational axes: 
x,y,z [a.u.] :     0.034033     0.265141    -0.000000 
x,y,z [Debye]:     0.086505     0.673936    -0.000001 

 

Timings for individual modules:

Sum of individual times         ...        6.208 sec (=   0.103 min)
GTO integral calculation        ...        0.632 sec (=   0.011 min)  10.2 %
SCF iterations                  ...        5.576 sec (=   0.093 min)  89.8 %
                             ****ORCA TERMINATED NORMALLY****
TOTAL RUN TIME: 0 days 0 hours 0 minutes 6 seconds 540 msec
