
                                 *****************
                                 * O   R   C   A *
                                 *****************

           --- An Ab Initio, DFT and Semiempirical electronic structure package ---

                  #######################################################
                  #                        -***-                        #
                  #          Department of theory and spectroscopy      #
                  #               Directorship: Frank Neese             #
                  #        Max Planck Institute fuer Kohlenforschung    #
                  #                Kaiser Wilhelm Platz 1               #
                  #                 D-45470 Muelheim/Ruhr               #
                  #                      Germany                        #
                  #                                                     #
                  #                  All rights reserved                #
                  #                        -***-                        #
                  #######################################################


                         Program Version 4.2.1 -  RELEASE  -


 With contributions from (in alphabetic order):
   Daniel Aravena         : Magnetic Suceptibility
   Michael Atanasov       : Ab Initio Ligand Field Theory (pilot matlab implementation)
   Alexander A. Auer      : GIAO ZORA, VPT2
   Ute Becker             : Parallelization
   Giovanni Bistoni       : ED, misc. LED, open-shell LED, HFLD
   Martin Brehm           : Molecular dynamics
   Dmytro Bykov           : SCF Hessian
   Vijay G. Chilkuri      : MRCI spin determinant printing, contributions to CSF-ICE
   Dipayan Datta          : RHF DLPNO-CCSD density
   Achintya Kumar Dutta   : EOM-CC, STEOM-CC
   Dmitry Ganyushin       : Spin-Orbit,Spin-Spin,Magnetic field MRCI
   Miquel Garcia          : C-PCM Hessian, Gaussian charge scheme
   Yang Guo               : DLPNO-NEVPT2, CIM, IAO-localization
   Andreas Hansen         : Spin unrestricted coupled pair/coupled cluster methods
   Benjamin Helmich-Paris : CASSCF linear response (MC-RPA)
   Lee Huntington         : MR-EOM, pCC
   Robert Izsak           : Overlap fitted RIJCOSX, COSX-SCS-MP3, EOM
   Christian Kollmar      : KDIIS, OOCD, Brueckner-CCSD(T), CCSD density
   Simone Kossmann        : Meta GGA functionals, TD-DFT gradient, OOMP2, MP2 Hessian
   Martin Krupicka        : AUTO-CI
   Lucas Lang             : DCDCAS
   Dagmar Lenk            : GEPOL surface, SMD
   Dimitrios Liakos       : Extrapolation schemes; Compound Job, initial MDCI parallelization
   Dimitrios Manganas     : Further ROCIS development; embedding schemes
   Dimitrios Pantazis     : SARC Basis sets
   Taras Petrenko         : DFT Hessian,TD-DFT gradient, ASA, ECA, R-Raman, ABS, FL, XAS/XES, NRVS
   Peter Pinski           : DLPNO-MP2, DLPNO-MP2 Gradient
   Christoph Reimann      : Effective Core Potentials
   Marius Retegan         : Local ZFS, SOC
   Christoph Riplinger    : Optimizer, TS searches, QM/MM, DLPNO-CCSD(T), (RO)-DLPNO pert. Triples
   Tobias Risthaus        : Range-separated hybrids, TD-DFT gradient, RPA, STAB
   Michael Roemelt        : Original ROCIS implementation
   Masaaki Saitow         : Open-shell DLPNO-CCSD energy and density
   Barbara Sandhoefer     : DKH picture change effects
   Avijit Sen             : IP-ROCIS
   Kantharuban Sivalingam : CASSCF convergence, NEVPT2, FIC-MRCI
   Bernardo de Souza      : ESD, SOC TD-DFT
   Georgi Stoychev        : AutoAux, RI-MP2 NMR
   Willem Van den Heuvel  : Paramagnetic NMR
   Boris Wezisla          : Elementary symmetry handling
   Frank Wennmohs         : Technical directorship


 We gratefully acknowledge several colleagues who have allowed us to
 interface, adapt or use parts of their codes:
   Stefan Grimme, W. Hujo, H. Kruse,             : VdW corrections, initial TS optimization,
                  C. Bannwarth                     DFT functionals, gCP, sTDA/sTD-DF
   Ed Valeev, F. Pavosevic, A. Kumar             : LibInt (2-el integral package), F12 methods
   Garnet Chan, S. Sharma, J. Yang, R. Olivares  : DMRG
   Ulf Ekstrom                                   : XCFun DFT Library
   Mihaly Kallay                                 : mrcc  (arbitrary order and MRCC methods)
   Andreas Klamt, Michael Diedenhofen            : otool_cosmo (COSMO solvation model)
   Jiri Pittner, Ondrej Demel                    : Mk-CCSD
   Frank Weinhold                                : gennbo (NPA and NBO analysis)
   Christopher J. Cramer and Donald G. Truhlar   : smd solvation model
   Lars Goerigk                                  : TD-DFT with DH, B97 family of functionals
   V. Asgeirsson, H. Jonsson                     : NEB implementation
   FAccTs GmbH                                   : IRC, NEB, NEB-TS, Multilevel, MM, QM/MM, CI optimization
   S Lehtola, MJT Oliveira, MAL Marques          : LibXC Library


 Your calculation uses the libint2 library for the computation of 2-el integrals
 For citations please refer to: http://libint.valeyev.net

 Your ORCA version has been built with support for libXC version: 4.2.3
 For citations please refer to: https://tddft.org/programs/libxc/

 This ORCA versions uses:
   CBLAS   interface :  Fast vector & matrix operations
   LAPACKE interface :  Fast linear algebra routines
   SCALAPACK package :  Parallel linear algebra routines


----- Orbital basis set information -----
Your calculation utilizes the basis: ZORA-def2-QZVPP 
   Exponents from def2-QZVPP [F. Weigend and R. Ahlrichs, Phys. Chem. Chem. Phys. 7, 3297 (2005)],
   recontracted for ZORA by D. A. Pantazis.

================================================================================
                                        WARNINGS
                       Please study these warnings very carefully!
================================================================================


INFO   : the flag for use of LIBINT has been found!

================================================================================
                                       INPUT FILE
================================================================================
NAME = PH2OH_zora-def2-qzvpp_.inp
|  1> ! LDA zora-def2-qzvpp nori grid5 finalgrid6 verytightscf
|  2> %Pal NProcs 18 End
|  3> 
|  4> *xyz 0 1
|  5> P 0.0000000000 0.0000000000 0.0000000000
|  6> H 0.0000000000 0.0000000000 1.4141500000
|  7> H 1.4127052064 0.0000000000 -0.0639079205
|  8> O -0.2628101077 1.6275926322 -0.2511898901
|  9> H -0.9542069755 1.7138775927 -0.9120164663
| 10> **                         ****END OF INPUT****
================================================================================

                       ****************************
                       * Single Point Calculation *
                       ****************************

---------------------------------
CARTESIAN COORDINATES (ANGSTROEM)
---------------------------------
  P      0.000000    0.000000    0.000000
  H      0.000000    0.000000    1.414150
  H      1.412705    0.000000   -0.063908
  O     -0.262810    1.627593   -0.251190
  H     -0.954207    1.713878   -0.912016

----------------------------
CARTESIAN COORDINATES (A.U.)
----------------------------
  NO LB      ZA    FRAG     MASS         X           Y           Z
   0 P    15.0000    0    30.974    0.000000    0.000000    0.000000
   1 H     1.0000    0     1.008    0.000000    0.000000    2.672356
   2 H     1.0000    0     1.008    2.669626    0.000000   -0.120768
   3 O     8.0000    0    15.999   -0.496639    3.075704   -0.474680
   4 H     1.0000    0     1.008   -1.803190    3.238759   -1.723461

--------------------------------
INTERNAL COORDINATES (ANGSTROEM)
--------------------------------
 P      0   0   0     0.000000000000     0.00000000     0.00000000
 H      1   0   0     1.414150000000     0.00000000     0.00000000
 H      1   2   0     1.414149999997    92.59017900     0.00000000
 O      1   2   3     1.667699999997    98.66289000   260.82752600
 H      4   1   2     0.960295000000   107.74626300   226.99131300

---------------------------
INTERNAL COORDINATES (A.U.)
---------------------------
 P      0   0   0     0.000000000000     0.00000000     0.00000000
 H      1   0   0     2.672356212285     0.00000000     0.00000000
 H      1   2   0     2.672356212280    92.59017900     0.00000000
 O      1   2   3     3.151496273534    98.66289000   260.82752600
 H      4   1   2     1.814694557773   107.74626300   226.99131300

---------------------
BASIS SET INFORMATION
---------------------
There are 3 groups of distinct atoms

 Group   1 Type P   : 20s14p4d2f1g contracted to 11s7p4d2f1g pattern {101111111111/8111111/1111/11/1}
 Group   2 Type H   : 7s3p2d1f contracted to 4s3p2d1f pattern {4111/111/11/1}
 Group   3 Type O   : 15s8p3d2f1g contracted to 8s4p3d2f1g pattern {81111111/5111/111/11/1}

Atom   0P    basis set group =>   1
Atom   1H    basis set group =>   2
Atom   2H    basis set group =>   2
Atom   3O    basis set group =>   3
Atom   4H    basis set group =>   2


           ************************************************************
           *        Program running with 18 parallel MPI-processes    *
           *              working on a common directory               *
           ************************************************************
------------------------------------------------------------------------------
                           ORCA GTO INTEGRAL CALCULATION
------------------------------------------------------------------------------

                         BASIS SET STATISTICS AND STARTUP INFO

 # of primitive gaussian shells          ...  109
 # of primitive gaussian functions       ...  281
 # of contracted shells                  ...   73
 # of contracted basis functions         ...  223
 Highest angular momentum                ...    4
 Maximum contraction depth               ...   10
 Integral package used                   ... LIBINT
 Integral threshhold            Thresh   ...  1.000e-12
 Primitive cut-off              TCut     ...  1.000e-14


------------------------------ INTEGRAL EVALUATION ----------------------------


 * One electron integrals 
 Pre-screening matrix                    ... done
 Shell pair data                         ... done (   0.001 sec)



           ************************************************************
           *        Program running with 18 parallel MPI-processes    *
           *              working on a common directory               *
           ************************************************************
-------------------------------------------------------------------------------
                                 ORCA SCF
-------------------------------------------------------------------------------

------------
SCF SETTINGS
------------
Hamiltonian:
 Density Functional     Method          .... DFT(GTOs)
 Exchange Functional    Exchange        .... Slater
   X-Alpha parameter    XAlpha          ....  0.666667
 Correlation Functional Correlation     .... VWN-5
 Gradients option       PostSCFGGA      .... off
   Density functional embedding theory  .... OFF


General Settings:
 Integral files         IntName         .... PH2OH_zora-def2-qzvpp_
 Hartree-Fock type      HFTyp           .... RHF
 Total Charge           Charge          ....    0
 Multiplicity           Mult            ....    1
 Number of Electrons    NEL             ....   26
 Basis Dimension        Dim             ....  223
 Nuclear Repulsion      ENuc            ....     61.6006741189 Eh

Convergence Acceleration:
 DIIS                   CNVDIIS         .... on
   Start iteration      DIISMaxIt       ....    12
   Startup error        DIISStart       ....  0.200000
   # of expansion vecs  DIISMaxEq       ....     5
   Bias factor          DIISBfac        ....   1.050
   Max. coefficient     DIISMaxC        ....  10.000
 Newton-Raphson         CNVNR           .... off
 SOSCF                  CNVSOSCF        .... on
   Start iteration      SOSCFMaxIt      ....   150
   Startup grad/error   SOSCFStart      ....  0.003300
 Level Shifting         CNVShift        .... on
   Level shift para.    LevelShift      ....    0.2500
   Turn off err/grad.   ShiftErr        ....    0.0010
 Zerner damping         CNVZerner       .... off
 Static damping         CNVDamp         .... on
   Fraction old density DampFac         ....    0.7000
   Max. Damping (<1)    DampMax         ....    0.9800
   Min. Damping (>=0)   DampMin         ....    0.0000
   Turn off err/grad.   DampErr         ....    0.1000
 Fernandez-Rico         CNVRico         .... off

SCF Procedure:
 Maximum # iterations   MaxIter         ....   125
 SCF integral mode      SCFMode         .... Direct
   Integral package                     .... LIBINT
 Reset frequency        DirectResetFreq ....    20
 Integral Threshold     Thresh          ....  1.000e-12 Eh
 Primitive CutOff       TCut            ....  1.000e-14 Eh

Convergence Tolerance:
 Convergence Check Mode ConvCheckMode   .... Total+1el-Energy
 Convergence forced     ConvForced      .... 0
 Energy Change          TolE            ....  1.000e-09 Eh
 1-El. energy change                    ....  1.000e-06 Eh
 Orbital Gradient       TolG            ....  2.000e-06
 Orbital Rotation angle TolX            ....  2.000e-06
 DIIS Error             TolErr          ....  1.000e-08


Diagonalization of the overlap matrix:
Smallest eigenvalue                        ... 2.525e-04
Time for diagonalization                   ...    0.010 sec
Threshold for overlap eigenvalues          ... 1.000e-08
Number of eigenvalues below threshold      ... 0
Time for construction of square roots      ...    0.006 sec
Total time needed                          ...    0.016 sec

-------------------
DFT GRID GENERATION
-------------------

General Integration Accuracy     IntAcc      ...  5.010
Radial Grid Type                 RadialGrid  ... Gauss-Chebyshev
Angular Grid (max. acc.)         AngularGrid ... Lebedev-434
Angular grid pruning method      GridPruning ... 3 (G Style)
Weight generation scheme         WeightScheme... Becke
Basis function cutoff            BFCut       ...    1.0000e-12
Integration weight cutoff        WCut        ...    1.0000e-14
Grids for H and He will be reduced by one unit

# of grid points (after initial pruning)     ...  42550 (   0.0 sec)
# of grid points (after weights+screening)   ...  41637 (   0.0 sec)
nearest neighbour list constructed           ...    0.0 sec
Grid point re-assignment to atoms done       ...    0.0 sec
Grid point division into batches done        ...    0.2 sec
Reduced shell lists constructed in    0.2 sec

Total number of grid points                  ...    41637
Total number of batches                      ...      653
Average number of points per batch           ...       63
Average number of grid points per atom       ...     8327
Average number of shells per batch           ...    39.76 (54.47%)
Average number of basis functions per batch  ...   128.18 (57.48%)
Average number of large shells per batch     ...    31.42 (79.02%)
Average number of large basis fcns per batch ...    99.11 (77.31%)
Maximum spatial batch extension              ...  17.74, 17.40, 17.44 au
Average spatial batch extension              ...   0.22,  0.24,  0.22 au

Time for grid setup =    0.353 sec

------------------------------
INITIAL GUESS: MODEL POTENTIAL
------------------------------
Loading Hartree-Fock densities                     ... done
Calculating cut-offs                               ... done
Setting up the integral package                    ... done
Initializing the effective Hamiltonian             ... done
Starting the Coulomb interaction                   ... done (   0.0 sec)
Reading the grid                                   ... done
Mapping shells                                     ... done
Starting the XC term evaluation                    ... done (   0.0 sec)
  promolecular density results
     # of electrons  =     25.998536375
     EX              =    -29.048622791
     EC              =     -1.857157360
     EX+EC           =    -30.905780151
Transforming the Hamiltonian                       ... done (   0.0 sec)
Diagonalizing the Hamiltonian                      ... done (   0.0 sec)
Back transforming the eigenvectors                 ... done (   0.0 sec)
Now organizing SCF variables                       ... done
                      ------------------
                      INITIAL GUESS DONE (   0.4 sec)
                      ------------------
--------------
SCF ITERATIONS
--------------
ITER       Energy         Delta-E        Max-DP      RMS-DP      [F,P]     Damp
               ***  Starting incremental Fock matrix formation  ***
  0   -416.5405375522   0.000000000000 0.03963889  0.00070380  0.3016949 0.7000
  1   -416.5863054298  -0.045767877522 0.03441563  0.00043366  0.0742778 0.7000
                               ***Turning on DIIS***
  2   -416.5959841605  -0.009678730761 0.05532495  0.00062712  0.0233308 0.0000
  3   -416.6251294808  -0.029145320283 0.02532543  0.00031507  0.0254814 0.0000
  4   -416.6254846614  -0.000355180595 0.00815576  0.00011518  0.0376252 0.0000
  5   -416.6266097016  -0.001125040143 0.00229654  0.00003843  0.0089687 0.0000
                      *** Initiating the SOSCF procedure ***
                           *** Shutting down DIIS ***
                      *** Re-Reading the Fockian *** 
                      *** Removing any level shift *** 
ITER      Energy       Delta-E        Grad      Rot      Max-DP    RMS-DP
  6   -416.62672653  -0.0001168251  0.000456  0.000456  0.000526  0.000013
               *** Restarting incremental Fock matrix formation ***
  7   -416.62673907  -0.0000125482  0.000340  0.000721  0.000692  0.000014
  8   -416.62673446   0.0000046179  0.000738  0.000599  0.000447  0.000009
  9   -416.62674020  -0.0000057381  0.000040  0.000064  0.000164  0.000002
 10   -416.62674019   0.0000000084  0.000045  0.000039  0.000103  0.000001
 11   -416.62674023  -0.0000000406  0.000004  0.000009  0.000009  0.000000
 12   -416.62674023  -0.0000000000  0.000004  0.000005  0.000003  0.000000
                  ***Gradient check signals convergence***
              ***Rediagonalizing the Fockian in SOSCF/NRSCF***

               *****************************************************
               *                     SUCCESS                       *
               *           SCF CONVERGED AFTER  13 CYCLES          *
               *****************************************************

Setting up the final grid:

General Integration Accuracy     IntAcc      ...  5.340
Radial Grid Type                 RadialGrid  ... Gauss-Chebyshev
Angular Grid (max. acc.)         AngularGrid ... Lebedev-590
Angular grid pruning method      GridPruning ... 3 (G Style)
Weight generation scheme         WeightScheme... Becke
Basis function cutoff            BFCut       ...    1.0000e-12
Integration weight cutoff        WCut        ...    1.0000e-14
Grids for H and He will be reduced by one unit

# of grid points (after initial pruning)     ...  67380 (   0.0 sec)
# of grid points (after weights+screening)   ...  65798 (   0.0 sec)
nearest neighbour list constructed           ...    0.0 sec
Grid point re-assignment to atoms done       ...    0.0 sec
Grid point division into batches done        ...    0.6 sec
Reduced shell lists constructed in    0.6 sec

Total number of grid points                  ...    65798
Total number of batches                      ...     1031
Average number of points per batch           ...       63
Average number of grid points per atom       ...    13160
Average number of shells per batch           ...    37.93 (51.96%)
Average number of basis functions per batch  ...   121.93 (54.68%)
Average number of large shells per batch     ...    29.85 (78.69%)
Average number of large basis fcns per batch ...    93.27 (76.49%)
Maximum spatial batch extension              ...  15.70, 15.37, 15.70 au
Average spatial batch extension              ...   0.19,  0.20,  0.19 au

Final grid set up in    0.6 sec
Final integration                            ... done (   0.0 sec)
Change in XC energy                          ...    -0.000003671
Integrated number of electrons               ...    26.000000160
Previous integrated no of electrons          ...    26.000000551

----------------
TOTAL SCF ENERGY
----------------

Total Energy       :         -416.62674390 Eh          -11336.99006 eV

Components:
Nuclear Repulsion  :           61.60067412 Eh            1676.23956 eV
Electronic Energy  :         -478.22741802 Eh          -13013.22962 eV
One Electron Energy:         -699.76603881 Eh          -19041.60197 eV
Two Electron Energy:          221.53862079 Eh            6028.37235 eV

Virial components:
Potential Energy   :         -832.02840506 Eh          -22640.64393 eV
Kinetic Energy     :          415.40166116 Eh           11303.65387 eV
Virial Ratio       :            2.00294915


DFT components:
N(Alpha)           :       13.000000080200 electrons
N(Beta)            :       13.000000080200 electrons
N(Total)           :       26.000000160400 electrons
E(X)               :      -29.195423377172 Eh       
E(C)               :       -1.870214295264 Eh       
E(XC)              :      -31.065637672436 Eh       
DFET-embed. en.    :        0.000000000000 Eh       

---------------
SCF CONVERGENCE
---------------

  Last Energy change         ...   -3.0838e-10  Tolerance :   1.0000e-09
  Last MAX-Density change    ...    6.9400e-07  Tolerance :   1.0000e-08
  Last RMS-Density change    ...    2.0052e-08  Tolerance :   1.0000e-09
  Last Orbital Gradient      ...    2.9706e-07  Tolerance :   2.0000e-06
  Last Orbital Rotation      ...    8.9649e-07  Tolerance :   2.0000e-06

             **** THE GBW FILE WAS UPDATED (PH2OH_zora-def2-qzvpp_.gbw) ****
             **** DENSITY FILE WAS UPDATED (PH2OH_zora-def2-qzvpp_.scfp) ****
             **** ENERGY FILE WAS UPDATED (PH2OH_zora-def2-qzvpp_.en.tmp) ****
             **** THE GBW FILE WAS UPDATED (PH2OH_zora-def2-qzvpp_.gbw) ****
             **** DENSITY FILE WAS UPDATED (PH2OH_zora-def2-qzvpp_.scfp) ****
----------------
ORBITAL ENERGIES
----------------

  NO   OCC          E(Eh)            E(eV) 
   0   2.0000     -76.019238     -2068.5886 
   1   2.0000     -18.632510      -507.0164 
   2   2.0000      -6.290986      -171.1864 
   3   2.0000      -4.541405      -123.5779 
   4   2.0000      -4.537832      -123.4807 
   5   2.0000      -4.533638      -123.3666 
   6   2.0000      -0.940333       -25.5878 
   7   2.0000      -0.588882       -16.0243 
   8   2.0000      -0.444268       -12.0891 
   9   2.0000      -0.375570       -10.2198 
  10   2.0000      -0.374468       -10.1898 
  11   2.0000      -0.275427        -7.4947 
  12   2.0000      -0.228382        -6.2146 
  13   0.0000      -0.057501        -1.5647 
  14   0.0000      -0.001733        -0.0472 
  15   0.0000       0.008133         0.2213 
  16   0.0000       0.026188         0.7126 
  17   0.0000       0.097726         2.6593 
  18   0.0000       0.116863         3.1800 
  19   0.0000       0.130744         3.5577 
  20   0.0000       0.168114         4.5746 
  21   0.0000       0.180497         4.9116 
  22   0.0000       0.195218         5.3121 
  23   0.0000       0.210297         5.7225 
  24   0.0000       0.227393         6.1877 
  25   0.0000       0.260448         7.0871 
  26   0.0000       0.267967         7.2918 
  27   0.0000       0.295761         8.0481 
  28   0.0000       0.315690         8.5904 
  29   0.0000       0.345779         9.4091 
  30   0.0000       0.352657         9.5963 
  31   0.0000       0.424884        11.5617 
  32   0.0000       0.518011        14.0958 
  33   0.0000       0.578108        15.7311 
  34   0.0000       0.607259        16.5244 
  35   0.0000       0.634429        17.2637 
  36   0.0000       0.645733        17.5713 
  37   0.0000       0.665794        18.1172 
  38   0.0000       0.667301        18.1582 
  39   0.0000       0.685005        18.6399 
  40   0.0000       0.693452        18.8698 
  41   0.0000       0.729125        19.8405 
  42   0.0000       0.756850        20.5949 
  43   0.0000       0.768487        20.9116 
  44   0.0000       0.835615        22.7382 
  45   0.0000       0.867593        23.6084 
  46   0.0000       0.874616        23.7995 
  47   0.0000       0.934423        25.4269 
  48   0.0000       0.944565        25.7029 
  49   0.0000       0.950706        25.8700 
  50   0.0000       0.971691        26.4410 
  51   0.0000       0.985122        26.8065 
  52   0.0000       1.016697        27.6657 
  53   0.0000       1.041185        28.3321 
  54   0.0000       1.084234        29.5035 
  55   0.0000       1.130574        30.7645 
  56   0.0000       1.170978        31.8639 
  57   0.0000       1.178937        32.0805 
  58   0.0000       1.262569        34.3562 
  59   0.0000       1.271104        34.5885 
  60   0.0000       1.275694        34.7134 
  61   0.0000       1.331234        36.2247 
  62   0.0000       1.371304        37.3151 
  63   0.0000       1.406688        38.2779 
  64   0.0000       1.535315        41.7780 
  65   0.0000       1.565941        42.6114 
  66   0.0000       1.675474        45.5920 
  67   0.0000       1.816076        49.4179 
  68   0.0000       1.863259        50.7019 
  69   0.0000       1.903116        51.7864 
  70   0.0000       1.906482        51.8780 
  71   0.0000       1.940707        52.8093 
  72   0.0000       1.950422        53.0737 
  73   0.0000       1.966141        53.5014 
  74   0.0000       1.984205        53.9930 
  75   0.0000       2.069133        56.3040 
  76   0.0000       2.114209        57.5306 
  77   0.0000       2.153535        58.6007 
  78   0.0000       2.229834        60.6769 
  79   0.0000       2.251705        61.2720 
  80   0.0000       2.259940        61.4961 
  81   0.0000       2.305104        62.7251 
  82   0.0000       2.331774        63.4508 
  83   0.0000       2.379717        64.7554 
  84   0.0000       2.387685        64.9722 
  85   0.0000       2.422414        65.9172 
  86   0.0000       2.449259        66.6477 
  87   0.0000       2.473805        67.3157 
  88   0.0000       2.517953        68.5170 
  89   0.0000       2.522670        68.6454 
  90   0.0000       2.530321        68.8535 
  91   0.0000       2.589138        70.4540 
  92   0.0000       2.606418        70.9242 
  93   0.0000       2.619515        71.2806 
  94   0.0000       2.645536        71.9887 
  95   0.0000       2.733431        74.3804 
  96   0.0000       2.750444        74.8434 
  97   0.0000       2.805204        76.3335 
  98   0.0000       2.837493        77.2121 
  99   0.0000       2.865630        77.9778 
 100   0.0000       2.878079        78.3165 
 101   0.0000       2.928466        79.6876 
 102   0.0000       2.946818        80.1870 
 103   0.0000       2.972364        80.8821 
 104   0.0000       3.011741        81.9536 
 105   0.0000       3.073509        83.6344 
 106   0.0000       3.138778        85.4105 
 107   0.0000       3.192842        86.8816 
 108   0.0000       3.214438        87.4693 
 109   0.0000       3.263726        88.8105 
 110   0.0000       3.306768        89.9817 
 111   0.0000       3.455112        94.0184 
 112   0.0000       3.512814        95.5885 
 113   0.0000       3.515434        95.6598 
 114   0.0000       3.609981        98.2326 
 115   0.0000       3.658436        99.5511 
 116   0.0000       3.717276       101.1522 
 117   0.0000       3.786316       103.0309 
 118   0.0000       3.920391       106.6793 
 119   0.0000       3.951363       107.5221 
 120   0.0000       3.962156       107.8158 
 121   0.0000       4.001462       108.8853 
 122   0.0000       4.060479       110.4912 
 123   0.0000       4.118584       112.0724 
 124   0.0000       4.342302       118.1600 
 125   0.0000       4.391853       119.5084 
 126   0.0000       4.427569       120.4803 
 127   0.0000       4.441890       120.8700 
 128   0.0000       4.633633       126.0876 
 129   0.0000       5.048295       137.3711 
 130   0.0000       5.091499       138.5467 
 131   0.0000       5.443310       148.1200 
 132   0.0000       5.529524       150.4660 
 133   0.0000       5.707143       155.2992 
 134   0.0000       5.716711       155.5596 
 135   0.0000       5.731763       155.9692 
 136   0.0000       5.764142       156.8503 
 137   0.0000       5.788723       157.5192 
 138   0.0000       5.856953       159.3758 
 139   0.0000       5.918656       161.0548 
 140   0.0000       5.953234       161.9957 
 141   0.0000       6.045490       164.5062 
 142   0.0000       6.085208       165.5869 
 143   0.0000       6.201730       168.7577 
 144   0.0000       6.265758       170.4999 
 145   0.0000       6.345525       172.6705 
 146   0.0000       6.349527       172.7794 
 147   0.0000       6.387227       173.8053 
 148   0.0000       6.512620       177.2174 
 149   0.0000       6.556468       178.4106 
 150   0.0000       6.557290       178.4329 
 151   0.0000       6.592654       179.3952 
 152   0.0000       6.698887       182.2860 
 153   0.0000       6.803299       185.1272 
 154   0.0000       7.078440       192.6142 
 155   0.0000       7.118046       193.6919 
 156   0.0000       7.218374       196.4219 
 157   0.0000       7.282362       198.1631 
 158   0.0000       7.293742       198.4728 
 159   0.0000       7.338321       199.6859 
 160   0.0000       7.391175       201.1241 
 161   0.0000       7.443477       202.5473 
 162   0.0000       7.486205       203.7100 
 163   0.0000       7.632905       207.7019 
 164   0.0000       7.755457       211.0367 
 165   0.0000       7.808141       212.4703 
 166   0.0000       7.808847       212.4895 
 167   0.0000       7.863220       213.9691 
 168   0.0000       7.864668       214.0085 
 169   0.0000       7.918042       215.4609 
 170   0.0000       7.926238       215.6839 
 171   0.0000       7.999567       217.6793 
 172   0.0000       8.111720       220.7311 
 173   0.0000       8.122980       221.0375 
 174   0.0000       8.194338       222.9793 
 175   0.0000       8.361641       227.5318 
 176   0.0000       8.479235       230.7317 
 177   0.0000       8.492235       231.0855 
 178   0.0000       8.517947       231.7851 
 179   0.0000       8.616339       234.4625 
 180   0.0000       8.647553       235.3119 
 181   0.0000       8.736394       237.7294 
 182   0.0000       8.782220       238.9764 
 183   0.0000       8.807624       239.6676 
 184   0.0000       8.901696       242.2275 
 185   0.0000       8.925086       242.8639 
 186   0.0000       9.077356       247.0074 
 187   0.0000       9.221118       250.9194 
 188   0.0000       9.652962       262.6705 
 189   0.0000       9.932292       270.2714 
 190   0.0000      10.051764       273.5224 
 191   0.0000      10.069925       274.0166 
 192   0.0000      10.280450       279.7453 
 193   0.0000      10.635962       289.4193 
 194   0.0000      10.815624       294.3081 
 195   0.0000      11.040927       300.4389 
 196   0.0000      11.078671       301.4660 
 197   0.0000      11.142097       303.1919 
 198   0.0000      11.357222       309.0457 
 199   0.0000      11.586182       315.2760 
 200   0.0000      11.626622       316.3765 
 201   0.0000      11.857834       322.6681 
 202   0.0000      12.124341       329.9201 
 203   0.0000      12.172453       331.2293 
 204   0.0000      12.239822       333.0625 
 205   0.0000      13.669806       371.9743 
 206   0.0000      13.678369       372.2074 
 207   0.0000      13.748916       374.1270 
 208   0.0000      13.863393       377.2421 
 209   0.0000      13.951772       379.6470 
 210   0.0000      14.345428       390.3589 
 211   0.0000      16.451605       447.6709 
 212   0.0000      20.034655       545.1707 
 213   0.0000      45.920491      1249.5601 
 214   0.0000      64.441914      1753.5536 
 215   0.0000      95.718919      2604.6442 
 216   0.0000      95.773519      2606.1300 
 217   0.0000      95.975398      2611.6234 
 218   0.0000     171.050489      4654.5204 
 219   0.0000     203.402591      5534.8659 
 220   0.0000     691.909825     18827.8235 
 221   0.0000     873.608477     23772.0952 
 222   0.0000    3410.092562     92793.3361 

                    ********************************
                    * MULLIKEN POPULATION ANALYSIS *
                    ********************************

-----------------------
MULLIKEN ATOMIC CHARGES
-----------------------
   0 P :    0.172813
   1 H :    0.004293
   2 H :    0.004303
   3 O :   -0.332224
   4 H :    0.150815
Sum of atomic charges:   -0.0000000

--------------------------------
MULLIKEN REDUCED ORBITAL CHARGES
--------------------------------
  0 P s       :     5.724514  s :     5.724514
      pz      :     3.051880  p :     8.785995
      px      :     3.065253
      py      :     2.668862
      dz2     :     0.091103  d :     0.276702
      dxz     :     0.005511
      dyz     :     0.045269
      dx2y2   :     0.091225
      dxy     :     0.043594
      f0      :     0.005642  f :     0.035433
      f+1     :     0.000661
      f-1     :     0.005721
      f+2     :     0.004605
      f-2     :     0.001247
      f+3     :     0.009277
      f-3     :     0.008280
      g0      :     0.000445  g :     0.004544
      g+1     :     0.000044
      g-1     :     0.000654
      g+2     :     0.000576
      g-2     :     0.000145
      g+3     :     0.000289
      g-3     :     0.000476
      g+4     :     0.000956
      g-4     :     0.000959
  1 H s       :     0.957911  s :     0.957911
      pz      :     0.017608  p :     0.034964
      px      :     0.010363
      py      :     0.006993
      dz2     :     0.000742  d :     0.002733
      dxz     :     0.000969
      dyz     :     0.000889
      dx2y2   :     0.000089
      dxy     :     0.000044
      f0      :     0.000014  f :     0.000099
      f+1     :     0.000040
      f-1     :     0.000035
      f+2     :     0.000007
      f-2     :     0.000003
      f+3     :     0.000001
      f-3     :     0.000000
  2 H s       :     0.957904  s :     0.957904
      pz      :     0.010290  p :     0.034961
      px      :     0.017679
      py      :     0.006992
      dz2     :     0.000262  d :     0.002732
      dxz     :     0.000964
      dyz     :     0.000036
      dx2y2   :     0.000572
      dxy     :     0.000898
      f0      :     0.000013  f :     0.000099
      f+1     :     0.000010
      f-1     :     0.000003
      f+2     :     0.000028
      f-2     :     0.000002
      f+3     :     0.000011
      f-3     :     0.000032
  3 O s       :     3.758536  s :     3.758536
      pz      :     1.534454  p :     4.550862
      px      :     1.510375
      py      :     1.506034
      dz2     :     0.003090  d :     0.021487
      dxz     :     0.001188
      dyz     :     0.005202
      dx2y2   :     0.006816
      dxy     :     0.005191
      f0      :     0.000178  f :     0.001300
      f+1     :     0.000002
      f-1     :     0.000267
      f+2     :     0.000094
      f-2     :     0.000112
      f+3     :     0.000267
      f-3     :     0.000380
      g0      :     0.000001  g :     0.000039
      g+1     :    -0.000001
      g-1     :     0.000005
      g+2     :     0.000006
      g-2     :     0.000002
      g+3     :     0.000001
      g-3     :     0.000006
      g+4     :     0.000009
      g-4     :     0.000009
  4 H s       :     0.719262  s :     0.719262
      pz      :     0.039868  p :     0.110662
      px      :     0.039109
      py      :     0.031685
      dz2     :     0.006306  d :     0.017278
      dxz     :     0.001910
      dyz     :     0.002950
      dx2y2   :     0.002896
      dxy     :     0.003217
      f0      :     0.000332  f :     0.001983
      f+1     :     0.000533
      f-1     :     0.000090
      f+2     :     0.000278
      f-2     :     0.000430
      f+3     :     0.000154
      f-3     :     0.000167


                     *******************************
                     * LOEWDIN POPULATION ANALYSIS *
                     *******************************

----------------------
LOEWDIN ATOMIC CHARGES
----------------------
   0 P :    0.283238
   1 H :   -0.163452
   2 H :   -0.163452
   3 O :    0.458570
   4 H :   -0.414903

-------------------------------
LOEWDIN REDUCED ORBITAL CHARGES
-------------------------------
  0 P s       :     5.039172  s :     5.039172
      pz      :     3.012259  p :     8.824291
      px      :     3.023320
      py      :     2.788712
      dz2     :     0.176326  d :     0.593774
      dxz     :     0.007961
      dyz     :     0.104115
      dx2y2   :     0.202342
      dxy     :     0.103030
      f0      :     0.043277  f :     0.224630
      f+1     :     0.008345
      f-1     :     0.030169
      f+2     :     0.027067
      f-2     :     0.008195
      f+3     :     0.061149
      f-3     :     0.046428
      g0      :     0.002875  g :     0.034895
      g+1     :     0.000500
      g-1     :     0.004553
      g+2     :     0.005157
      g-2     :     0.001290
      g+3     :     0.002244
      g-3     :     0.003852
      g+4     :     0.007470
      g-4     :     0.006954
  1 H s       :     0.941443  s :     0.941443
      pz      :     0.103772  p :     0.180979
      px      :     0.046985
      py      :     0.030222
      dz2     :     0.016176  d :     0.038566
      dxz     :     0.012868
      dyz     :     0.009121
      dx2y2   :     0.000260
      dxy     :     0.000141
      f0      :     0.001051  f :     0.002465
      f+1     :     0.000758
      f-1     :     0.000574
      f+2     :     0.000058
      f-2     :     0.000023
      f+3     :     0.000001
      f-3     :     0.000000
  2 H s       :     0.941443  s :     0.941443
      pz      :     0.045938  p :     0.180978
      px      :     0.104819
      py      :     0.030221
      dz2     :     0.004644  d :     0.038566
      dxz     :     0.012398
      dyz     :     0.000117
      dx2y2   :     0.012262
      dxy     :     0.009146
      f0      :     0.000254  f :     0.002465
      f+1     :     0.000469
      f-1     :     0.000037
      f+2     :     0.000458
      f-2     :     0.000018
      f+3     :     0.000686
      f-3     :     0.000543
  3 O s       :     3.109726  s :     3.109726
      pz      :     1.447879  p :     4.318821
      px      :     1.440461
      py      :     1.430481
      dz2     :     0.012500  d :     0.100560
      dxz     :     0.015479
      dyz     :     0.018907
      dx2y2   :     0.034361
      dxy     :     0.019312
      f0      :     0.000991  f :     0.011931
      f+1     :     0.001388
      f-1     :     0.001962
      f+2     :     0.002214
      f-2     :     0.000577
      f+3     :     0.001760
      f-3     :     0.003039
      g0      :     0.000041  g :     0.000393
      g+1     :     0.000090
      g-1     :     0.000014
      g+2     :     0.000050
      g-2     :     0.000034
      g+3     :     0.000039
      g-3     :     0.000048
      g+4     :     0.000055
      g-4     :     0.000023
  4 H s       :     0.702720  s :     0.702720
      pz      :     0.177113  p :     0.472505
      px      :     0.180992
      py      :     0.114400
      dz2     :     0.056557  d :     0.199421
      dxz     :     0.045508
      dyz     :     0.030803
      dx2y2   :     0.032925
      dxy     :     0.033628
      f0      :     0.006578  f :     0.040258
      f+1     :     0.010741
      f-1     :     0.001790
      f+2     :     0.005886
      f-2     :     0.008635
      f+3     :     0.003207
      f-3     :     0.003420


                      *****************************
                      * MAYER POPULATION ANALYSIS *
                      *****************************

  NA   - Mulliken gross atomic population
  ZA   - Total nuclear charge
  QA   - Mulliken gross atomic charge
  VA   - Mayer's total valence
  BVA  - Mayer's bonded valence
  FA   - Mayer's free valence

  ATOM       NA         ZA         QA         VA         BVA        FA
  0 P     14.8272    15.0000     0.1728     3.0597     3.0597    -0.0000
  1 H      0.9957     1.0000     0.0043     1.0028     1.0028    -0.0000
  2 H      0.9957     1.0000     0.0043     1.0028     1.0028     0.0000
  3 O      8.3322     8.0000    -0.3322     2.1211     2.1211    -0.0000
  4 H      0.8492     1.0000     0.1508     1.1027     1.1027    -0.0000

  Mayer bond orders larger than 0.100000
B(  0-P ,  1-H ) :   0.9806 B(  0-P ,  2-H ) :   0.9806 B(  0-P ,  3-O ) :   1.0541 
B(  3-O ,  4-H ) :   1.0495 

-------
TIMINGS
-------

Total SCF time: 0 days 0 hours 0 min 10 sec 

Total time                  ....      10.545 sec
Sum of individual times     ....      10.307 sec  ( 97.7%)

Fock matrix formation       ....       9.108 sec  ( 86.4%)
  XC integration            ....       0.393 sec  (  4.3% of F)
    Basis function eval.    ....       0.071 sec  ( 18.1% of XC)
    Density eval.           ....       0.072 sec  ( 18.4% of XC)
    XC-Functional eval.     ....       0.013 sec  (  3.4% of XC)
    XC-Potential eval.      ....       0.119 sec  ( 30.4% of XC)
Diagonalization             ....       0.049 sec  (  0.5%)
Density matrix formation    ....       0.009 sec  (  0.1%)
Population analysis         ....       0.006 sec  (  0.1%)
Initial guess               ....       0.096 sec  (  0.9%)
Orbital Transformation      ....       0.000 sec  (  0.0%)
Orbital Orthonormalization  ....       0.000 sec  (  0.0%)
DIIS solution               ....       0.022 sec  (  0.2%)
SOSCF solution              ....       0.041 sec  (  0.4%)
Grid generation             ....       0.975 sec  (  9.2%)

-------------------------   --------------------
FINAL SINGLE POINT ENERGY      -416.626743899086
-------------------------   --------------------


                            ***************************************
                            *     ORCA property calculations      *
                            ***************************************

                                    ---------------------
                                    Active property flags
                                    ---------------------
   (+) Dipole Moment


------------------------------------------------------------------------------
                       ORCA ELECTRIC PROPERTIES CALCULATION
------------------------------------------------------------------------------

Dipole Moment Calculation                       ... on
Quadrupole Moment Calculation                   ... off
Polarizability Calculation                      ... off
GBWName                                         ... PH2OH_zora-def2-qzvpp_.gbw
Electron density file                           ... PH2OH_zora-def2-qzvpp_.scfp
The origin for moment calculation is the CENTER OF MASS  = (-0.141456,  1.049520 -0.135201)

-------------
DIPOLE MOMENT
-------------
                                X             Y             Z
Electronic contribution:     -0.75741      -0.60911      -0.72392
Nuclear contribution   :      0.57117       0.55687       0.54592
                        -----------------------------------------
Total Dipole Moment    :     -0.18624      -0.05224      -0.17801
                        -----------------------------------------
Magnitude (a.u.)       :      0.26287
Magnitude (Debye)      :      0.66816



--------------------
Rotational spectrum 
--------------------
 
Rotational constants in cm-1:     3.740760     0.483188     0.479169 
Rotational constants in MHz : 112145.176126 14485.620170 14365.126502 

 Dipole components along the rotational axes: 
x,y,z [a.u.] :     0.029321     0.261229    -0.000000 
x,y,z [Debye]:     0.074527     0.663991    -0.000000 

 

Timings for individual modules:

Sum of individual times         ...       11.374 sec (=   0.190 min)
GTO integral calculation        ...        0.571 sec (=   0.010 min)   5.0 %
SCF iterations                  ...       10.803 sec (=   0.180 min)  95.0 %
                             ****ORCA TERMINATED NORMALLY****
TOTAL RUN TIME: 0 days 0 hours 0 minutes 11 seconds 706 msec
