
                                 *****************
                                 * O   R   C   A *
                                 *****************

           --- An Ab Initio, DFT and Semiempirical electronic structure package ---

                  #######################################################
                  #                        -***-                        #
                  #          Department of theory and spectroscopy      #
                  #               Directorship: Frank Neese             #
                  #        Max Planck Institute fuer Kohlenforschung    #
                  #                Kaiser Wilhelm Platz 1               #
                  #                 D-45470 Muelheim/Ruhr               #
                  #                      Germany                        #
                  #                                                     #
                  #                  All rights reserved                #
                  #                        -***-                        #
                  #######################################################


                         Program Version 4.2.1 -  RELEASE  -


 With contributions from (in alphabetic order):
   Daniel Aravena         : Magnetic Suceptibility
   Michael Atanasov       : Ab Initio Ligand Field Theory (pilot matlab implementation)
   Alexander A. Auer      : GIAO ZORA, VPT2
   Ute Becker             : Parallelization
   Giovanni Bistoni       : ED, misc. LED, open-shell LED, HFLD
   Martin Brehm           : Molecular dynamics
   Dmytro Bykov           : SCF Hessian
   Vijay G. Chilkuri      : MRCI spin determinant printing, contributions to CSF-ICE
   Dipayan Datta          : RHF DLPNO-CCSD density
   Achintya Kumar Dutta   : EOM-CC, STEOM-CC
   Dmitry Ganyushin       : Spin-Orbit,Spin-Spin,Magnetic field MRCI
   Miquel Garcia          : C-PCM Hessian, Gaussian charge scheme
   Yang Guo               : DLPNO-NEVPT2, CIM, IAO-localization
   Andreas Hansen         : Spin unrestricted coupled pair/coupled cluster methods
   Benjamin Helmich-Paris : CASSCF linear response (MC-RPA)
   Lee Huntington         : MR-EOM, pCC
   Robert Izsak           : Overlap fitted RIJCOSX, COSX-SCS-MP3, EOM
   Christian Kollmar      : KDIIS, OOCD, Brueckner-CCSD(T), CCSD density
   Simone Kossmann        : Meta GGA functionals, TD-DFT gradient, OOMP2, MP2 Hessian
   Martin Krupicka        : AUTO-CI
   Lucas Lang             : DCDCAS
   Dagmar Lenk            : GEPOL surface, SMD
   Dimitrios Liakos       : Extrapolation schemes; Compound Job, initial MDCI parallelization
   Dimitrios Manganas     : Further ROCIS development; embedding schemes
   Dimitrios Pantazis     : SARC Basis sets
   Taras Petrenko         : DFT Hessian,TD-DFT gradient, ASA, ECA, R-Raman, ABS, FL, XAS/XES, NRVS
   Peter Pinski           : DLPNO-MP2, DLPNO-MP2 Gradient
   Christoph Reimann      : Effective Core Potentials
   Marius Retegan         : Local ZFS, SOC
   Christoph Riplinger    : Optimizer, TS searches, QM/MM, DLPNO-CCSD(T), (RO)-DLPNO pert. Triples
   Tobias Risthaus        : Range-separated hybrids, TD-DFT gradient, RPA, STAB
   Michael Roemelt        : Original ROCIS implementation
   Masaaki Saitow         : Open-shell DLPNO-CCSD energy and density
   Barbara Sandhoefer     : DKH picture change effects
   Avijit Sen             : IP-ROCIS
   Kantharuban Sivalingam : CASSCF convergence, NEVPT2, FIC-MRCI
   Bernardo de Souza      : ESD, SOC TD-DFT
   Georgi Stoychev        : AutoAux, RI-MP2 NMR
   Willem Van den Heuvel  : Paramagnetic NMR
   Boris Wezisla          : Elementary symmetry handling
   Frank Wennmohs         : Technical directorship


 We gratefully acknowledge several colleagues who have allowed us to
 interface, adapt or use parts of their codes:
   Stefan Grimme, W. Hujo, H. Kruse,             : VdW corrections, initial TS optimization,
                  C. Bannwarth                     DFT functionals, gCP, sTDA/sTD-DF
   Ed Valeev, F. Pavosevic, A. Kumar             : LibInt (2-el integral package), F12 methods
   Garnet Chan, S. Sharma, J. Yang, R. Olivares  : DMRG
   Ulf Ekstrom                                   : XCFun DFT Library
   Mihaly Kallay                                 : mrcc  (arbitrary order and MRCC methods)
   Andreas Klamt, Michael Diedenhofen            : otool_cosmo (COSMO solvation model)
   Jiri Pittner, Ondrej Demel                    : Mk-CCSD
   Frank Weinhold                                : gennbo (NPA and NBO analysis)
   Christopher J. Cramer and Donald G. Truhlar   : smd solvation model
   Lars Goerigk                                  : TD-DFT with DH, B97 family of functionals
   V. Asgeirsson, H. Jonsson                     : NEB implementation
   FAccTs GmbH                                   : IRC, NEB, NEB-TS, Multilevel, MM, QM/MM, CI optimization
   S Lehtola, MJT Oliveira, MAL Marques          : LibXC Library


 Your calculation uses the libint2 library for the computation of 2-el integrals
 For citations please refer to: http://libint.valeyev.net

 Your ORCA version has been built with support for libXC version: 4.2.3
 For citations please refer to: https://tddft.org/programs/libxc/

 This ORCA versions uses:
   CBLAS   interface :  Fast vector & matrix operations
   LAPACKE interface :  Fast linear algebra routines
   SCALAPACK package :  Parallel linear algebra routines


----- Orbital basis set information -----
Your calculation utilizes the basis: ZORA-def2-TZVP 
   Exponents from def2-TZVP [F. Weigend and R. Ahlrichs, Phys. Chem. Chem. Phys. 7, 3297 (2005)],
   recontracted for ZORA by D. A. Pantazis.

================================================================================
                                        WARNINGS
                       Please study these warnings very carefully!
================================================================================


INFO   : the flag for use of LIBINT has been found!

================================================================================
                                       INPUT FILE
================================================================================
NAME = PH2OH_zora-def2-tzvp_.inp
|  1> ! LDA zora-def2-tzvp nori grid5 finalgrid6 verytightscf
|  2> %Pal NProcs 18 End
|  3> 
|  4> *xyz 0 1
|  5> P 0.0000000000 0.0000000000 0.0000000000
|  6> H 0.0000000000 0.0000000000 1.4141500000
|  7> H 1.4127052064 0.0000000000 -0.0639079205
|  8> O -0.2628101077 1.6275926322 -0.2511898901
|  9> H -0.9542069755 1.7138775927 -0.9120164663
| 10> **                         ****END OF INPUT****
================================================================================

                       ****************************
                       * Single Point Calculation *
                       ****************************

---------------------------------
CARTESIAN COORDINATES (ANGSTROEM)
---------------------------------
  P      0.000000    0.000000    0.000000
  H      0.000000    0.000000    1.414150
  H      1.412705    0.000000   -0.063908
  O     -0.262810    1.627593   -0.251190
  H     -0.954207    1.713878   -0.912016

----------------------------
CARTESIAN COORDINATES (A.U.)
----------------------------
  NO LB      ZA    FRAG     MASS         X           Y           Z
   0 P    15.0000    0    30.974    0.000000    0.000000    0.000000
   1 H     1.0000    0     1.008    0.000000    0.000000    2.672356
   2 H     1.0000    0     1.008    2.669626    0.000000   -0.120768
   3 O     8.0000    0    15.999   -0.496639    3.075704   -0.474680
   4 H     1.0000    0     1.008   -1.803190    3.238759   -1.723461

--------------------------------
INTERNAL COORDINATES (ANGSTROEM)
--------------------------------
 P      0   0   0     0.000000000000     0.00000000     0.00000000
 H      1   0   0     1.414150000000     0.00000000     0.00000000
 H      1   2   0     1.414149999997    92.59017900     0.00000000
 O      1   2   3     1.667699999997    98.66289000   260.82752600
 H      4   1   2     0.960295000000   107.74626300   226.99131300

---------------------------
INTERNAL COORDINATES (A.U.)
---------------------------
 P      0   0   0     0.000000000000     0.00000000     0.00000000
 H      1   0   0     2.672356212285     0.00000000     0.00000000
 H      1   2   0     2.672356212280    92.59017900     0.00000000
 O      1   2   3     3.151496273534    98.66289000   260.82752600
 H      4   1   2     1.814694557773   107.74626300   226.99131300

---------------------
BASIS SET INFORMATION
---------------------
There are 3 groups of distinct atoms

 Group   1 Type P   : 14s9p3d1f contracted to 8s4p2d1f pattern {71111111/6111/21/1}
 Group   2 Type H   : 5s1p contracted to 3s1p pattern {311/1}
 Group   3 Type O   : 11s6p2d1f contracted to 6s3p2d1f pattern {611111/411/11/1}

Atom   0P    basis set group =>   1
Atom   1H    basis set group =>   2
Atom   2H    basis set group =>   2
Atom   3O    basis set group =>   3
Atom   4H    basis set group =>   2


           ************************************************************
           *        Program running with 18 parallel MPI-processes    *
           *              working on a common directory               *
           ************************************************************
------------------------------------------------------------------------------
                           ORCA GTO INTEGRAL CALCULATION
------------------------------------------------------------------------------

                         BASIS SET STATISTICS AND STARTUP INFO

 # of primitive gaussian shells          ...   65
 # of primitive gaussian functions       ...  133
 # of contracted shells                  ...   39
 # of contracted basis functions         ...   87
 Highest angular momentum                ...    3
 Maximum contraction depth               ...    7
 Integral package used                   ... LIBINT
 Integral threshhold            Thresh   ...  1.000e-12
 Primitive cut-off              TCut     ...  1.000e-14


------------------------------ INTEGRAL EVALUATION ----------------------------


 * One electron integrals 
 Pre-screening matrix                    ... done
 Shell pair data                         ... done (   0.000 sec)



           ************************************************************
           *        Program running with 18 parallel MPI-processes    *
           *              working on a common directory               *
           ************************************************************
-------------------------------------------------------------------------------
                                 ORCA SCF
-------------------------------------------------------------------------------

------------
SCF SETTINGS
------------
Hamiltonian:
 Density Functional     Method          .... DFT(GTOs)
 Exchange Functional    Exchange        .... Slater
   X-Alpha parameter    XAlpha          ....  0.666667
 Correlation Functional Correlation     .... VWN-5
 Gradients option       PostSCFGGA      .... off
   Density functional embedding theory  .... OFF


General Settings:
 Integral files         IntName         .... PH2OH_zora-def2-tzvp_
 Hartree-Fock type      HFTyp           .... RHF
 Total Charge           Charge          ....    0
 Multiplicity           Mult            ....    1
 Number of Electrons    NEL             ....   26
 Basis Dimension        Dim             ....   87
 Nuclear Repulsion      ENuc            ....     61.6006741189 Eh

Convergence Acceleration:
 DIIS                   CNVDIIS         .... on
   Start iteration      DIISMaxIt       ....    12
   Startup error        DIISStart       ....  0.200000
   # of expansion vecs  DIISMaxEq       ....     5
   Bias factor          DIISBfac        ....   1.050
   Max. coefficient     DIISMaxC        ....  10.000
 Newton-Raphson         CNVNR           .... off
 SOSCF                  CNVSOSCF        .... on
   Start iteration      SOSCFMaxIt      ....   150
   Startup grad/error   SOSCFStart      ....  0.003300
 Level Shifting         CNVShift        .... on
   Level shift para.    LevelShift      ....    0.2500
   Turn off err/grad.   ShiftErr        ....    0.0010
 Zerner damping         CNVZerner       .... off
 Static damping         CNVDamp         .... on
   Fraction old density DampFac         ....    0.7000
   Max. Damping (<1)    DampMax         ....    0.9800
   Min. Damping (>=0)   DampMin         ....    0.0000
   Turn off err/grad.   DampErr         ....    0.1000
 Fernandez-Rico         CNVRico         .... off

SCF Procedure:
 Maximum # iterations   MaxIter         ....   125
 SCF integral mode      SCFMode         .... Direct
   Integral package                     .... LIBINT
 Reset frequency        DirectResetFreq ....    20
 Integral Threshold     Thresh          ....  1.000e-12 Eh
 Primitive CutOff       TCut            ....  1.000e-14 Eh

Convergence Tolerance:
 Convergence Check Mode ConvCheckMode   .... Total+1el-Energy
 Convergence forced     ConvForced      .... 0
 Energy Change          TolE            ....  1.000e-09 Eh
 1-El. energy change                    ....  1.000e-06 Eh
 Orbital Gradient       TolG            ....  2.000e-06
 Orbital Rotation angle TolX            ....  2.000e-06
 DIIS Error             TolErr          ....  1.000e-08


Diagonalization of the overlap matrix:
Smallest eigenvalue                        ... 3.306e-03
Time for diagonalization                   ...    0.002 sec
Threshold for overlap eigenvalues          ... 1.000e-08
Number of eigenvalues below threshold      ... 0
Time for construction of square roots      ...    0.001 sec
Total time needed                          ...    0.003 sec

-------------------
DFT GRID GENERATION
-------------------

General Integration Accuracy     IntAcc      ...  5.010
Radial Grid Type                 RadialGrid  ... Gauss-Chebyshev
Angular Grid (max. acc.)         AngularGrid ... Lebedev-434
Angular grid pruning method      GridPruning ... 3 (G Style)
Weight generation scheme         WeightScheme... Becke
Basis function cutoff            BFCut       ...    1.0000e-12
Integration weight cutoff        WCut        ...    1.0000e-14
Grids for H and He will be reduced by one unit

# of grid points (after initial pruning)     ...  42550 (   0.0 sec)
# of grid points (after weights+screening)   ...  41637 (   0.0 sec)
nearest neighbour list constructed           ...    0.0 sec
Grid point re-assignment to atoms done       ...    0.0 sec
Grid point division into batches done        ...    0.3 sec
Reduced shell lists constructed in    0.3 sec

Total number of grid points                  ...    41637
Total number of batches                      ...      653
Average number of points per batch           ...       63
Average number of grid points per atom       ...     8327
Average number of shells per batch           ...    23.13 (59.31%)
Average number of basis functions per batch  ...    55.50 (63.79%)
Average number of large shells per batch     ...    18.97 (82.03%)
Average number of large basis fcns per batch ...    45.71 (82.36%)
Maximum spatial batch extension              ...  17.74, 17.40, 17.44 au
Average spatial batch extension              ...   0.22,  0.24,  0.22 au

Time for grid setup =    0.307 sec

------------------------------
INITIAL GUESS: MODEL POTENTIAL
------------------------------
Loading Hartree-Fock densities                     ... done
Calculating cut-offs                               ... done
Setting up the integral package                    ... done
Initializing the effective Hamiltonian             ... done
Starting the Coulomb interaction                   ... done (   0.0 sec)
Reading the grid                                   ... done
Mapping shells                                     ... done
Starting the XC term evaluation                    ... done (   0.0 sec)
  promolecular density results
     # of electrons  =     25.998536375
     EX              =    -29.048622791
     EC              =     -1.857157360
     EX+EC           =    -30.905780151
Transforming the Hamiltonian                       ... done (   0.0 sec)
Diagonalizing the Hamiltonian                      ... done (   0.0 sec)
Back transforming the eigenvectors                 ... done (   0.0 sec)
Now organizing SCF variables                       ... done
                      ------------------
                      INITIAL GUESS DONE (   0.4 sec)
                      ------------------
--------------
SCF ITERATIONS
--------------
ITER       Energy         Delta-E        Max-DP      RMS-DP      [F,P]     Damp
               ***  Starting incremental Fock matrix formation  ***
  0   -416.5187540351   0.000000000000 0.05111923  0.00216008  0.2847258 0.7000
  1   -416.5639534073  -0.045199372210 0.02531765  0.00122537  0.0768957 0.7000
                               ***Turning on DIIS***
  2   -416.5737864952  -0.009833087892 0.06090143  0.00157942  0.0226720 0.0000
  3   -416.6026109952  -0.028824500062 0.01746898  0.00085917  0.0294363 0.0000
  4   -416.6030544443  -0.000443449049 0.00931271  0.00030179  0.0328387 0.0000
  5   -416.6041233686  -0.001068924324 0.00218387  0.00010262  0.0087126 0.0000
                      *** Initiating the SOSCF procedure ***
                           *** Shutting down DIIS ***
                      *** Re-Reading the Fockian *** 
                      *** Removing any level shift *** 
ITER      Energy       Delta-E        Grad      Rot      Max-DP    RMS-DP
  6   -416.60422788  -0.0001045129  0.000412  0.000412  0.000564  0.000032
               *** Restarting incremental Fock matrix formation ***
  7   -416.60423773  -0.0000098451  0.000268  0.000663  0.000697  0.000035
  8   -416.60423449   0.0000032380  0.000586  0.000552  0.000533  0.000023
  9   -416.60423854  -0.0000040516  0.000033  0.000058  0.000224  0.000005
 10   -416.60423854   0.0000000044  0.000036  0.000037  0.000127  0.000003
 11   -416.60423856  -0.0000000243  0.000003  0.000007  0.000006  0.000000
 12   -416.60423856  -0.0000000001  0.000003  0.000003  0.000003  0.000000
                  ***Gradient check signals convergence***
              ***Rediagonalizing the Fockian in SOSCF/NRSCF***

               *****************************************************
               *                     SUCCESS                       *
               *           SCF CONVERGED AFTER  13 CYCLES          *
               *****************************************************

Setting up the final grid:

General Integration Accuracy     IntAcc      ...  5.340
Radial Grid Type                 RadialGrid  ... Gauss-Chebyshev
Angular Grid (max. acc.)         AngularGrid ... Lebedev-590
Angular grid pruning method      GridPruning ... 3 (G Style)
Weight generation scheme         WeightScheme... Becke
Basis function cutoff            BFCut       ...    1.0000e-12
Integration weight cutoff        WCut        ...    1.0000e-14
Grids for H and He will be reduced by one unit

# of grid points (after initial pruning)     ...  67380 (   0.0 sec)
# of grid points (after weights+screening)   ...  65798 (   0.0 sec)
nearest neighbour list constructed           ...    0.0 sec
Grid point re-assignment to atoms done       ...    0.0 sec
Grid point division into batches done        ...    0.6 sec
Reduced shell lists constructed in    0.6 sec

Total number of grid points                  ...    65798
Total number of batches                      ...     1031
Average number of points per batch           ...       63
Average number of grid points per atom       ...    13160
Average number of shells per batch           ...    22.46 (57.58%)
Average number of basis functions per batch  ...    53.98 (62.05%)
Average number of large shells per batch     ...    17.95 (79.92%)
Average number of large basis fcns per batch ...    43.17 (79.97%)
Maximum spatial batch extension              ...  15.70, 15.37, 15.70 au
Average spatial batch extension              ...   0.19,  0.20,  0.19 au

Final grid set up in    0.7 sec
Final integration                            ... done (   0.0 sec)
Change in XC energy                          ...    -0.000005315
Integrated number of electrons               ...    26.000000579
Previous integrated no of electrons          ...    26.000000253

----------------
TOTAL SCF ENERGY
----------------

Total Energy       :         -416.60424388 Eh          -11336.37781 eV

Components:
Nuclear Repulsion  :           61.60067412 Eh            1676.23956 eV
Electronic Energy  :         -478.20491799 Eh          -13012.61737 eV
One Electron Energy:         -699.66297757 Eh          -19038.79753 eV
Two Electron Energy:          221.45805957 Eh            6026.18017 eV

Virial components:
Potential Energy   :         -831.60544035 Eh          -22629.13447 eV
Kinetic Energy     :          415.00119648 Eh           11292.75667 eV
Virial Ratio       :            2.00386275


DFT components:
N(Alpha)           :       13.000000289506 electrons
N(Beta)            :       13.000000289506 electrons
N(Total)           :       26.000000579012 electrons
E(X)               :      -29.180369384657 Eh       
E(C)               :       -1.870373729874 Eh       
E(XC)              :      -31.050743114531 Eh       
DFET-embed. en.    :        0.000000000000 Eh       

---------------
SCF CONVERGENCE
---------------

  Last Energy change         ...   -1.7258e-10  Tolerance :   1.0000e-09
  Last MAX-Density change    ...    8.5292e-07  Tolerance :   1.0000e-08
  Last RMS-Density change    ...    3.7851e-08  Tolerance :   1.0000e-09
  Last Orbital Gradient      ...    2.3709e-07  Tolerance :   2.0000e-06
  Last Orbital Rotation      ...    6.0687e-07  Tolerance :   2.0000e-06

             **** THE GBW FILE WAS UPDATED (PH2OH_zora-def2-tzvp_.gbw) ****
             **** DENSITY FILE WAS UPDATED (PH2OH_zora-def2-tzvp_.scfp) ****
             **** ENERGY FILE WAS UPDATED (PH2OH_zora-def2-tzvp_.en.tmp) ****
             **** THE GBW FILE WAS UPDATED (PH2OH_zora-def2-tzvp_.gbw) ****
             **** DENSITY FILE WAS UPDATED (PH2OH_zora-def2-tzvp_.scfp) ****
----------------
ORBITAL ENERGIES
----------------

  NO   OCC          E(Eh)            E(eV) 
   0   2.0000     -76.047567     -2069.3595 
   1   2.0000     -18.634576      -507.0726 
   2   2.0000      -6.294481      -171.2815 
   3   2.0000      -4.546806      -123.7249 
   4   2.0000      -4.543162      -123.6257 
   5   2.0000      -4.538798      -123.5070 
   6   2.0000      -0.938065       -25.5260 
   7   2.0000      -0.587507       -15.9869 
   8   2.0000      -0.442213       -12.0332 
   9   2.0000      -0.372693       -10.1415 
  10   2.0000      -0.372541       -10.1373 
  11   2.0000      -0.272342        -7.4108 
  12   2.0000      -0.226171        -6.1544 
  13   0.0000      -0.052760        -1.4357 
  14   0.0000       0.003289         0.0895 
  15   0.0000       0.025411         0.6915 
  16   0.0000       0.038016         1.0345 
  17   0.0000       0.157474         4.2851 
  18   0.0000       0.188631         5.1329 
  19   0.0000       0.203910         5.5487 
  20   0.0000       0.238093         6.4788 
  21   0.0000       0.244190         6.6447 
  22   0.0000       0.266808         7.2602 
  23   0.0000       0.309417         8.4197 
  24   0.0000       0.333977         9.0880 
  25   0.0000       0.369910        10.0658 
  26   0.0000       0.419597        11.4178 
  27   0.0000       0.446858        12.1596 
  28   0.0000       0.471135        12.8202 
  29   0.0000       0.533260        14.5107 
  30   0.0000       0.540406        14.7052 
  31   0.0000       0.596254        16.2249 
  32   0.0000       0.688963        18.7476 
  33   0.0000       1.037511        28.2321 
  34   0.0000       1.077956        29.3327 
  35   0.0000       1.079637        29.3784 
  36   0.0000       1.103563        30.0295 
  37   0.0000       1.115878        30.3646 
  38   0.0000       1.127412        30.6784 
  39   0.0000       1.170710        31.8567 
  40   0.0000       1.218910        33.1682 
  41   0.0000       1.245085        33.8805 
  42   0.0000       1.307468        35.5780 
  43   0.0000       1.332975        36.2721 
  44   0.0000       1.350770        36.7563 
  45   0.0000       1.351121        36.7659 
  46   0.0000       1.509993        41.0890 
  47   0.0000       1.564494        42.5720 
  48   0.0000       1.590893        43.2904 
  49   0.0000       1.730746        47.0960 
  50   0.0000       1.767975        48.1090 
  51   0.0000       1.842274        50.1308 
  52   0.0000       1.871921        50.9376 
  53   0.0000       1.884577        51.2819 
  54   0.0000       1.943554        52.8868 
  55   0.0000       2.006119        54.5893 
  56   0.0000       2.088258        56.8244 
  57   0.0000       2.178571        59.2819 
  58   0.0000       2.192782        59.6686 
  59   0.0000       2.257477        61.4291 
  60   0.0000       2.369169        64.4684 
  61   0.0000       2.441103        66.4258 
  62   0.0000       2.557377        69.5898 
  63   0.0000       2.629970        71.5651 
  64   0.0000       2.662289        72.4446 
  65   0.0000       2.701723        73.5176 
  66   0.0000       2.706611        73.6506 
  67   0.0000       3.116314        84.7992 
  68   0.0000       3.640920        99.0745 
  69   0.0000       4.109947       111.8373 
  70   0.0000       5.017548       136.5344 
  71   0.0000       5.034052       136.9835 
  72   0.0000       5.130072       139.5964 
  73   0.0000       5.169304       140.6639 
  74   0.0000       5.286445       143.8515 
  75   0.0000       5.362488       145.9207 
  76   0.0000       6.036020       164.2485 
  77   0.0000       6.233309       169.6170 
  78   0.0000       6.394951       174.0155 
  79   0.0000       6.405470       174.3017 
  80   0.0000       6.636624       180.5917 
  81   0.0000       6.857473       186.6013 
  82   0.0000      14.240071       387.4920 
  83   0.0000      15.263592       415.3434 
  84   0.0000      77.294721      2103.2963 
  85   0.0000     105.026084      2857.9050 
  86   0.0000     720.289254     19600.0670 

                    ********************************
                    * MULLIKEN POPULATION ANALYSIS *
                    ********************************

-----------------------
MULLIKEN ATOMIC CHARGES
-----------------------
   0 P :   -0.041307
   1 H :    0.082848
   2 H :    0.082846
   3 O :   -0.454046
   4 H :    0.329660
Sum of atomic charges:    0.0000000

--------------------------------
MULLIKEN REDUCED ORBITAL CHARGES
--------------------------------
  0 P s       :     5.746194  s :     5.746194
      pz      :     3.106652  p :     8.974116
      px      :     3.120573
      py      :     2.746890
      dz2     :     0.093954  d :     0.288409
      dxz     :     0.006247
      dyz     :     0.050348
      dx2y2   :     0.088825
      dxy     :     0.049035
      f0      :     0.006598  f :     0.032588
      f+1     :     0.000918
      f-1     :     0.003447
      f+2     :     0.004920
      f-2     :     0.001157
      f+3     :     0.010418
      f-3     :     0.005132
  1 H s       :     0.903890  s :     0.903890
      pz      :     0.008619  p :     0.013262
      px      :     0.002949
      py      :     0.001695
  2 H s       :     0.903892  s :     0.903892
      pz      :     0.002930  p :     0.013262
      px      :     0.008637
      py      :     0.001695
  3 O s       :     3.783816  s :     3.783816
      pz      :     1.602897  p :     4.645782
      px      :     1.581262
      py      :     1.461623
      dz2     :     0.003161  d :     0.023337
      dxz     :     0.005568
      dyz     :     0.003782
      dx2y2   :     0.007060
      dxy     :     0.003767
      f0      :     0.000115  f :     0.001111
      f+1     :     0.000288
      f-1     :     0.000078
      f+2     :     0.000326
      f-2     :     0.000094
      f+3     :     0.000108
      f-3     :     0.000103
  4 H s       :     0.619282  s :     0.619282
      pz      :     0.018769  p :     0.051058
      px      :     0.018904
      py      :     0.013384


                     *******************************
                     * LOEWDIN POPULATION ANALYSIS *
                     *******************************

----------------------
LOEWDIN ATOMIC CHARGES
----------------------
   0 P :    0.060457
   1 H :    0.005483
   2 H :    0.005483
   3 O :   -0.231315
   4 H :    0.159891

-------------------------------
LOEWDIN REDUCED ORBITAL CHARGES
-------------------------------
  0 P s       :     5.255949  s :     5.255949
      pz      :     3.100448  p :     9.082107
      px      :     3.112681
      py      :     2.868979
      dz2     :     0.150461  d :     0.493559
      dxz     :     0.007983
      dyz     :     0.084967
      dx2y2   :     0.166906
      dxy     :     0.083241
      f0      :     0.020479  f :     0.107928
      f+1     :     0.003068
      f-1     :     0.014206
      f+2     :     0.014121
      f-2     :     0.003134
      f+3     :     0.031138
      f-3     :     0.021782
  1 H s       :     0.948716  s :     0.948716
      pz      :     0.032877  p :     0.045801
      px      :     0.007770
      py      :     0.005154
  2 H s       :     0.948716  s :     0.948716
      pz      :     0.007604  p :     0.045801
      px      :     0.033043
      py      :     0.005154
  3 O s       :     3.448542  s :     3.448542
      pz      :     1.587330  p :     4.725980
      px      :     1.571470
      py      :     1.567180
      dz2     :     0.007250  d :     0.054187
      dxz     :     0.011085
      dyz     :     0.007470
      dx2y2   :     0.020811
      dxy     :     0.007571
      f0      :     0.000205  f :     0.002606
      f+1     :     0.000469
      f-1     :     0.000312
      f+2     :     0.000699
      f-2     :     0.000098
      f+3     :     0.000346
      f-3     :     0.000478
  4 H s       :     0.677861  s :     0.677861
      pz      :     0.063510  p :     0.162248
      px      :     0.065230
      py      :     0.033508


                      *****************************
                      * MAYER POPULATION ANALYSIS *
                      *****************************

  NA   - Mulliken gross atomic population
  ZA   - Total nuclear charge
  QA   - Mulliken gross atomic charge
  VA   - Mayer's total valence
  BVA  - Mayer's bonded valence
  FA   - Mayer's free valence

  ATOM       NA         ZA         QA         VA         BVA        FA
  0 P     15.0413    15.0000    -0.0413     3.0549     3.0549     0.0000
  1 H      0.9172     1.0000     0.0828     0.9551     0.9551     0.0000
  2 H      0.9172     1.0000     0.0828     0.9551     0.9551     0.0000
  3 O      8.4540     8.0000    -0.4540     1.9963     1.9963     0.0000
  4 H      0.6703     1.0000     0.3297     0.9124     0.9124     0.0000

  Mayer bond orders larger than 0.100000
B(  0-P ,  1-H ) :   0.9563 B(  0-P ,  2-H ) :   0.9563 B(  0-P ,  3-O ) :   1.1145 
B(  3-O ,  4-H ) :   0.8795 

-------
TIMINGS
-------

Total SCF time: 0 days 0 hours 0 min 3 sec 

Total time                  ....       3.398 sec
Sum of individual times     ....       3.222 sec  ( 94.8%)

Fock matrix formation       ....       2.171 sec  ( 63.9%)
  XC integration            ....       0.159 sec  (  7.3% of F)
    Basis function eval.    ....       0.039 sec  ( 24.4% of XC)
    Density eval.           ....       0.019 sec  ( 11.8% of XC)
    XC-Functional eval.     ....       0.012 sec  (  7.6% of XC)
    XC-Potential eval.      ....       0.022 sec  ( 14.1% of XC)
Diagonalization             ....       0.006 sec  (  0.2%)
Density matrix formation    ....       0.002 sec  (  0.1%)
Population analysis         ....       0.001 sec  (  0.0%)
Initial guess               ....       0.078 sec  (  2.3%)
Orbital Transformation      ....       0.000 sec  (  0.0%)
Orbital Orthonormalization  ....       0.000 sec  (  0.0%)
DIIS solution               ....       0.002 sec  (  0.1%)
SOSCF solution              ....       0.004 sec  (  0.1%)
Grid generation             ....       0.957 sec  ( 28.2%)

-------------------------   --------------------
FINAL SINGLE POINT ENERGY      -416.604243875456
-------------------------   --------------------


                            ***************************************
                            *     ORCA property calculations      *
                            ***************************************

                                    ---------------------
                                    Active property flags
                                    ---------------------
   (+) Dipole Moment


------------------------------------------------------------------------------
                       ORCA ELECTRIC PROPERTIES CALCULATION
------------------------------------------------------------------------------

Dipole Moment Calculation                       ... on
Quadrupole Moment Calculation                   ... off
Polarizability Calculation                      ... off
GBWName                                         ... PH2OH_zora-def2-tzvp_.gbw
Electron density file                           ... PH2OH_zora-def2-tzvp_.scfp
The origin for moment calculation is the CENTER OF MASS  = (-0.141456,  1.049520 -0.135201)

-------------
DIPOLE MOMENT
-------------
                                X             Y             Z
Electronic contribution:     -0.77348      -0.62794      -0.73928
Nuclear contribution   :      0.57117       0.55687       0.54592
                        -----------------------------------------
Total Dipole Moment    :     -0.20230      -0.07107      -0.19336
                        -----------------------------------------
Magnitude (a.u.)       :      0.28873
Magnitude (Debye)      :      0.73390



--------------------
Rotational spectrum 
--------------------
 
Rotational constants in cm-1:     3.740760     0.483188     0.479169 
Rotational constants in MHz : 112145.176126 14485.620170 14365.126502 

 Dipole components along the rotational axes: 
x,y,z [a.u.] :     0.018215     0.288157    -0.000001 
x,y,z [Debye]:     0.046298     0.732437    -0.000002 

 

Timings for individual modules:

Sum of individual times         ...        4.114 sec (=   0.069 min)
GTO integral calculation        ...        0.490 sec (=   0.008 min)  11.9 %
SCF iterations                  ...        3.623 sec (=   0.060 min)  88.1 %
                             ****ORCA TERMINATED NORMALLY****
TOTAL RUN TIME: 0 days 0 hours 0 minutes 4 seconds 452 msec
