
                                 *****************
                                 * O   R   C   A *
                                 *****************

                                            #,                                       
                                            ###                                      
                                            ####                                     
                                            #####                                    
                                            ######                                   
                                           ########,                                 
                                     ,,################,,,,,                         
                               ,,#################################,,                 
                          ,,##########################################,,             
                       ,#########################################, ''#####,          
                    ,#############################################,,   '####,        
                  ,##################################################,,,,####,       
                ,###########''''           ''''###############################       
              ,#####''   ,,,,##########,,,,          '''####'''          '####       
            ,##' ,,,,###########################,,,                        '##       
           ' ,,###''''                  '''############,,,                           
         ,,##''                                '''############,,,,        ,,,,,,###''
      ,#''                                            '''#######################'''  
     '                                                          ''''####''''         
             ,#######,   #######,   ,#######,      ##                                
            ,#'     '#,  ##    ##  ,#'     '#,    #''#        ######   ,####,        
            ##       ##  ##   ,#'  ##            #'  '#       #        #'  '#        
            ##       ##  #######   ##           ,######,      #####,   #    #        
            '#,     ,#'  ##    ##  '#,     ,#' ,#      #,         ##   #,  ,#        
             '#######'   ##     ##  '#######'  #'      '#     #####' # '####'        



                  #######################################################
                  #                        -***-                        #
                  #          Department of theory and spectroscopy      #
                  #    Directorship and core code : Frank Neese         #
                  #        Max Planck Institute fuer Kohlenforschung    #
                  #                Kaiser Wilhelm Platz 1               #
                  #                 D-45470 Muelheim/Ruhr               #
                  #                      Germany                        #
                  #                                                     #
                  #                  All rights reserved                #
                  #                        -***-                        #
                  #######################################################


                         Program Version 5.0.3 -  RELEASE  -


 With contributions from (in alphabetic order):
   Daniel Aravena         : Magnetic Suceptibility
   Michael Atanasov       : Ab Initio Ligand Field Theory (pilot matlab implementation)
   Alexander A. Auer      : GIAO ZORA, VPT2 properties, NMR spectrum
   Ute Becker             : Parallelization
   Giovanni Bistoni       : ED, misc. LED, open-shell LED, HFLD
   Martin Brehm           : Molecular dynamics
   Dmytro Bykov           : SCF Hessian
   Vijay G. Chilkuri      : MRCI spin determinant printing, contributions to CSF-ICE
   Dipayan Datta          : RHF DLPNO-CCSD density
   Achintya Kumar Dutta   : EOM-CC, STEOM-CC
   Dmitry Ganyushin       : Spin-Orbit,Spin-Spin,Magnetic field MRCI
   Miquel Garcia          : C-PCM and meta-GGA Hessian, CC/C-PCM, Gaussian charge scheme
   Yang Guo               : DLPNO-NEVPT2, F12-NEVPT2, CIM, IAO-localization
   Andreas Hansen         : Spin unrestricted coupled pair/coupled cluster methods
   Benjamin Helmich-Paris : MC-RPA, TRAH-SCF, COSX integrals
   Lee Huntington         : MR-EOM, pCC
   Robert Izsak           : Overlap fitted RIJCOSX, COSX-SCS-MP3, EOM
   Marcus Kettner         : VPT2
   Christian Kollmar      : KDIIS, OOCD, Brueckner-CCSD(T), CCSD density, CASPT2, CASPT2-K
   Simone Kossmann        : Meta GGA functionals, TD-DFT gradient, OOMP2, MP2 Hessian
   Martin Krupicka        : Initial AUTO-CI
   Lucas Lang             : DCDCAS
   Marvin Lechner         : AUTO-CI (C++ implementation), FIC-MRCC
   Dagmar Lenk            : GEPOL surface, SMD
   Dimitrios Liakos       : Extrapolation schemes; Compound Job, initial MDCI parallelization
   Dimitrios Manganas     : Further ROCIS development; embedding schemes
   Dimitrios Pantazis     : SARC Basis sets
   Anastasios Papadopoulos: AUTO-CI, single reference methods and gradients
   Taras Petrenko         : DFT Hessian,TD-DFT gradient, ASA, ECA, R-Raman, ABS, FL, XAS/XES, NRVS
   Peter Pinski           : DLPNO-MP2, DLPNO-MP2 Gradient
   Christoph Reimann      : Effective Core Potentials
   Marius Retegan         : Local ZFS, SOC
   Christoph Riplinger    : Optimizer, TS searches, QM/MM, DLPNO-CCSD(T), (RO)-DLPNO pert. Triples
   Tobias Risthaus        : Range-separated hybrids, TD-DFT gradient, RPA, STAB
   Michael Roemelt        : Original ROCIS implementation
   Masaaki Saitow         : Open-shell DLPNO-CCSD energy and density
   Barbara Sandhoefer     : DKH picture change effects
   Avijit Sen             : IP-ROCIS
   Kantharuban Sivalingam : CASSCF convergence, NEVPT2, FIC-MRCI
   Bernardo de Souza      : ESD, SOC TD-DFT
   Georgi Stoychev        : AutoAux, RI-MP2 NMR, DLPNO-MP2 response
   Willem Van den Heuvel  : Paramagnetic NMR
   Boris Wezisla          : Elementary symmetry handling
   Frank Wennmohs         : Technical directorship


 We gratefully acknowledge several colleagues who have allowed us to
 interface, adapt or use parts of their codes:
   Stefan Grimme, W. Hujo, H. Kruse, P. Pracht,  : VdW corrections, initial TS optimization,
                  C. Bannwarth, S. Ehlert          DFT functionals, gCP, sTDA/sTD-DF
   Ed Valeev, F. Pavosevic, A. Kumar             : LibInt (2-el integral package), F12 methods
   Garnet Chan, S. Sharma, J. Yang, R. Olivares  : DMRG
   Ulf Ekstrom                                   : XCFun DFT Library
   Mihaly Kallay                                 : mrcc  (arbitrary order and MRCC methods)
   Jiri Pittner, Ondrej Demel                    : Mk-CCSD
   Frank Weinhold                                : gennbo (NPA and NBO analysis)
   Christopher J. Cramer and Donald G. Truhlar   : smd solvation model
   Lars Goerigk                                  : TD-DFT with DH, B97 family of functionals
   V. Asgeirsson, H. Jonsson                     : NEB implementation
   FAccTs GmbH                                   : IRC, NEB, NEB-TS, DLPNO-Multilevel, CI-OPT
                                                   MM, QMMM, 2- and 3-layer-ONIOM, Crystal-QMMM,
                                                   LR-CPCM, SF, NACMEs, symmetry and pop. for TD-DFT,
                                                   nearIR, NL-DFT gradient (VV10), updates on ESD,
                                                   ML-optimized integration grids
   S Lehtola, MJT Oliveira, MAL Marques          : LibXC Library
   Liviu Ungur et al                             : ANISO software


 Your calculation uses the libint2 library for the computation of 2-el integrals
 For citations please refer to: http://libint.valeyev.net

 Your ORCA version has been built with support for libXC version: 5.1.0
 For citations please refer to: https://tddft.org/programs/libxc/

 This ORCA versions uses:
   CBLAS   interface :  Fast vector & matrix operations
   LAPACKE interface :  Fast linear algebra routines
   SCALAPACK package :  Parallel linear algebra routines
   Shared memory     :  Shared parallel matrices
   BLAS/LAPACK       :  OpenBLAS 0.3.15  USE64BITINT DYNAMIC_ARCH NO_AFFINITY SkylakeX SINGLE_THREADED
        Core in use  :  SkylakeX
   Copyright (c) 2011-2014, The OpenBLAS Project


================================================================================

----- Orbital basis set information -----
Your calculation utilizes the basis: def2-SVP
   F. Weigend and R. Ahlrichs, Phys. Chem. Chem. Phys. 7, 3297 (2005).

The basis set includes element-specific modifications.

Your calculation utilizes the basis: SARC-ZORA-TZVPP 
   Rb-Xe:  J. D. Rolfes, F. Neese and D. A. Pantazis, J. Comput. Chem. 41, 1842 (2020).
   La-Lu:  D. A. Pantazis and F. Neese, J. Chem. Theory Comput. 5, 2229 (2009).
   Hf-Hg:  D. A. Pantazis, X. Y. Chen, C. R. Landis and F. Neese, J. Chem. Theory Comput. 4, 908 (2008).
   Tl-Rn:  D. A. Pantazis and F. Neese, Theor. Chem. Acc. 131, 1292 (2012).
   Ac-Lr:  D. A. Pantazis and F. Neese, J. Chem. Theory Comput. 7, 677 (2011).

Your calculation utilizes the basis: ZORA-def2-QZVPP 
   Exponents from def2-QZVPP [F. Weigend and R. Ahlrichs, Phys. Chem. Chem. Phys. 7, 3297 (2005)],
   recontracted for ZORA by D. A. Pantazis.

================================================================================
                                        WARNINGS
                       Please study these warnings very carefully!
================================================================================

WARNING: Old DensityContainer found on disk!
         Will remove this file - 
         If you want to keep old densities, please start your calculation with a different basename. 


INFO   : the flag for use of the SHARK integral package has been found!

================================================================================
                                       INPUT FILE
================================================================================
NAME = SrF.inp
|  1> !uks pbe nori defgrid3 verytightscf
|  2> 
|  3> %pal nprocs 16 end
|  4> 
|  5> %scf maxiter 400 end
|  6> 
|  7> %basis
|  8>   newgto Sr "sarc-zora-tzvpp" end
|  9>   delecp Sr
| 10>   newgto F "zora-def2-qzvpp" end
| 11>   delecp F
| 12> end
| 13> 
| 14> %rel
| 15>   modelpot 1, 0, 0, 0
| 16> end
| 17> 
| 18> 
| 19> 
| 20> *xyz 0 2
| 21> Sr 0.0000000000 0.0000000000 0.0000000000
| 22> F 0.0000000000 0.0000000000 2.0800000000
| 23> *
| 24> 
| 25>                          ****END OF INPUT****
================================================================================

                       ****************************
                       * Single Point Calculation *
                       ****************************

---------------------------------
CARTESIAN COORDINATES (ANGSTROEM)
---------------------------------
  Sr     0.000000    0.000000    0.000000
  F      0.000000    0.000000    2.080000

----------------------------
CARTESIAN COORDINATES (A.U.)
----------------------------
  NO LB      ZA    FRAG     MASS         X           Y           Z
   0 Sr   38.0000    0    87.620    0.000000    0.000000    0.000000
   1 F     9.0000    0    18.998    0.000000    0.000000    3.930630

--------------------------------
INTERNAL COORDINATES (ANGSTROEM)
--------------------------------
 Sr     0   0   0     0.000000000000     0.00000000     0.00000000
 F      1   0   0     2.080000000000     0.00000000     0.00000000

---------------------------
INTERNAL COORDINATES (A.U.)
---------------------------
 Sr     0   0   0     0.000000000000     0.00000000     0.00000000
 F      1   0   0     3.930630358556     0.00000000     0.00000000

---------------------
BASIS SET INFORMATION
---------------------
There are 2 groups of distinct atoms

 Group   1 Type Sr  : 22s15p9d1f contracted to 15s10p5d1f pattern {811111111111111/6111111111/51111/1}
 Group   2 Type F   : 15s8p3d2f1g contracted to 8s4p3d2f1g pattern {81111111/5111/111/11/1}

Atom   0Sr   basis set group =>   1
Atom   1F    basis set group =>   2

Checking for AutoStart:
The File: SrF.gbw exists
Trying to determine its content:
     ... Fine, the file contains calculation information
     ... Fine, the calculation information was read
     ... Fine, the file contains a basis set
     ... Fine, the basis set was read
     ... Fine, the file contains a geometry
     ... Fine, the geometry was read
     ... Fine, the file contains a set of orbitals
     ... Fine, the orbitals can be read
     => possible old guess file was deleted
     => GBW file was renamed to GES file
     => GES file is set as startup file
     => Guess is set to MORead
     ... now leaving AutoStart



           ************************************************************
           *        Program running with 16 parallel MPI-processes    *
           *              working on a common directory               *
           ************************************************************
------------------------------------------------------------------------------
                           ORCA GTO INTEGRAL CALCULATION
------------------------------------------------------------------------------
------------------------------------------------------------------------------
                   ___                                                        
                  /   \      - P O W E R E D   B Y -                         
                 /     \                                                     
                 |  |  |   _    _      __       _____    __    __             
                 |  |  |  | |  | |    /  \     |  _  \  |  |  /  |          
                  \  \/   | |  | |   /    \    | | | |  |  | /  /          
                 / \  \   | |__| |  /  /\  \   | |_| |  |  |/  /          
                |  |  |   |  __  | /  /__\  \  |    /   |      \           
                |  |  |   | |  | | |   __   |  |    \   |  |\   \          
                \     /   | |  | | |  |  |  |  | |\  \  |  | \   \       
                 \___/    |_|  |_| |__|  |__|  |_| \__\ |__|  \__/        
                                                                              
                      - O R C A' S   B I G   F R I E N D -                    
                                      &                                       
                       - I N T E G R A L  F E E D E R -                       
                                                                              
 v1 FN, 2020, v2 2021                                                         
------------------------------------------------------------------------------


Reading SHARK input file SrF.SHARKINP.tmp ... ok
----------------------
SHARK INTEGRAL PACKAGE
----------------------

Number of atoms                             ...      2
Number of basis functions                   ...    135
Number of shells                            ...     49
Maximum angular momentum                    ...      4
Integral batch strategy                     ... SHARK/LIBINT Hybrid
RI-J (if used) integral strategy            ... SPLIT-RIJ (Revised 2003 algorithm where possible)
Printlevel                                  ...      1
Contraction scheme used                     ... SEGMENTED contraction
Coulomb Range Separation                    ... NOT USED
Exchange Range Separation                   ... NOT USED
Finite Nucleus Model                        ... NOT USED
Auxiliary Coulomb fitting basis             ... NOT available
Auxiliary J/K fitting basis                 ... NOT available
Auxiliary Correlation fitting basis         ... NOT available
Auxiliary 'external' fitting basis          ... NOT available
Integral threshold                          ...     1.000000e-12
Primitive cut-off                           ...     1.000000e-14
Primitive pair pre-selection threshold      ...     1.000000e-14

Calculating pre-screening integrals         ... done (  0.1 sec) Dimension = 49
Organizing shell pair data                  ... done (  0.0 sec)
Shell pair information
Total number of shell pairs                 ...      1225
Shell pairs after pre-screening             ...      1116
Total number of primitive shell pairs       ...      3017
Primitive shell pairs kept                  ...      2444
          la=0 lb=0:    231 shell pairs
          la=1 lb=0:    291 shell pairs
          la=1 lb=1:    102 shell pairs
          la=2 lb=0:    170 shell pairs
          la=2 lb=1:    108 shell pairs
          la=2 lb=2:     35 shell pairs
          la=3 lb=0:     61 shell pairs
          la=3 lb=1:     39 shell pairs
          la=3 lb=2:     24 shell pairs
          la=3 lb=3:      6 shell pairs
          la=4 lb=0:     23 shell pairs
          la=4 lb=1:     14 shell pairs
          la=4 lb=2:      8 shell pairs
          la=4 lb=3:      3 shell pairs
          la=4 lb=4:      1 shell pairs

Calculating one electron integrals          ... done (  0.0 sec)
Calculating Nuclear repulsion               ... done (  0.0 sec) ENN=     87.008944826250 Eh

SHARK setup successfully completed in   0.2 seconds

Maximum memory used throughout the entire GTOINT-calculation: 26.9 MB


           ************************************************************
           *        Program running with 16 parallel MPI-processes    *
           *              working on a common directory               *
           ************************************************************
-------------------------------------------------------------------------------
                                 ORCA SCF
-------------------------------------------------------------------------------

------------
SCF SETTINGS
------------
Hamiltonian:
 Density Functional     Method          .... DFT(GTOs)
 Exchange Functional    Exchange        .... PBE
   PBE kappa parameter   XKappa         ....  0.804000
   PBE mue parameter    XMuePBE         ....  0.219520
 Correlation Functional Correlation     .... PBE
   PBE beta parameter  CBetaPBE         ....  0.066725
 LDA part of GGA corr.  LDAOpt          .... PW91-LDA
 Gradients option       PostSCFGGA      .... off
   Density functional embedding theory  .... OFF
   NL short-range parameter             ....  6.400000


General Settings:
 Integral files         IntName         .... SrF
 Hartree-Fock type      HFTyp           .... UHF
 Total Charge           Charge          ....    0
 Multiplicity           Mult            ....    2
 Number of Electrons    NEL             ....   47
 Basis Dimension        Dim             ....  135
 Nuclear Repulsion      ENuc            ....     87.0089448263 Eh

Convergence Acceleration:
 DIIS                   CNVDIIS         .... on
   Start iteration      DIISMaxIt       ....    12
   Startup error        DIISStart       ....  0.200000
   # of expansion vecs  DIISMaxEq       ....     5
   Bias factor          DIISBfac        ....   1.050
   Max. coefficient     DIISMaxC        ....  10.000
 Trust-Rad. Augm. Hess. CNVTRAH         .... auto
   Auto Start mean grad. ratio tolernc. ....  1.125000
   Auto Start start iteration           ....     1
   Auto Start num. interpolation iter.  ....    10
   Max. Number of Micro iterations      ....    16
   Max. Number of Macro iterations      .... Maxiter - #DIIS iter
   Number of Davidson start vectors     ....     2
   Converg. threshold I  (grad. norm)   ....   2.000e-06
   Converg. threshold II (energy diff.) ....   1.000e-09
   Grad. Scal. Fac. for Micro threshold ....   0.100
   Minimum threshold for Micro iter.    ....   0.010
   NR start threshold (gradient norm)   ....   0.001
   Initial trust radius                 ....   0.400
   Minimum AH scaling param. (alpha)    ....   1.000
   Maximum AH scaling param. (alpha)    .... 1000.000
   Orbital update algorithm             .... Taylor
   White noise on init. David. guess    .... on
   Maximum white noise                  ....   0.010
   Quad. conv. algorithm                .... NR
 SOSCF                  CNVSOSCF        .... off
 Level Shifting         CNVShift        .... on
   Level shift para.    LevelShift      ....    0.2500
   Turn off err/grad.   ShiftErr        ....    0.0010
 Zerner damping         CNVZerner       .... off
 Static damping         CNVDamp         .... on
   Fraction old density DampFac         ....    0.7000
   Max. Damping (<1)    DampMax         ....    0.9800
   Min. Damping (>=0)   DampMin         ....    0.0000
   Turn off err/grad.   DampErr         ....    0.1000
 Fernandez-Rico         CNVRico         .... off

SCF Procedure:
 Maximum # iterations   MaxIter         ....   400
 SCF integral mode      SCFMode         .... Direct
   Integral package                     .... SHARK and LIBINT hybrid scheme
 Reset frequency        DirectResetFreq ....    20
 Integral Threshold     Thresh          ....  1.000e-12 Eh
 Primitive CutOff       TCut            ....  1.000e-14 Eh

Convergence Tolerance:
 Convergence Check Mode ConvCheckMode   .... Total+1el-Energy
 Convergence forced     ConvForced      .... 0
 Energy Change          TolE            ....  1.000e-09 Eh
 1-El. energy change                    ....  1.000e-06 Eh
 DIIS Error             TolErr          ....  1.000e-08


Diagonalization of the overlap matrix:
Smallest eigenvalue                        ... 7.146e-04
Time for diagonalization                   ...    0.003 sec
Threshold for overlap eigenvalues          ... 1.000e-08
Number of eigenvalues below threshold      ... 0
Time for construction of square roots      ...    0.003 sec
Total time needed                          ...    0.006 sec

---------------------
INITIAL GUESS: MOREAD
---------------------
Guess MOs are being read from file: SrF.ges
Input Geometry matches current geometry (good)
Input basis set matches current basis set (good)
MOs were renormalized
MOs were reorthogonalized (Cholesky)
                      ------------------
                      INITIAL GUESS DONE (   0.0 sec)
                      ------------------
-------------------
DFT GRID GENERATION
-------------------

General Integration Accuracy     IntAcc      ... 4.959
Radial Grid Type                 RadialGrid  ... OptM3 with GC (2021)
Angular Grid (max. ang.)         AngularGrid ... 6 (Lebedev-590)
Angular grid pruning method      GridPruning ... 4 (adaptive)
Weight generation scheme         WeightScheme... Becke
Basis function cutoff            BFCut       ... 1.0000e-12
Integration weight cutoff        WCut        ... 1.0000e-14
Angular grids for H and He will be reduced by one unit
Partially contracted basis set               ... off
Rotationally invariant grid construction     ... off

Total number of grid points                  ...    80884
Total number of batches                      ...     1265
Average number of points per batch           ...       63
Average number of grid points per atom       ...    40442
Time for grid setup =    2.214 sec

--------------
SCF ITERATIONS
--------------
ITER       Energy         Delta-E        Max-DP      RMS-DP      [F,P]     Damp
               ***  Starting incremental Fock matrix formation  ***
  0  -3231.9848645664   0.000000000000 0.00000002  0.00000000  0.0000001 0.7000
                 **** Energy Check signals convergence ****

               *****************************************************
               *                     SUCCESS                       *
               *           SCF CONVERGED AFTER   1 CYCLES          *
               *****************************************************


----------------
TOTAL SCF ENERGY
----------------

Total Energy       :        -3231.98486457 Eh          -87946.77929 eV

Components:
Nuclear Repulsion  :           87.00894483 Eh            2367.63376 eV
Electronic Energy  :        -3318.99380939 Eh          -90314.41305 eV
One Electron Energy:        -4653.21676434 Eh         -126620.46542 eV
Two Electron Energy:         1334.22295494 Eh           36306.05237 eV

Virial components:
Potential Energy   :        -6460.89713098 Eh         -175809.94894 eV
Kinetic Energy     :         3228.91226642 Eh           87863.16965 eV
Virial Ratio       :            2.00095159


DFT components:
N(Alpha)           :       23.999117167096 electrons
N(Beta)            :       22.999984120572 electrons
N(Total)           :       46.999101287668 electrons
E(X)               :     -111.595791568710 Eh       
E(C)               :       -2.168798831702 Eh       
E(XC)              :     -113.764590400412 Eh       
DFET-embed. en.    :        0.000000000000 Eh       

---------------
SCF CONVERGENCE
---------------

  Last Energy change         ...   -9.0949e-13  Tolerance :   1.0000e-09
  Last MAX-Density change    ...    8.8594e-09  Tolerance :   1.0000e-08
  Last RMS-Density change    ...    1.9692e-10  Tolerance :   1.0000e-09
  Last DIIS Error            ...    4.4801e-08  Tolerance :   1.0000e-08

             **** THE GBW FILE WAS UPDATED (SrF.gbw) ****
             **** DENSITY SrF.scfp WAS UPDATED ****
             **** ENERGY FILE WAS UPDATED (SrF.en.tmp) ****
----------------------
UHF SPIN CONTAMINATION
----------------------

Warning: in a DFT calculation there is little theoretical justification to 
         calculate <S**2> as in Hartree-Fock theory. We will do it anyways
         but you should keep in mind that the values have only limited relevance

Expectation value of <S**2>     :     0.750228
Ideal value S*(S+1) for S=0.5   :     0.750000
Deviation                       :     0.000228

             **** THE GBW FILE WAS UPDATED (SrF.gbw) ****
             **** DENSITY SrF.scfp WAS UPDATED ****
----------------
ORBITAL ENERGIES
----------------
                 SPIN UP ORBITALS
  NO   OCC          E(Eh)            E(eV) 
   0   1.0000    -573.477682    -15605.1211 
   1   1.0000     -76.559898     -2083.3007 
   2   1.0000     -69.773857     -1898.6432 
   3   1.0000     -69.773857     -1898.6432 
   4   1.0000     -69.772670     -1898.6109 
   5   1.0000     -24.148559      -657.1157 
   6   1.0000     -11.771705      -320.3244 
   7   1.0000      -9.278856      -252.4905 
   8   1.0000      -9.278856      -252.4905 
   9   1.0000      -9.276441      -252.4248 
  10   1.0000      -4.772736      -129.8727 
  11   1.0000      -4.772736      -129.8727 
  12   1.0000      -4.771071      -129.8274 
  13   1.0000      -4.771071      -129.8274 
  14   1.0000      -4.770347      -129.8077 
  15   1.0000      -1.419150       -38.6170 
  16   1.0000      -0.967894       -26.3377 
  17   1.0000      -0.812777       -22.1168 
  18   1.0000      -0.812777       -22.1168 
  19   1.0000      -0.785159       -21.3653 
  20   1.0000      -0.278298        -7.5729 
  21   1.0000      -0.275729        -7.5030 
  22   1.0000      -0.275729        -7.5030 
  23   1.0000      -0.120377        -3.2756 
  24   0.0000      -0.053586        -1.4581 
  25   0.0000      -0.053586        -1.4581 
  26   0.0000      -0.042413        -1.1541 
  27   0.0000      -0.042413        -1.1541 
  28   0.0000      -0.038607        -1.0506 
  29   0.0000       0.002916         0.0793 
  30   0.0000       0.002916         0.0793 
  31   0.0000       0.049171         1.3380 
  32   0.0000       0.075590         2.0569 
  33   0.0000       0.131731         3.5846 
  34   0.0000       0.131731         3.5846 
  35   0.0000       0.189972         5.1694 
  36   0.0000       0.223187         6.0732 
  37   0.0000       0.223187         6.0732 
  38   0.0000       0.233690         6.3590 
  39   0.0000       0.233690         6.3590 
  40   0.0000       0.250097         6.8055 
  41   0.0000       0.406558        11.0630 
  42   0.0000       0.414934        11.2909 
  43   0.0000       0.414934        11.2909 
  44   0.0000       0.563441        15.3320 
  45   0.0000       0.745471        20.2853 
  46   0.0000       0.745471        20.2853 
  47   0.0000       0.791892        21.5485 
  48   0.0000       0.921906        25.0863 
  49   0.0000       1.012674        27.5563 
  50   0.0000       1.012674        27.5563 
  51   0.0000       1.067244        29.0412 
  52   0.0000       1.067244        29.0412 
  53   0.0000       1.071816        29.1656 
  54   0.0000       1.071816        29.1656 
  55   0.0000       1.113183        30.2913 
  56   0.0000       1.197590        32.5881 
  57   0.0000       1.197590        32.5881 
  58   0.0000       1.199838        32.6493 
  59   0.0000       1.199838        32.6493 
  60   0.0000       1.369203        37.2579 
  61   0.0000       1.389317        37.8052 
  62   0.0000       1.389317        37.8052 
  63   0.0000       1.652363        44.9631 
  64   0.0000       1.652363        44.9631 
  65   0.0000       1.685867        45.8748 
  66   0.0000       1.736745        47.2592 
  67   0.0000       1.736745        47.2592 
  68   0.0000       2.253781        61.3285 
  69   0.0000       2.349785        63.9409 
  70   0.0000       3.280454        89.2657 
  71   0.0000       3.304003        89.9065 
  72   0.0000       3.304003        89.9065 
  73   0.0000       3.832535       104.2886 
  74   0.0000       4.111584       111.8819 
  75   0.0000       4.111586       111.8819 
  76   0.0000       4.120024       112.1116 
  77   0.0000       4.120024       112.1116 
  78   0.0000       4.170177       113.4763 
  79   0.0000       4.170177       113.4763 
  80   0.0000       4.237932       115.3200 
  81   0.0000       4.896481       133.2400 
  82   0.0000       4.896516       133.2410 
  83   0.0000       5.019568       136.5894 
  84   0.0000       5.019568       136.5894 
  85   0.0000       5.092943       138.5860 
  86   0.0000       5.116221       139.2195 
  87   0.0000       5.116221       139.2195 
  88   0.0000       5.141860       139.9171 
  89   0.0000       5.141860       139.9171 
  90   0.0000       5.499734       149.6554 
  91   0.0000       6.129614       166.7953 
  92   0.0000       6.129614       166.7953 
  93   0.0000       6.441786       175.2899 
  94   0.0000       8.704607       236.8644 
  95   0.0000      11.319922       308.0307 
  96   0.0000      11.319926       308.0308 
  97   0.0000      11.320050       308.0342 
  98   0.0000      11.320050       308.0342 
  99   0.0000      11.325438       308.1808 
 100   0.0000      11.325438       308.1808 
 101   0.0000      11.332309       308.3678 
 102   0.0000      11.332980       308.3861 
 103   0.0000      11.333065       308.3884 
 104   0.0000      14.356049       390.6479 
 105   0.0000      14.449236       393.1837 
 106   0.0000      14.449355       393.1869 
 107   0.0000      14.450475       393.2174 
 108   0.0000      14.450475       393.2174 
 109   0.0000      14.483662       394.1205 
 110   0.0000      14.483662       394.1205 
 111   0.0000      14.527801       395.3216 
 112   0.0000      14.527801       395.3216 
 113   0.0000      14.614389       397.6778 
 114   0.0000      14.793241       402.5446 
 115   0.0000      15.623621       425.1403 
 116   0.0000      15.623965       425.1497 
 117   0.0000      15.708327       427.4453 
 118   0.0000      15.708327       427.4453 
 119   0.0000      16.014571       435.7786 
 120   0.0000      32.540927       885.4836 
 121   0.0000      51.312789      1396.2920 
 122   0.0000      62.494405      1700.5592 
 123   0.0000      62.494405      1700.5592 
 124   0.0000      62.548265      1702.0248 
 125   0.0000     117.617694      3200.5402 
 126   0.0000     189.933443      5168.3517 
 127   0.0000     279.787586      7613.4073 
 128   0.0000     279.787586      7613.4073 
 129   0.0000     279.826990      7614.4795 
 130   0.0000     390.629327     10629.5644 
 131   0.0000     969.857056     26391.1522 
 132   0.0000    1192.771862     32456.9724 
 133   0.0000    3395.533304     92397.1586 
 134   0.0000   13759.661644    374419.4284 

                 SPIN DOWN ORBITALS
  NO   OCC          E(Eh)            E(eV) 
   0   1.0000    -573.477385    -15605.1130 
   1   1.0000     -76.559638     -2083.2937 
   2   1.0000     -69.773606     -1898.6363 
   3   1.0000     -69.773606     -1898.6363 
   4   1.0000     -69.772415     -1898.6039 
   5   1.0000     -24.148648      -657.1181 
   6   1.0000     -11.771270      -320.3125 
   7   1.0000      -9.278555      -252.4823 
   8   1.0000      -9.278555      -252.4823 
   9   1.0000      -9.275650      -252.4033 
  10   1.0000      -4.772497      -129.8663 
  11   1.0000      -4.772497      -129.8663 
  12   1.0000      -4.770459      -129.8108 
  13   1.0000      -4.770459      -129.8108 
  14   1.0000      -4.769509      -129.7849 
  15   1.0000      -1.416437       -38.5432 
  16   1.0000      -0.967642       -26.3309 
  17   1.0000      -0.808778       -22.0080 
  18   1.0000      -0.808778       -22.0080 
  19   1.0000      -0.781911       -21.2769 
  20   1.0000      -0.277782        -7.5588 
  21   1.0000      -0.275621        -7.5000 
  22   1.0000      -0.275621        -7.5000 
  23   0.0000      -0.086441        -2.3522 
  24   0.0000      -0.023694        -0.6447 
  25   0.0000      -0.023694        -0.6447 
  26   0.0000      -0.017210        -0.4683 
  27   0.0000      -0.017210        -0.4683 
  28   0.0000      -0.012417        -0.3379 
  29   0.0000       0.017228         0.4688 
  30   0.0000       0.017228         0.4688 
  31   0.0000       0.060188         1.6378 
  32   0.0000       0.112657         3.0655 
  33   0.0000       0.159565         4.3420 
  34   0.0000       0.159565         4.3420 
  35   0.0000       0.206491         5.6189 
  36   0.0000       0.251830         6.8526 
  37   0.0000       0.251830         6.8526 
  38   0.0000       0.253929         6.9098 
  39   0.0000       0.253929         6.9098 
  40   0.0000       0.267955         7.2914 
  41   0.0000       0.411356        11.1936 
  42   0.0000       0.421346        11.4654 
  43   0.0000       0.421346        11.4654 
  44   0.0000       0.586983        15.9726 
  45   0.0000       0.766442        20.8559 
  46   0.0000       0.766442        20.8559 
  47   0.0000       0.803371        21.8608 
  48   0.0000       0.926153        25.2019 
  49   0.0000       1.017629        27.6911 
  50   0.0000       1.017629        27.6911 
  51   0.0000       1.073149        29.2019 
  52   0.0000       1.073149        29.2019 
  53   0.0000       1.081414        29.4268 
  54   0.0000       1.081414        29.4268 
  55   0.0000       1.121104        30.5068 
  56   0.0000       1.209127        32.9020 
  57   0.0000       1.209127        32.9020 
  58   0.0000       1.210876        32.9496 
  59   0.0000       1.210876        32.9496 
  60   0.0000       1.376183        37.4478 
  61   0.0000       1.390201        37.8293 
  62   0.0000       1.390202        37.8293 
  63   0.0000       1.653948        45.0062 
  64   0.0000       1.653948        45.0062 
  65   0.0000       1.686450        45.8906 
  66   0.0000       1.738615        47.3101 
  67   0.0000       1.738615        47.3101 
  68   0.0000       2.259342        61.4798 
  69   0.0000       2.355097        64.0854 
  70   0.0000       3.284395        89.3729 
  71   0.0000       3.309844        90.0654 
  72   0.0000       3.309844        90.0654 
  73   0.0000       3.833619       104.3181 
  74   0.0000       4.111509       111.8799 
  75   0.0000       4.111511       111.8799 
  76   0.0000       4.119898       112.1081 
  77   0.0000       4.119898       112.1081 
  78   0.0000       4.170299       113.4796 
  79   0.0000       4.170299       113.4796 
  80   0.0000       4.238662       115.3399 
  81   0.0000       4.896369       133.2370 
  82   0.0000       4.896404       133.2379 
  83   0.0000       5.019718       136.5935 
  84   0.0000       5.019718       136.5935 
  85   0.0000       5.095226       138.6482 
  86   0.0000       5.119215       139.3009 
  87   0.0000       5.119215       139.3009 
  88   0.0000       5.144488       139.9886 
  89   0.0000       5.144488       139.9886 
  90   0.0000       5.500423       149.6741 
  91   0.0000       6.129622       166.7955 
  92   0.0000       6.129622       166.7955 
  93   0.0000       6.442172       175.3004 
  94   0.0000       8.707686       236.9482 
  95   0.0000      11.319710       308.0250 
  96   0.0000      11.319714       308.0251 
  97   0.0000      11.319910       308.0304 
  98   0.0000      11.319910       308.0304 
  99   0.0000      11.325140       308.1727 
 100   0.0000      11.325140       308.1727 
 101   0.0000      11.331927       308.3574 
 102   0.0000      11.332640       308.3768 
 103   0.0000      11.332932       308.3848 
 104   0.0000      14.356909       390.6714 
 105   0.0000      14.448946       393.1758 
 106   0.0000      14.449065       393.1790 
 107   0.0000      14.450010       393.2048 
 108   0.0000      14.450010       393.2048 
 109   0.0000      14.483527       394.1168 
 110   0.0000      14.483527       394.1168 
 111   0.0000      14.529235       395.3606 
 112   0.0000      14.529235       395.3606 
 113   0.0000      14.614387       397.6777 
 114   0.0000      14.794264       402.5724 
 115   0.0000      15.623109       425.1264 
 116   0.0000      15.623453       425.1358 
 117   0.0000      15.708075       427.4385 
 118   0.0000      15.708075       427.4385 
 119   0.0000      16.014372       435.7732 
 120   0.0000      32.542087       885.5152 
 121   0.0000      51.312641      1396.2880 
 122   0.0000      62.494711      1700.5675 
 123   0.0000      62.494711      1700.5675 
 124   0.0000      62.548939      1702.0432 
 125   0.0000     117.618155      3200.5527 
 126   0.0000     189.933396      5168.3504 
 127   0.0000     279.787746      7613.4116 
 128   0.0000     279.787746      7613.4116 
 129   0.0000     279.827307      7614.4881 
 130   0.0000     390.629681     10629.5740 
 131   0.0000     969.857162     26391.1551 
 132   0.0000    1192.772126     32456.9796 
 133   0.0000    3395.533672     92397.1686 
 134   0.0000   13759.662345    374419.4475 

                    ********************************
                    * MULLIKEN POPULATION ANALYSIS *
                    ********************************

--------------------------------------------
MULLIKEN ATOMIC CHARGES AND SPIN POPULATIONS
--------------------------------------------
   0 Sr:    0.630890    1.006430
   1 F :   -0.630890   -0.006430
Sum of atomic charges         :   -0.0000000
Sum of atomic spin populations:    1.0000000

-----------------------------------------------------
MULLIKEN REDUCED ORBITAL CHARGES AND SPIN POPULATIONS
-----------------------------------------------------
CHARGE
  0 Srs       :     8.883803  s :     8.883803
      pz      :     6.103736  p :    18.127267
      px      :     6.011765
      py      :     6.011765
      dz2     :     2.179875  d :    10.346433
      dxz     :     2.083279
      dyz     :     2.083279
      dx2y2   :     2.000000
      dxy     :     2.000000
      f0      :     0.006076  f :     0.011607
      f+1     :     0.002765
      f-1     :     0.002765
      f+2     :     0.000000
      f-2     :     0.000000
      f+3     :     0.000000
      f-3     :     0.000000
  1 F s       :     3.977987  s :     3.977987
      pz      :     1.844969  p :     5.645207
      px      :     1.900119
      py      :     1.900119
      dz2     :     0.003373  d :     0.007343
      dxz     :     0.001985
      dyz     :     0.001985
      dx2y2   :     0.000000
      dxy     :     0.000000
      f0      :     0.000178  f :     0.000350
      f+1     :     0.000086
      f-1     :     0.000086
      f+2     :     0.000000
      f-2     :     0.000000
      f+3     :     0.000000
      f-3     :     0.000000
      g0      :     0.000002  g :     0.000004
      g+1     :     0.000001
      g-1     :     0.000001
      g+2     :     0.000000
      g-2     :     0.000000
      g+3     :     0.000000
      g-3     :     0.000000
      g+4     :     0.000000
      g-4     :     0.000000

SPIN
  0 Srs       :     0.861602  s :     0.861602
      pz      :     0.099516  p :     0.100127
      px      :     0.000306
      py      :     0.000306
      dz2     :     0.038897  d :     0.044699
      dxz     :     0.002901
      dyz     :     0.002901
      dx2y2   :    -0.000000
      dxy     :    -0.000000
      f0      :     0.000017  f :     0.000002
      f+1     :    -0.000008
      f-1     :    -0.000008
      f+2     :     0.000000
      f-2     :     0.000000
      f+3     :     0.000000
      f-3     :     0.000000
  1 F s       :     0.001549  s :     0.001549
      pz      :    -0.001631  p :    -0.008035
      px      :    -0.003202
      py      :    -0.003202
      dz2     :     0.000041  d :     0.000047
      dxz     :     0.000003
      dyz     :     0.000003
      dx2y2   :     0.000000
      dxy     :     0.000000
      f0      :     0.000009  f :     0.000008
      f+1     :    -0.000000
      f-1     :    -0.000000
      f+2     :    -0.000000
      f-2     :    -0.000000
      f+3     :    -0.000000
      f-3     :    -0.000000
      g0      :     0.000000  g :     0.000000
      g+1     :     0.000000
      g-1     :     0.000000
      g+2     :    -0.000000
      g-2     :    -0.000000
      g+3     :     0.000000
      g-3     :     0.000000
      g+4     :    -0.000000
      g-4     :     0.000000


                     *******************************
                     * LOEWDIN POPULATION ANALYSIS *
                     *******************************

-------------------------------------------
LOEWDIN ATOMIC CHARGES AND SPIN POPULATIONS
-------------------------------------------
   0 Sr:    0.483864    1.001961
   1 F :   -0.483864   -0.001961

----------------------------------------------------
LOEWDIN REDUCED ORBITAL CHARGES AND SPIN POPULATIONS
----------------------------------------------------
CHARGE
  0 Srs       :     8.870599  s :     8.870599
      pz      :     6.121356  p :    18.149794
      px      :     6.014219
      py      :     6.014219
      dz2     :     2.266568  d :    10.474794
      dxz     :     2.104113
      dyz     :     2.104113
      dx2y2   :     2.000000
      dxy     :     2.000000
      f0      :     0.013285  f :     0.020950
      f+1     :     0.003832
      f-1     :     0.003832
      f+2     :     0.000000
      f-2     :     0.000000
      f+3     :     0.000000
      f-3     :     0.000000
  1 F s       :     3.836428  s :     3.836428
      pz      :     1.874902  p :     5.626075
      px      :     1.875586
      py      :     1.875586
      dz2     :     0.015639  d :     0.019829
      dxz     :     0.002095
      dyz     :     0.002095
      dx2y2   :     0.000000
      dxy     :     0.000000
      f0      :     0.001206  f :     0.001509
      f+1     :     0.000152
      f-1     :     0.000152
      f+2     :     0.000000
      f-2     :     0.000000
      f+3     :     0.000000
      f-3     :     0.000000
      g0      :     0.000017  g :     0.000023
      g+1     :     0.000003
      g-1     :     0.000003
      g+2     :     0.000000
      g-2     :     0.000000
      g+3     :     0.000000
      g-3     :     0.000000
      g+4     :     0.000000
      g-4     :     0.000000

SPIN
  0 Srs       :     0.852679  s :     0.852679
      pz      :     0.102999  p :     0.103203
      px      :     0.000102
      py      :     0.000102
      dz2     :     0.041259  d :     0.046094
      dxz     :     0.002418
      dyz     :     0.002418
      dx2y2   :    -0.000000
      dxy     :    -0.000000
      f0      :     0.000018  f :    -0.000015
      f+1     :    -0.000017
      f-1     :    -0.000017
      f+2     :     0.000000
      f-2     :     0.000000
      f+3     :     0.000000
      f-3     :     0.000000
  1 F s       :     0.002778  s :     0.002778
      pz      :    -0.000016  p :    -0.005060
      px      :    -0.002522
      py      :    -0.002522
      dz2     :     0.000251  d :     0.000287
      dxz     :     0.000018
      dyz     :     0.000018
      dx2y2   :     0.000000
      dxy     :     0.000000
      f0      :     0.000033  f :     0.000034
      f+1     :     0.000000
      f-1     :     0.000000
      f+2     :     0.000000
      f-2     :     0.000000
      f+3     :    -0.000000
      f-3     :    -0.000000
      g0      :     0.000000  g :     0.000000
      g+1     :    -0.000000
      g-1     :    -0.000000
      g+2     :     0.000000
      g-2     :     0.000000
      g+3     :     0.000000
      g-3     :     0.000000
      g+4     :    -0.000000
      g-4     :     0.000000


                      *****************************
                      * MAYER POPULATION ANALYSIS *
                      *****************************

  NA   - Mulliken gross atomic population
  ZA   - Total nuclear charge
  QA   - Mulliken gross atomic charge
  VA   - Mayer's total valence
  BVA  - Mayer's bonded valence
  FA   - Mayer's free valence

  ATOM       NA         ZA         QA         VA         BVA        FA
  0 Sr    37.3691    38.0000     0.6309     1.6655     0.6720     0.9935
  1 F      9.6309     9.0000    -0.6309     0.6720     0.6720     0.0000

  Mayer bond orders larger than 0.100000
B(  0-Sr,  1-F ) :   0.6720 

-------
TIMINGS
-------

Total SCF time: 0 days 0 hours 0 min 2 sec 

Total time                  ....       2.950 sec
Sum of individual times     ....       2.779 sec  ( 94.2%)

Fock matrix formation       ....       0.527 sec  ( 17.9%)
  XC integration            ....       0.099 sec  ( 18.8% of F)
    Basis function eval.    ....       0.018 sec  ( 18.6% of XC)
    Density eval.           ....       0.021 sec  ( 20.8% of XC)
    XC-Functional eval.     ....       0.010 sec  (  9.6% of XC)
    XC-Potential eval.      ....       0.031 sec  ( 31.4% of XC)
Diagonalization             ....       0.013 sec  (  0.4%)
Density matrix formation    ....       0.001 sec  (  0.0%)
Population analysis         ....       0.006 sec  (  0.2%)
Initial guess               ....       0.011 sec  (  0.4%)
Orbital Transformation      ....       0.000 sec  (  0.0%)
Orbital Orthonormalization  ....       0.007 sec  (  0.3%)
DIIS solution               ....       0.006 sec  (  0.2%)
Grid generation             ....       2.214 sec  ( 75.0%)

Maximum memory used throughout the entire SCF-calculation: 234.6 MB

-------------------------   --------------------
FINAL SINGLE POINT ENERGY     -3231.984864566400
-------------------------   --------------------


                            ***************************************
                            *     ORCA property calculations      *
                            ***************************************

                                    ---------------------
                                    Active property flags
                                    ---------------------
   (+) Dipole Moment


------------------------------------------------------------------------------
                       ORCA ELECTRIC PROPERTIES CALCULATION
------------------------------------------------------------------------------

Dipole Moment Calculation                       ... on
Quadrupole Moment Calculation                   ... off
Polarizability Calculation                      ... off
GBWName                                         ... SrF.gbw
Electron density                                ... SrF.scfp
The origin for moment calculation is the CENTER OF MASS  = ( 0.000000,  0.000000  0.700389)

-------------
DIPOLE MOMENT
-------------
                                X             Y             Z
Electronic contribution:      0.00000      -0.00000      -3.67503
Nuclear contribution   :      0.00000       0.00000       2.45737
                        -----------------------------------------
Total Dipole Moment    :      0.00000      -0.00000      -1.21765
                        -----------------------------------------
Magnitude (a.u.)       :      1.21765
Magnitude (Debye)      :      3.09503



--------------------
Rotational spectrum 
--------------------
 
Rotational constants in cm-1:     0.000000     0.249568     0.249568 
Rotational constants in MHz :     0.000000  7481.873023  7481.873023 

 Dipole components along the rotational axes: 
x,y,z [a.u.] :    -1.217655    -0.000000     0.000000 
x,y,z [Debye]:    -3.095032    -0.000000     0.000000 

 

Timings for individual modules:

Sum of individual times         ...        3.608 sec (=   0.060 min)
GTO integral calculation        ...        0.414 sec (=   0.007 min)  11.5 %
SCF iterations                  ...        3.193 sec (=   0.053 min)  88.5 %
                             ****ORCA TERMINATED NORMALLY****
TOTAL RUN TIME: 0 days 0 hours 0 minutes 3 seconds 910 msec
