
                                 *****************
                                 * O   R   C   A *
                                 *****************

                                            #,                                       
                                            ###                                      
                                            ####                                     
                                            #####                                    
                                            ######                                   
                                           ########,                                 
                                     ,,################,,,,,                         
                               ,,#################################,,                 
                          ,,##########################################,,             
                       ,#########################################, ''#####,          
                    ,#############################################,,   '####,        
                  ,##################################################,,,,####,       
                ,###########''''           ''''###############################       
              ,#####''   ,,,,##########,,,,          '''####'''          '####       
            ,##' ,,,,###########################,,,                        '##       
           ' ,,###''''                  '''############,,,                           
         ,,##''                                '''############,,,,        ,,,,,,###''
      ,#''                                            '''#######################'''  
     '                                                          ''''####''''         
             ,#######,   #######,   ,#######,      ##                                
            ,#'     '#,  ##    ##  ,#'     '#,    #''#        ######   ,####,        
            ##       ##  ##   ,#'  ##            #'  '#       #        #'  '#        
            ##       ##  #######   ##           ,######,      #####,   #    #        
            '#,     ,#'  ##    ##  '#,     ,#' ,#      #,         ##   #,  ,#        
             '#######'   ##     ##  '#######'  #'      '#     #####' # '####'        



                  #######################################################
                  #                        -***-                        #
                  #          Department of theory and spectroscopy      #
                  #    Directorship and core code : Frank Neese         #
                  #        Max Planck Institute fuer Kohlenforschung    #
                  #                Kaiser Wilhelm Platz 1               #
                  #                 D-45470 Muelheim/Ruhr               #
                  #                      Germany                        #
                  #                                                     #
                  #                  All rights reserved                #
                  #                        -***-                        #
                  #######################################################


                         Program Version 5.0.3 -  RELEASE  -


 With contributions from (in alphabetic order):
   Daniel Aravena         : Magnetic Suceptibility
   Michael Atanasov       : Ab Initio Ligand Field Theory (pilot matlab implementation)
   Alexander A. Auer      : GIAO ZORA, VPT2 properties, NMR spectrum
   Ute Becker             : Parallelization
   Giovanni Bistoni       : ED, misc. LED, open-shell LED, HFLD
   Martin Brehm           : Molecular dynamics
   Dmytro Bykov           : SCF Hessian
   Vijay G. Chilkuri      : MRCI spin determinant printing, contributions to CSF-ICE
   Dipayan Datta          : RHF DLPNO-CCSD density
   Achintya Kumar Dutta   : EOM-CC, STEOM-CC
   Dmitry Ganyushin       : Spin-Orbit,Spin-Spin,Magnetic field MRCI
   Miquel Garcia          : C-PCM and meta-GGA Hessian, CC/C-PCM, Gaussian charge scheme
   Yang Guo               : DLPNO-NEVPT2, F12-NEVPT2, CIM, IAO-localization
   Andreas Hansen         : Spin unrestricted coupled pair/coupled cluster methods
   Benjamin Helmich-Paris : MC-RPA, TRAH-SCF, COSX integrals
   Lee Huntington         : MR-EOM, pCC
   Robert Izsak           : Overlap fitted RIJCOSX, COSX-SCS-MP3, EOM
   Marcus Kettner         : VPT2
   Christian Kollmar      : KDIIS, OOCD, Brueckner-CCSD(T), CCSD density, CASPT2, CASPT2-K
   Simone Kossmann        : Meta GGA functionals, TD-DFT gradient, OOMP2, MP2 Hessian
   Martin Krupicka        : Initial AUTO-CI
   Lucas Lang             : DCDCAS
   Marvin Lechner         : AUTO-CI (C++ implementation), FIC-MRCC
   Dagmar Lenk            : GEPOL surface, SMD
   Dimitrios Liakos       : Extrapolation schemes; Compound Job, initial MDCI parallelization
   Dimitrios Manganas     : Further ROCIS development; embedding schemes
   Dimitrios Pantazis     : SARC Basis sets
   Anastasios Papadopoulos: AUTO-CI, single reference methods and gradients
   Taras Petrenko         : DFT Hessian,TD-DFT gradient, ASA, ECA, R-Raman, ABS, FL, XAS/XES, NRVS
   Peter Pinski           : DLPNO-MP2, DLPNO-MP2 Gradient
   Christoph Reimann      : Effective Core Potentials
   Marius Retegan         : Local ZFS, SOC
   Christoph Riplinger    : Optimizer, TS searches, QM/MM, DLPNO-CCSD(T), (RO)-DLPNO pert. Triples
   Tobias Risthaus        : Range-separated hybrids, TD-DFT gradient, RPA, STAB
   Michael Roemelt        : Original ROCIS implementation
   Masaaki Saitow         : Open-shell DLPNO-CCSD energy and density
   Barbara Sandhoefer     : DKH picture change effects
   Avijit Sen             : IP-ROCIS
   Kantharuban Sivalingam : CASSCF convergence, NEVPT2, FIC-MRCI
   Bernardo de Souza      : ESD, SOC TD-DFT
   Georgi Stoychev        : AutoAux, RI-MP2 NMR, DLPNO-MP2 response
   Willem Van den Heuvel  : Paramagnetic NMR
   Boris Wezisla          : Elementary symmetry handling
   Frank Wennmohs         : Technical directorship


 We gratefully acknowledge several colleagues who have allowed us to
 interface, adapt or use parts of their codes:
   Stefan Grimme, W. Hujo, H. Kruse, P. Pracht,  : VdW corrections, initial TS optimization,
                  C. Bannwarth, S. Ehlert          DFT functionals, gCP, sTDA/sTD-DF
   Ed Valeev, F. Pavosevic, A. Kumar             : LibInt (2-el integral package), F12 methods
   Garnet Chan, S. Sharma, J. Yang, R. Olivares  : DMRG
   Ulf Ekstrom                                   : XCFun DFT Library
   Mihaly Kallay                                 : mrcc  (arbitrary order and MRCC methods)
   Jiri Pittner, Ondrej Demel                    : Mk-CCSD
   Frank Weinhold                                : gennbo (NPA and NBO analysis)
   Christopher J. Cramer and Donald G. Truhlar   : smd solvation model
   Lars Goerigk                                  : TD-DFT with DH, B97 family of functionals
   V. Asgeirsson, H. Jonsson                     : NEB implementation
   FAccTs GmbH                                   : IRC, NEB, NEB-TS, DLPNO-Multilevel, CI-OPT
                                                   MM, QMMM, 2- and 3-layer-ONIOM, Crystal-QMMM,
                                                   LR-CPCM, SF, NACMEs, symmetry and pop. for TD-DFT,
                                                   nearIR, NL-DFT gradient (VV10), updates on ESD,
                                                   ML-optimized integration grids
   S Lehtola, MJT Oliveira, MAL Marques          : LibXC Library
   Liviu Ungur et al                             : ANISO software


 Your calculation uses the libint2 library for the computation of 2-el integrals
 For citations please refer to: http://libint.valeyev.net

 Your ORCA version has been built with support for libXC version: 5.1.0
 For citations please refer to: https://tddft.org/programs/libxc/

 This ORCA versions uses:
   CBLAS   interface :  Fast vector & matrix operations
   LAPACKE interface :  Fast linear algebra routines
   SCALAPACK package :  Parallel linear algebra routines
   Shared memory     :  Shared parallel matrices
   BLAS/LAPACK       :  OpenBLAS 0.3.15  USE64BITINT DYNAMIC_ARCH NO_AFFINITY SkylakeX SINGLE_THREADED
        Core in use  :  SkylakeX
   Copyright (c) 2011-2014, The OpenBLAS Project


================================================================================

----- Orbital basis set information -----
Your calculation utilizes the basis: def2-SVP
   F. Weigend and R. Ahlrichs, Phys. Chem. Chem. Phys. 7, 3297 (2005).

The basis set includes element-specific modifications.

Your calculation utilizes the basis: SARC-ZORA-TZVPP 
   Rb-Xe:  J. D. Rolfes, F. Neese and D. A. Pantazis, J. Comput. Chem. 41, 1842 (2020).
   La-Lu:  D. A. Pantazis and F. Neese, J. Chem. Theory Comput. 5, 2229 (2009).
   Hf-Hg:  D. A. Pantazis, X. Y. Chen, C. R. Landis and F. Neese, J. Chem. Theory Comput. 4, 908 (2008).
   Tl-Rn:  D. A. Pantazis and F. Neese, Theor. Chem. Acc. 131, 1292 (2012).
   Ac-Lr:  D. A. Pantazis and F. Neese, J. Chem. Theory Comput. 7, 677 (2011).

Your calculation utilizes the basis: ZORA-def2-QZVPP 
   Exponents from def2-QZVPP [F. Weigend and R. Ahlrichs, Phys. Chem. Chem. Phys. 7, 3297 (2005)],
   recontracted for ZORA by D. A. Pantazis.

================================================================================
                                        WARNINGS
                       Please study these warnings very carefully!
================================================================================

WARNING: Old DensityContainer found on disk!
         Will remove this file - 
         If you want to keep old densities, please start your calculation with a different basename. 


INFO   : the flag for use of the SHARK integral package has been found!

================================================================================
                                       INPUT FILE
================================================================================
NAME = SrO.inp
|  1> !uks pbe nori defgrid3 verytightscf
|  2> 
|  3> %pal nprocs 16 end
|  4> 
|  5> %scf maxiter 400 end
|  6> 
|  7> %basis
|  8>   newgto Sr "sarc-zora-tzvpp" end
|  9>   delecp Sr
| 10>   newgto O "zora-def2-qzvpp" end
| 11>   delecp O
| 12> end
| 13> 
| 14> %rel
| 15>   modelpot 1, 0, 0, 0
| 16> end
| 17> 
| 18> 
| 19> 
| 20> *xyz 0 1
| 21> Sr 0.0000000000 0.0000000000 0.0000000000
| 22> O 0.0000000000 0.0000000000 1.9050000000
| 23> *
| 24> 
| 25>                          ****END OF INPUT****
================================================================================

                       ****************************
                       * Single Point Calculation *
                       ****************************

---------------------------------
CARTESIAN COORDINATES (ANGSTROEM)
---------------------------------
  Sr     0.000000    0.000000    0.000000
  O      0.000000    0.000000    1.905000

----------------------------
CARTESIAN COORDINATES (A.U.)
----------------------------
  NO LB      ZA    FRAG     MASS         X           Y           Z
   0 Sr   38.0000    0    87.620    0.000000    0.000000    0.000000
   1 O     8.0000    0    15.999    0.000000    0.000000    3.599928

--------------------------------
INTERNAL COORDINATES (ANGSTROEM)
--------------------------------
 Sr     0   0   0     0.000000000000     0.00000000     0.00000000
 O      1   0   0     1.905000000000     0.00000000     0.00000000

---------------------------
INTERNAL COORDINATES (A.U.)
---------------------------
 Sr     0   0   0     0.000000000000     0.00000000     0.00000000
 O      1   0   0     3.599928285120     0.00000000     0.00000000

---------------------
BASIS SET INFORMATION
---------------------
There are 2 groups of distinct atoms

 Group   1 Type Sr  : 22s15p9d1f contracted to 15s10p5d1f pattern {811111111111111/6111111111/51111/1}
 Group   2 Type O   : 15s8p3d2f1g contracted to 8s4p3d2f1g pattern {81111111/5111/111/11/1}

Atom   0Sr   basis set group =>   1
Atom   1O    basis set group =>   2

Checking for AutoStart:
The File: SrO.gbw exists
Trying to determine its content:
     ... Fine, the file contains calculation information
     ... Fine, the calculation information was read
     ... Fine, the file contains a basis set
     ... Fine, the basis set was read
     ... Fine, the file contains a geometry
     ... Fine, the geometry was read
     ... Fine, the file contains a set of orbitals
     ... Fine, the orbitals can be read
     => possible old guess file was deleted
     => GBW file was renamed to GES file
     => GES file is set as startup file
     => Guess is set to MORead
     ... now leaving AutoStart



           ************************************************************
           *        Program running with 16 parallel MPI-processes    *
           *              working on a common directory               *
           ************************************************************
------------------------------------------------------------------------------
                           ORCA GTO INTEGRAL CALCULATION
------------------------------------------------------------------------------
------------------------------------------------------------------------------
                   ___                                                        
                  /   \      - P O W E R E D   B Y -                         
                 /     \                                                     
                 |  |  |   _    _      __       _____    __    __             
                 |  |  |  | |  | |    /  \     |  _  \  |  |  /  |          
                  \  \/   | |  | |   /    \    | | | |  |  | /  /          
                 / \  \   | |__| |  /  /\  \   | |_| |  |  |/  /          
                |  |  |   |  __  | /  /__\  \  |    /   |      \           
                |  |  |   | |  | | |   __   |  |    \   |  |\   \          
                \     /   | |  | | |  |  |  |  | |\  \  |  | \   \       
                 \___/    |_|  |_| |__|  |__|  |_| \__\ |__|  \__/        
                                                                              
                      - O R C A' S   B I G   F R I E N D -                    
                                      &                                       
                       - I N T E G R A L  F E E D E R -                       
                                                                              
 v1 FN, 2020, v2 2021                                                         
------------------------------------------------------------------------------


Reading SHARK input file SrO.SHARKINP.tmp ... ok
----------------------
SHARK INTEGRAL PACKAGE
----------------------

Number of atoms                             ...      2
Number of basis functions                   ...    135
Number of shells                            ...     49
Maximum angular momentum                    ...      4
Integral batch strategy                     ... SHARK/LIBINT Hybrid
RI-J (if used) integral strategy            ... SPLIT-RIJ (Revised 2003 algorithm where possible)
Printlevel                                  ...      1
Contraction scheme used                     ... SEGMENTED contraction
Coulomb Range Separation                    ... NOT USED
Exchange Range Separation                   ... NOT USED
Finite Nucleus Model                        ... NOT USED
Auxiliary Coulomb fitting basis             ... NOT available
Auxiliary J/K fitting basis                 ... NOT available
Auxiliary Correlation fitting basis         ... NOT available
Auxiliary 'external' fitting basis          ... NOT available
Integral threshold                          ...     1.000000e-12
Primitive cut-off                           ...     1.000000e-14
Primitive pair pre-selection threshold      ...     1.000000e-14

Calculating pre-screening integrals         ... done (  0.0 sec) Dimension = 49
Organizing shell pair data                  ... done (  0.0 sec)
Shell pair information
Total number of shell pairs                 ...      1225
Shell pairs after pre-screening             ...      1144
Total number of primitive shell pairs       ...      3017
Primitive shell pairs kept                  ...      2504
          la=0 lb=0:    232 shell pairs
          la=1 lb=0:    299 shell pairs
          la=1 lb=1:    105 shell pairs
          la=2 lb=0:    173 shell pairs
          la=2 lb=1:    109 shell pairs
          la=2 lb=2:     36 shell pairs
          la=3 lb=0:     69 shell pairs
          la=3 lb=1:     42 shell pairs
          la=3 lb=2:     24 shell pairs
          la=3 lb=3:      6 shell pairs
          la=4 lb=0:     23 shell pairs
          la=4 lb=1:     14 shell pairs
          la=4 lb=2:      8 shell pairs
          la=4 lb=3:      3 shell pairs
          la=4 lb=4:      1 shell pairs

Calculating one electron integrals          ... done (  0.0 sec)
Calculating Nuclear repulsion               ... done (  0.0 sec) ENN=     84.446126678845 Eh

SHARK setup successfully completed in   0.2 seconds

Maximum memory used throughout the entire GTOINT-calculation: 26.9 MB


           ************************************************************
           *        Program running with 16 parallel MPI-processes    *
           *              working on a common directory               *
           ************************************************************
-------------------------------------------------------------------------------
                                 ORCA SCF
-------------------------------------------------------------------------------

------------
SCF SETTINGS
------------
Hamiltonian:
 Density Functional     Method          .... DFT(GTOs)
 Exchange Functional    Exchange        .... PBE
   PBE kappa parameter   XKappa         ....  0.804000
   PBE mue parameter    XMuePBE         ....  0.219520
 Correlation Functional Correlation     .... PBE
   PBE beta parameter  CBetaPBE         ....  0.066725
 LDA part of GGA corr.  LDAOpt          .... PW91-LDA
 Gradients option       PostSCFGGA      .... off
   Density functional embedding theory  .... OFF
   NL short-range parameter             ....  6.400000


General Settings:
 Integral files         IntName         .... SrO
 Hartree-Fock type      HFTyp           .... UHF
 Total Charge           Charge          ....    0
 Multiplicity           Mult            ....    1
 Number of Electrons    NEL             ....   46
 Basis Dimension        Dim             ....  135
 Nuclear Repulsion      ENuc            ....     84.4461266788 Eh

Convergence Acceleration:
 DIIS                   CNVDIIS         .... on
   Start iteration      DIISMaxIt       ....    12
   Startup error        DIISStart       ....  0.200000
   # of expansion vecs  DIISMaxEq       ....     5
   Bias factor          DIISBfac        ....   1.050
   Max. coefficient     DIISMaxC        ....  10.000
 Trust-Rad. Augm. Hess. CNVTRAH         .... auto
   Auto Start mean grad. ratio tolernc. ....  1.125000
   Auto Start start iteration           ....     1
   Auto Start num. interpolation iter.  ....    10
   Max. Number of Micro iterations      ....    16
   Max. Number of Macro iterations      .... Maxiter - #DIIS iter
   Number of Davidson start vectors     ....     2
   Converg. threshold I  (grad. norm)   ....   2.000e-06
   Converg. threshold II (energy diff.) ....   1.000e-09
   Grad. Scal. Fac. for Micro threshold ....   0.100
   Minimum threshold for Micro iter.    ....   0.010
   NR start threshold (gradient norm)   ....   0.001
   Initial trust radius                 ....   0.400
   Minimum AH scaling param. (alpha)    ....   1.000
   Maximum AH scaling param. (alpha)    .... 1000.000
   Orbital update algorithm             .... Taylor
   White noise on init. David. guess    .... on
   Maximum white noise                  ....   0.010
   Quad. conv. algorithm                .... NR
 SOSCF                  CNVSOSCF        .... off
 Level Shifting         CNVShift        .... on
   Level shift para.    LevelShift      ....    0.2500
   Turn off err/grad.   ShiftErr        ....    0.0010
 Zerner damping         CNVZerner       .... off
 Static damping         CNVDamp         .... on
   Fraction old density DampFac         ....    0.7000
   Max. Damping (<1)    DampMax         ....    0.9800
   Min. Damping (>=0)   DampMin         ....    0.0000
   Turn off err/grad.   DampErr         ....    0.1000
 Fernandez-Rico         CNVRico         .... off

SCF Procedure:
 Maximum # iterations   MaxIter         ....   400
 SCF integral mode      SCFMode         .... Direct
   Integral package                     .... SHARK and LIBINT hybrid scheme
 Reset frequency        DirectResetFreq ....    20
 Integral Threshold     Thresh          ....  1.000e-12 Eh
 Primitive CutOff       TCut            ....  1.000e-14 Eh

Convergence Tolerance:
 Convergence Check Mode ConvCheckMode   .... Total+1el-Energy
 Convergence forced     ConvForced      .... 0
 Energy Change          TolE            ....  1.000e-09 Eh
 1-El. energy change                    ....  1.000e-06 Eh
 DIIS Error             TolErr          ....  1.000e-08


Diagonalization of the overlap matrix:
Smallest eigenvalue                        ... 7.077e-04
Time for diagonalization                   ...    0.004 sec
Threshold for overlap eigenvalues          ... 1.000e-08
Number of eigenvalues below threshold      ... 0
Time for construction of square roots      ...    0.003 sec
Total time needed                          ...    0.007 sec

---------------------
INITIAL GUESS: MOREAD
---------------------
Guess MOs are being read from file: SrO.ges
Input Geometry matches current geometry (good)
Input basis set matches current basis set (good)
MOs were renormalized
MOs were reorthogonalized (Cholesky)
                      ------------------
                      INITIAL GUESS DONE (   0.0 sec)
                      ------------------
-------------------
DFT GRID GENERATION
-------------------

General Integration Accuracy     IntAcc      ... 4.959
Radial Grid Type                 RadialGrid  ... OptM3 with GC (2021)
Angular Grid (max. ang.)         AngularGrid ... 6 (Lebedev-590)
Angular grid pruning method      GridPruning ... 4 (adaptive)
Weight generation scheme         WeightScheme... Becke
Basis function cutoff            BFCut       ... 1.0000e-12
Integration weight cutoff        WCut        ... 1.0000e-14
Angular grids for H and He will be reduced by one unit
Partially contracted basis set               ... off
Rotationally invariant grid construction     ... off

Total number of grid points                  ...    80827
Total number of batches                      ...     1264
Average number of points per batch           ...       63
Average number of grid points per atom       ...    40414
Time for grid setup =    2.182 sec

--------------
SCF ITERATIONS
--------------
ITER       Energy         Delta-E        Max-DP      RMS-DP      [F,P]     Damp
               ***  Starting incremental Fock matrix formation  ***
  0  -3207.2996236437   0.000000000000 0.00000001  0.00000000  0.0000000 0.7000
                 **** Energy Check signals convergence ****

               *****************************************************
               *                     SUCCESS                       *
               *           SCF CONVERGED AFTER   1 CYCLES          *
               *****************************************************


----------------
TOTAL SCF ENERGY
----------------

Total Energy       :        -3207.29962364 Eh          -87275.05974 eV

Components:
Nuclear Repulsion  :           84.44612668 Eh            2297.89593 eV
Electronic Energy  :        -3291.74575032 Eh          -89572.95567 eV
One Electron Energy:        -4615.42516716 Eh         -125592.10378 eV
Two Electron Energy:         1323.67941683 Eh           36019.14811 eV

Virial components:
Potential Energy   :        -6411.57635301 Eh         -174467.86234 eV
Kinetic Energy     :         3204.27672936 Eh           87192.80260 eV
Virial Ratio       :            2.00094339


DFT components:
N(Alpha)           :       22.999930976997 electrons
N(Beta)            :       22.999930976997 electrons
N(Total)           :       45.999861953994 electrons
E(X)               :     -109.846953717363 Eh       
E(C)               :       -2.149781094400 Eh       
E(XC)              :     -111.996734811762 Eh       
DFET-embed. en.    :        0.000000000000 Eh       

---------------
SCF CONVERGENCE
---------------

  Last Energy change         ...   -8.6402e-12  Tolerance :   1.0000e-09
  Last MAX-Density change    ...    4.4690e-09  Tolerance :   1.0000e-08
  Last RMS-Density change    ...    1.5702e-10  Tolerance :   1.0000e-09
  Last DIIS Error            ...    5.0887e-09  Tolerance :   1.0000e-08

             **** THE GBW FILE WAS UPDATED (SrO.gbw) ****
             **** DENSITY SrO.scfp WAS UPDATED ****
             **** ENERGY FILE WAS UPDATED (SrO.en.tmp) ****
----------------------
UHF SPIN CONTAMINATION
----------------------

Warning: in a DFT calculation there is little theoretical justification to 
         calculate <S**2> as in Hartree-Fock theory. We will do it anyways
         but you should keep in mind that the values have only limited relevance

Expectation value of <S**2>     :     0.000000
Ideal value S*(S+1) for S=0.0   :     0.000000
Deviation                       :     0.000000

             **** THE GBW FILE WAS UPDATED (SrO.gbw) ****
             **** DENSITY SrO.scfp WAS UPDATED ****
----------------
ORBITAL ENERGIES
----------------
                 SPIN UP ORBITALS
  NO   OCC          E(Eh)            E(eV) 
   0   1.0000    -573.401813    -15603.0566 
   1   1.0000     -76.479387     -2081.1099 
   2   1.0000     -69.693740     -1896.4631 
   3   1.0000     -69.693740     -1896.4631 
   4   1.0000     -69.692648     -1896.4334 
   5   1.0000     -18.598244      -506.0839 
   6   1.0000     -11.691942      -318.1539 
   7   1.0000      -9.198583      -250.3062 
   8   1.0000      -9.198583      -250.3062 
   9   1.0000      -9.197554      -250.2782 
  10   1.0000      -4.691998      -127.6757 
  11   1.0000      -4.691998      -127.6757 
  12   1.0000      -4.691174      -127.6533 
  13   1.0000      -4.691174      -127.6533 
  14   1.0000      -4.690593      -127.6375 
  15   1.0000      -1.343178       -36.5497 
  16   1.0000      -0.788915       -21.4675 
  17   1.0000      -0.741815       -20.1858 
  18   1.0000      -0.741815       -20.1858 
  19   1.0000      -0.590596       -16.0709 
  20   1.0000      -0.141848        -3.8599 
  21   1.0000      -0.141848        -3.8599 
  22   1.0000      -0.129253        -3.5172 
  23   0.0000      -0.077353        -2.1049 
  24   0.0000      -0.013204        -0.3593 
  25   0.0000      -0.013204        -0.3593 
  26   0.0000       0.005574         0.1517 
  27   0.0000       0.013457         0.3662 
  28   0.0000       0.013458         0.3662 
  29   0.0000       0.075997         2.0680 
  30   0.0000       0.075997         2.0680 
  31   0.0000       0.094550         2.5728 
  32   0.0000       0.107789         2.9331 
  33   0.0000       0.177810         4.8385 
  34   0.0000       0.177810         4.8385 
  35   0.0000       0.230329         6.2676 
  36   0.0000       0.278212         7.5705 
  37   0.0000       0.278215         7.5706 
  38   0.0000       0.279728         7.6118 
  39   0.0000       0.279728         7.6118 
  40   0.0000       0.353820         9.6279 
  41   0.0000       0.381463        10.3801 
  42   0.0000       0.404465        11.0061 
  43   0.0000       0.404465        11.0061 
  44   0.0000       0.619279        16.8514 
  45   0.0000       0.799120        21.7452 
  46   0.0000       0.799120        21.7452 
  47   0.0000       0.864838        23.5334 
  48   0.0000       0.905354        24.6359 
  49   0.0000       1.007925        27.4270 
  50   0.0000       1.007925        27.4270 
  51   0.0000       1.014560        27.6076 
  52   0.0000       1.014560        27.6076 
  53   0.0000       1.133687        30.8492 
  54   0.0000       1.133687        30.8492 
  55   0.0000       1.144550        31.1448 
  56   0.0000       1.235771        33.6270 
  57   0.0000       1.235771        33.6270 
  58   0.0000       1.265817        34.4446 
  59   0.0000       1.265817        34.4446 
  60   0.0000       1.282299        34.8931 
  61   0.0000       1.282299        34.8931 
  62   0.0000       1.397500        38.0279 
  63   0.0000       1.452438        39.5228 
  64   0.0000       1.452438        39.5228 
  65   0.0000       1.558309        42.4037 
  66   0.0000       1.687851        45.9288 
  67   0.0000       1.687851        45.9288 
  68   0.0000       2.136244        58.1302 
  69   0.0000       2.391939        65.0880 
  70   0.0000       3.069409        83.5229 
  71   0.0000       3.148397        85.6722 
  72   0.0000       3.148397        85.6722 
  73   0.0000       3.168726        86.2254 
  74   0.0000       3.168726        86.2254 
  75   0.0000       3.262119        88.7668 
  76   0.0000       3.262119        88.7668 
  77   0.0000       3.345223        91.0281 
  78   0.0000       3.418713        93.0279 
  79   0.0000       3.418713        93.0279 
  80   0.0000       3.797107       103.3245 
  81   0.0000       3.797112       103.3247 
  82   0.0000       3.852705       104.8374 
  83   0.0000       4.007219       109.0420 
  84   0.0000       4.007219       109.0420 
  85   0.0000       4.372400       118.9791 
  86   0.0000       5.041339       137.1818 
  87   0.0000       5.041339       137.1818 
  88   0.0000       5.189962       141.2260 
  89   0.0000       5.189962       141.2260 
  90   0.0000       5.234349       142.4339 
  91   0.0000       5.234349       142.4339 
  92   0.0000       5.265203       143.2735 
  93   0.0000       5.839666       158.9054 
  94   0.0000       8.777675       238.8527 
  95   0.0000       8.862666       241.1654 
  96   0.0000       8.862680       241.1658 
  97   0.0000       8.868795       241.3322 
  98   0.0000       8.868795       241.3322 
  99   0.0000       8.882309       241.6999 
 100   0.0000       8.882429       241.7032 
 101   0.0000       8.888030       241.8556 
 102   0.0000       8.888030       241.8556 
 103   0.0000       9.034222       245.8337 
 104   0.0000      10.915527       297.0266 
 105   0.0000      10.915527       297.0266 
 106   0.0000      10.927215       297.3446 
 107   0.0000      10.927237       297.3452 
 108   0.0000      11.037847       300.3551 
 109   0.0000      11.037847       300.3551 
 110   0.0000      11.294885       307.3494 
 111   0.0000      11.908939       324.0587 
 112   0.0000      11.909041       324.0615 
 113   0.0000      12.039442       327.6099 
 114   0.0000      12.039442       327.6099 
 115   0.0000      12.387673       337.0857 
 116   0.0000      12.653895       344.3300 
 117   0.0000      14.611452       397.5978 
 118   0.0000      14.611452       397.5978 
 119   0.0000      14.898967       405.4215 
 120   0.0000      32.649051       888.4259 
 121   0.0000      45.078082      1226.6370 
 122   0.0000      62.576540      1702.7942 
 123   0.0000      62.576540      1702.7942 
 124   0.0000      62.735547      1707.1210 
 125   0.0000     117.726623      3203.5043 
 126   0.0000     170.150591      4630.0330 
 127   0.0000     279.867899      7615.5927 
 128   0.0000     279.867899      7615.5927 
 129   0.0000     279.988700      7618.8799 
 130   0.0000     390.735913     10632.4647 
 131   0.0000     870.942531     23699.5511 
 132   0.0000    1192.874502     32459.7654 
 133   0.0000    3395.632269     92399.8515 
 134   0.0000   13759.767173    374422.3000 

                 SPIN DOWN ORBITALS
  NO   OCC          E(Eh)            E(eV) 
   0   1.0000    -573.401813    -15603.0566 
   1   1.0000     -76.479387     -2081.1099 
   2   1.0000     -69.693740     -1896.4631 
   3   1.0000     -69.693740     -1896.4631 
   4   1.0000     -69.692648     -1896.4334 
   5   1.0000     -18.598244      -506.0839 
   6   1.0000     -11.691942      -318.1539 
   7   1.0000      -9.198583      -250.3062 
   8   1.0000      -9.198583      -250.3062 
   9   1.0000      -9.197554      -250.2782 
  10   1.0000      -4.691998      -127.6757 
  11   1.0000      -4.691998      -127.6757 
  12   1.0000      -4.691174      -127.6533 
  13   1.0000      -4.691174      -127.6533 
  14   1.0000      -4.690593      -127.6375 
  15   1.0000      -1.343178       -36.5497 
  16   1.0000      -0.788915       -21.4675 
  17   1.0000      -0.741815       -20.1858 
  18   1.0000      -0.741815       -20.1858 
  19   1.0000      -0.590596       -16.0709 
  20   1.0000      -0.141848        -3.8599 
  21   1.0000      -0.141848        -3.8599 
  22   1.0000      -0.129253        -3.5172 
  23   0.0000      -0.077353        -2.1049 
  24   0.0000      -0.013204        -0.3593 
  25   0.0000      -0.013204        -0.3593 
  26   0.0000       0.005574         0.1517 
  27   0.0000       0.013457         0.3662 
  28   0.0000       0.013458         0.3662 
  29   0.0000       0.075997         2.0680 
  30   0.0000       0.075997         2.0680 
  31   0.0000       0.094550         2.5728 
  32   0.0000       0.107789         2.9331 
  33   0.0000       0.177810         4.8385 
  34   0.0000       0.177810         4.8385 
  35   0.0000       0.230329         6.2676 
  36   0.0000       0.278212         7.5705 
  37   0.0000       0.278215         7.5706 
  38   0.0000       0.279728         7.6118 
  39   0.0000       0.279728         7.6118 
  40   0.0000       0.353820         9.6279 
  41   0.0000       0.381463        10.3801 
  42   0.0000       0.404465        11.0061 
  43   0.0000       0.404465        11.0061 
  44   0.0000       0.619279        16.8514 
  45   0.0000       0.799120        21.7452 
  46   0.0000       0.799120        21.7452 
  47   0.0000       0.864838        23.5334 
  48   0.0000       0.905354        24.6359 
  49   0.0000       1.007925        27.4270 
  50   0.0000       1.007925        27.4270 
  51   0.0000       1.014560        27.6076 
  52   0.0000       1.014560        27.6076 
  53   0.0000       1.133687        30.8492 
  54   0.0000       1.133687        30.8492 
  55   0.0000       1.144550        31.1448 
  56   0.0000       1.235771        33.6270 
  57   0.0000       1.235771        33.6270 
  58   0.0000       1.265817        34.4446 
  59   0.0000       1.265817        34.4446 
  60   0.0000       1.282299        34.8931 
  61   0.0000       1.282299        34.8931 
  62   0.0000       1.397500        38.0279 
  63   0.0000       1.452438        39.5228 
  64   0.0000       1.452438        39.5228 
  65   0.0000       1.558309        42.4037 
  66   0.0000       1.687851        45.9288 
  67   0.0000       1.687851        45.9288 
  68   0.0000       2.136244        58.1302 
  69   0.0000       2.391939        65.0880 
  70   0.0000       3.069409        83.5229 
  71   0.0000       3.148397        85.6722 
  72   0.0000       3.148397        85.6722 
  73   0.0000       3.168726        86.2254 
  74   0.0000       3.168726        86.2254 
  75   0.0000       3.262119        88.7668 
  76   0.0000       3.262119        88.7668 
  77   0.0000       3.345223        91.0281 
  78   0.0000       3.418713        93.0279 
  79   0.0000       3.418713        93.0279 
  80   0.0000       3.797107       103.3245 
  81   0.0000       3.797112       103.3247 
  82   0.0000       3.852705       104.8374 
  83   0.0000       4.007219       109.0420 
  84   0.0000       4.007219       109.0420 
  85   0.0000       4.372400       118.9791 
  86   0.0000       5.041339       137.1818 
  87   0.0000       5.041339       137.1818 
  88   0.0000       5.189962       141.2260 
  89   0.0000       5.189962       141.2260 
  90   0.0000       5.234349       142.4339 
  91   0.0000       5.234349       142.4339 
  92   0.0000       5.265203       143.2735 
  93   0.0000       5.839666       158.9054 
  94   0.0000       8.777675       238.8527 
  95   0.0000       8.862666       241.1654 
  96   0.0000       8.862680       241.1658 
  97   0.0000       8.868795       241.3322 
  98   0.0000       8.868795       241.3322 
  99   0.0000       8.882309       241.6999 
 100   0.0000       8.882429       241.7032 
 101   0.0000       8.888030       241.8556 
 102   0.0000       8.888030       241.8556 
 103   0.0000       9.034222       245.8337 
 104   0.0000      10.915527       297.0266 
 105   0.0000      10.915527       297.0266 
 106   0.0000      10.927215       297.3446 
 107   0.0000      10.927237       297.3452 
 108   0.0000      11.037847       300.3551 
 109   0.0000      11.037847       300.3551 
 110   0.0000      11.294885       307.3494 
 111   0.0000      11.908939       324.0587 
 112   0.0000      11.909041       324.0615 
 113   0.0000      12.039442       327.6099 
 114   0.0000      12.039442       327.6099 
 115   0.0000      12.387673       337.0857 
 116   0.0000      12.653895       344.3300 
 117   0.0000      14.611452       397.5978 
 118   0.0000      14.611452       397.5978 
 119   0.0000      14.898967       405.4215 
 120   0.0000      32.649051       888.4259 
 121   0.0000      45.078082      1226.6370 
 122   0.0000      62.576540      1702.7942 
 123   0.0000      62.576540      1702.7942 
 124   0.0000      62.735547      1707.1210 
 125   0.0000     117.726623      3203.5043 
 126   0.0000     170.150591      4630.0330 
 127   0.0000     279.867899      7615.5927 
 128   0.0000     279.867899      7615.5927 
 129   0.0000     279.988700      7618.8799 
 130   0.0000     390.735913     10632.4647 
 131   0.0000     870.942531     23699.5511 
 132   0.0000    1192.874502     32459.7654 
 133   0.0000    3395.632269     92399.8515 
 134   0.0000   13759.767173    374422.3000 

                    ********************************
                    * MULLIKEN POPULATION ANALYSIS *
                    ********************************

--------------------------------------------
MULLIKEN ATOMIC CHARGES AND SPIN POPULATIONS
--------------------------------------------
   0 Sr:    0.842005    0.000000
   1 O :   -0.842005    0.000000
Sum of atomic charges         :   -0.0000000
Sum of atomic spin populations:    0.0000000

-----------------------------------------------------
MULLIKEN REDUCED ORBITAL CHARGES AND SPIN POPULATIONS
-----------------------------------------------------
CHARGE
  0 Srs       :     8.051020  s :     8.051020
      pz      :     6.083310  p :    18.125223
      px      :     6.020956
      py      :     6.020956
      dz2     :     2.365182  d :    10.963997
      dxz     :     2.299408
      dyz     :     2.299408
      dx2y2   :     2.000000
      dxy     :     2.000000
      f0      :     0.008553  f :     0.017756
      f+1     :     0.004601
      f-1     :     0.004601
      f+2     :     0.000000
      f-2     :     0.000000
      f+3     :     0.000000
      f-3     :     0.000000
  1 O s       :     3.950174  s :     3.950174
      pz      :     1.534812  p :     4.871258
      px      :     1.668223
      py      :     1.668223
      dz2     :     0.006434  d :     0.019035
      dxz     :     0.006301
      dyz     :     0.006301
      dx2y2   :     0.000000
      dxy     :     0.000000
      f0      :     0.000507  f :     0.001510
      f+1     :     0.000501
      f-1     :     0.000501
      f+2     :    -0.000000
      f-2     :    -0.000000
      f+3     :     0.000000
      f-3     :     0.000000
      g0      :     0.000009  g :     0.000028
      g+1     :     0.000010
      g-1     :     0.000010
      g+2     :    -0.000000
      g-2     :    -0.000000
      g+3     :     0.000000
      g-3     :     0.000000
      g+4     :     0.000000
      g-4     :     0.000000

SPIN
  0 Srs       :     0.000000  s :     0.000000
      pz      :     0.000000  p :     0.000000
      px      :     0.000000
      py      :     0.000000
      dz2     :     0.000000  d :     0.000000
      dxz     :     0.000000
      dyz     :     0.000000
      dx2y2   :     0.000000
      dxy     :     0.000000
      f0      :     0.000000  f :     0.000000
      f+1     :     0.000000
      f-1     :     0.000000
      f+2     :     0.000000
      f-2     :     0.000000
      f+3     :     0.000000
      f-3     :     0.000000
  1 O s       :     0.000000  s :     0.000000
      pz      :     0.000000  p :     0.000000
      px      :     0.000000
      py      :     0.000000
      dz2     :     0.000000  d :     0.000000
      dxz     :     0.000000
      dyz     :     0.000000
      dx2y2   :     0.000000
      dxy     :     0.000000
      f0      :     0.000000  f :     0.000000
      f+1     :     0.000000
      f-1     :     0.000000
      f+2     :     0.000000
      f-2     :     0.000000
      f+3     :     0.000000
      f-3     :     0.000000
      g0      :     0.000000  g :     0.000000
      g+1     :     0.000000
      g-1     :     0.000000
      g+2     :     0.000000
      g-2     :     0.000000
      g+3     :     0.000000
      g-3     :     0.000000
      g+4     :     0.000000
      g-4     :     0.000000


                     *******************************
                     * LOEWDIN POPULATION ANALYSIS *
                     *******************************

-------------------------------------------
LOEWDIN ATOMIC CHARGES AND SPIN POPULATIONS
-------------------------------------------
   0 Sr:    0.684294    0.000000
   1 O :   -0.684294    0.000000

----------------------------------------------------
LOEWDIN REDUCED ORBITAL CHARGES AND SPIN POPULATIONS
----------------------------------------------------
CHARGE
  0 Srs       :     8.028205  s :     8.028205
      pz      :     6.071326  p :    18.106626
      px      :     6.017650
      py      :     6.017650
      dz2     :     2.497188  d :    11.142615
      dxz     :     2.322714
      dyz     :     2.322714
      dx2y2   :     2.000000
      dxy     :     2.000000
      f0      :     0.023504  f :     0.038260
      f+1     :     0.007378
      f-1     :     0.007378
      f+2     :     0.000000
      f-2     :     0.000000
      f+3     :     0.000000
      f-3     :     0.000000
  1 O s       :     3.707386  s :     3.707386
      pz      :     1.602393  p :     4.883012
      px      :     1.640309
      py      :     1.640309
      dz2     :     0.060638  d :     0.081310
      dxz     :     0.010336
      dyz     :     0.010336
      dx2y2   :     0.000000
      dxy     :     0.000000
      f0      :     0.009165  f :     0.012314
      f+1     :     0.001574
      f-1     :     0.001574
      f+2     :     0.000000
      f-2     :     0.000000
      f+3     :     0.000000
      f-3     :     0.000000
      g0      :     0.000196  g :     0.000273
      g+1     :     0.000039
      g-1     :     0.000039
      g+2     :     0.000000
      g-2     :     0.000000
      g+3     :     0.000000
      g-3     :     0.000000
      g+4     :     0.000000
      g-4     :     0.000000

SPIN
  0 Srs       :     0.000000  s :     0.000000
      pz      :     0.000000  p :     0.000000
      px      :     0.000000
      py      :     0.000000
      dz2     :     0.000000  d :     0.000000
      dxz     :     0.000000
      dyz     :     0.000000
      dx2y2   :     0.000000
      dxy     :     0.000000
      f0      :     0.000000  f :     0.000000
      f+1     :     0.000000
      f-1     :     0.000000
      f+2     :     0.000000
      f-2     :     0.000000
      f+3     :     0.000000
      f-3     :     0.000000
  1 O s       :     0.000000  s :     0.000000
      pz      :     0.000000  p :     0.000000
      px      :     0.000000
      py      :     0.000000
      dz2     :     0.000000  d :     0.000000
      dxz     :     0.000000
      dyz     :     0.000000
      dx2y2   :     0.000000
      dxy     :     0.000000
      f0      :     0.000000  f :     0.000000
      f+1     :     0.000000
      f-1     :     0.000000
      f+2     :     0.000000
      f-2     :     0.000000
      f+3     :     0.000000
      f-3     :     0.000000
      g0      :     0.000000  g :     0.000000
      g+1     :     0.000000
      g-1     :     0.000000
      g+2     :     0.000000
      g-2     :     0.000000
      g+3     :     0.000000
      g-3     :     0.000000
      g+4     :     0.000000
      g-4     :     0.000000


                      *****************************
                      * MAYER POPULATION ANALYSIS *
                      *****************************

  NA   - Mulliken gross atomic population
  ZA   - Total nuclear charge
  QA   - Mulliken gross atomic charge
  VA   - Mayer's total valence
  BVA  - Mayer's bonded valence
  FA   - Mayer's free valence

  ATOM       NA         ZA         QA         VA         BVA        FA
  0 Sr    37.1580    38.0000     0.8420     1.8370     1.8370    -0.0000
  1 O      8.8420     8.0000    -0.8420     1.8370     1.8370     0.0000

  Mayer bond orders larger than 0.100000
B(  0-Sr,  1-O ) :   1.8370 

-------
TIMINGS
-------

Total SCF time: 0 days 0 hours 0 min 2 sec 

Total time                  ....       2.941 sec
Sum of individual times     ....       2.766 sec  ( 94.1%)

Fock matrix formation       ....       0.547 sec  ( 18.6%)
  XC integration            ....       0.108 sec  ( 19.8% of F)
    Basis function eval.    ....       0.018 sec  ( 16.4% of XC)
    Density eval.           ....       0.022 sec  ( 20.2% of XC)
    XC-Functional eval.     ....       0.007 sec  (  6.9% of XC)
    XC-Potential eval.      ....       0.032 sec  ( 29.2% of XC)
Diagonalization             ....       0.013 sec  (  0.5%)
Density matrix formation    ....       0.002 sec  (  0.1%)
Population analysis         ....       0.006 sec  (  0.2%)
Initial guess               ....       0.010 sec  (  0.3%)
Orbital Transformation      ....       0.000 sec  (  0.0%)
Orbital Orthonormalization  ....       0.006 sec  (  0.2%)
DIIS solution               ....       0.006 sec  (  0.2%)
Grid generation             ....       2.182 sec  ( 74.2%)

Maximum memory used throughout the entire SCF-calculation: 234.8 MB

-------------------------   --------------------
FINAL SINGLE POINT ENERGY     -3207.299623643681
-------------------------   --------------------


                            ***************************************
                            *     ORCA property calculations      *
                            ***************************************

                                    ---------------------
                                    Active property flags
                                    ---------------------
   (+) Dipole Moment


------------------------------------------------------------------------------
                       ORCA ELECTRIC PROPERTIES CALCULATION
------------------------------------------------------------------------------

Dipole Moment Calculation                       ... on
Quadrupole Moment Calculation                   ... off
Polarizability Calculation                      ... off
GBWName                                         ... SrO.gbw
Electron density                                ... SrO.scfp
The origin for moment calculation is the CENTER OF MASS  = ( 0.000000,  0.000000  0.555837)

-------------
DIPOLE MOMENT
-------------
                                X             Y             Z
Electronic contribution:      0.00000      -0.00000      -6.25537
Nuclear contribution   :      0.00000       0.00000       3.23093
                        -----------------------------------------
Total Dipole Moment    :      0.00000      -0.00000      -3.02444
                        -----------------------------------------
Magnitude (a.u.)       :      3.02444
Magnitude (Debye)      :      7.68752



--------------------
Rotational spectrum 
--------------------
 
Rotational constants in cm-1:     0.000000     0.343360     0.343360 
Rotational constants in MHz :     0.000000 10293.686878 10293.686878 

 Dipole components along the rotational axes: 
x,y,z [a.u.] :    -3.024441    -0.000000     0.000000 
x,y,z [Debye]:    -7.687517    -0.000000     0.000000 

 

Timings for individual modules:

Sum of individual times         ...        3.590 sec (=   0.060 min)
GTO integral calculation        ...        0.389 sec (=   0.006 min)  10.8 %
SCF iterations                  ...        3.201 sec (=   0.053 min)  89.2 %
                             ****ORCA TERMINATED NORMALLY****
TOTAL RUN TIME: 0 days 0 hours 0 minutes 3 seconds 900 msec
