
                                 *****************
                                 * O   R   C   A *
                                 *****************

           --- An Ab Initio, DFT and Semiempirical electronic structure package ---

                  #######################################################
                  #                        -***-                        #
                  #          Department of theory and spectroscopy      #
                  #               Directorship: Frank Neese             #
                  #        Max Planck Institute fuer Kohlenforschung    #
                  #                Kaiser Wilhelm Platz 1               #
                  #                 D-45470 Muelheim/Ruhr               #
                  #                      Germany                        #
                  #                                                     #
                  #                  All rights reserved                #
                  #                        -***-                        #
                  #######################################################


                         Program Version 4.2.1 -  RELEASE  -


 With contributions from (in alphabetic order):
   Daniel Aravena         : Magnetic Suceptibility
   Michael Atanasov       : Ab Initio Ligand Field Theory (pilot matlab implementation)
   Alexander A. Auer      : GIAO ZORA, VPT2
   Ute Becker             : Parallelization
   Giovanni Bistoni       : ED, misc. LED, open-shell LED, HFLD
   Martin Brehm           : Molecular dynamics
   Dmytro Bykov           : SCF Hessian
   Vijay G. Chilkuri      : MRCI spin determinant printing, contributions to CSF-ICE
   Dipayan Datta          : RHF DLPNO-CCSD density
   Achintya Kumar Dutta   : EOM-CC, STEOM-CC
   Dmitry Ganyushin       : Spin-Orbit,Spin-Spin,Magnetic field MRCI
   Miquel Garcia          : C-PCM Hessian, Gaussian charge scheme
   Yang Guo               : DLPNO-NEVPT2, CIM, IAO-localization
   Andreas Hansen         : Spin unrestricted coupled pair/coupled cluster methods
   Benjamin Helmich-Paris : CASSCF linear response (MC-RPA)
   Lee Huntington         : MR-EOM, pCC
   Robert Izsak           : Overlap fitted RIJCOSX, COSX-SCS-MP3, EOM
   Christian Kollmar      : KDIIS, OOCD, Brueckner-CCSD(T), CCSD density
   Simone Kossmann        : Meta GGA functionals, TD-DFT gradient, OOMP2, MP2 Hessian
   Martin Krupicka        : AUTO-CI
   Lucas Lang             : DCDCAS
   Dagmar Lenk            : GEPOL surface, SMD
   Dimitrios Liakos       : Extrapolation schemes; Compound Job, initial MDCI parallelization
   Dimitrios Manganas     : Further ROCIS development; embedding schemes
   Dimitrios Pantazis     : SARC Basis sets
   Taras Petrenko         : DFT Hessian,TD-DFT gradient, ASA, ECA, R-Raman, ABS, FL, XAS/XES, NRVS
   Peter Pinski           : DLPNO-MP2, DLPNO-MP2 Gradient
   Christoph Reimann      : Effective Core Potentials
   Marius Retegan         : Local ZFS, SOC
   Christoph Riplinger    : Optimizer, TS searches, QM/MM, DLPNO-CCSD(T), (RO)-DLPNO pert. Triples
   Tobias Risthaus        : Range-separated hybrids, TD-DFT gradient, RPA, STAB
   Michael Roemelt        : Original ROCIS implementation
   Masaaki Saitow         : Open-shell DLPNO-CCSD energy and density
   Barbara Sandhoefer     : DKH picture change effects
   Avijit Sen             : IP-ROCIS
   Kantharuban Sivalingam : CASSCF convergence, NEVPT2, FIC-MRCI
   Bernardo de Souza      : ESD, SOC TD-DFT
   Georgi Stoychev        : AutoAux, RI-MP2 NMR
   Willem Van den Heuvel  : Paramagnetic NMR
   Boris Wezisla          : Elementary symmetry handling
   Frank Wennmohs         : Technical directorship


 We gratefully acknowledge several colleagues who have allowed us to
 interface, adapt or use parts of their codes:
   Stefan Grimme, W. Hujo, H. Kruse,             : VdW corrections, initial TS optimization,
                  C. Bannwarth                     DFT functionals, gCP, sTDA/sTD-DF
   Ed Valeev, F. Pavosevic, A. Kumar             : LibInt (2-el integral package), F12 methods
   Garnet Chan, S. Sharma, J. Yang, R. Olivares  : DMRG
   Ulf Ekstrom                                   : XCFun DFT Library
   Mihaly Kallay                                 : mrcc  (arbitrary order and MRCC methods)
   Andreas Klamt, Michael Diedenhofen            : otool_cosmo (COSMO solvation model)
   Jiri Pittner, Ondrej Demel                    : Mk-CCSD
   Frank Weinhold                                : gennbo (NPA and NBO analysis)
   Christopher J. Cramer and Donald G. Truhlar   : smd solvation model
   Lars Goerigk                                  : TD-DFT with DH, B97 family of functionals
   V. Asgeirsson, H. Jonsson                     : NEB implementation
   FAccTs GmbH                                   : IRC, NEB, NEB-TS, Multilevel, MM, QM/MM, CI optimization
   S Lehtola, MJT Oliveira, MAL Marques          : LibXC Library


 Your calculation uses the libint2 library for the computation of 2-el integrals
 For citations please refer to: http://libint.valeyev.net

 Your ORCA version has been built with support for libXC version: 4.2.3
 For citations please refer to: https://tddft.org/programs/libxc/

 This ORCA versions uses:
   CBLAS   interface :  Fast vector & matrix operations
   LAPACKE interface :  Fast linear algebra routines
   SCALAPACK package :  Parallel linear algebra routines




***************************************
The coordinates will be read from file: ../xyzfiles/Ar.xyz
***************************************


----- Orbital basis set information -----
Your calculation utilizes the basis: def2-QZVPPD
   F. Weigend and R. Ahlrichs, Phys. Chem. Chem. Phys. 7, 3297 (2005).
   D. Rappoport and F. Furche, J. Chem. Phys. 133 134105 (2010).

================================================================================
                                        WARNINGS
                       Please study these warnings very carefully!
================================================================================


INFO   : the flag for use of LIBINT has been found!

================================================================================
                                       INPUT FILE
================================================================================
NAME = Ar_.inp
|  1> 
|  2> ! pbe def2-qzvppd nori grid5 finalgrid6 tightscf
|  3> %pal nprocs 18 end
|  4> *xyzfile 16 1 ../xyzfiles/Ar.xyz
|  5> 
|  6>                          ****END OF INPUT****
================================================================================

                       ****************************
                       * Single Point Calculation *
                       ****************************

---------------------------------
CARTESIAN COORDINATES (ANGSTROEM)
---------------------------------
  Ar     0.000000    0.000000    0.000000

----------------------------
CARTESIAN COORDINATES (A.U.)
----------------------------
  NO LB      ZA    FRAG     MASS         X           Y           Z
   0 Ar   18.0000    0    39.948    0.000000    0.000000    0.000000

--------------------------------
INTERNAL COORDINATES (ANGSTROEM)
--------------------------------
 Ar     0   0   0     0.000000000000     0.00000000     0.00000000

---------------------------
INTERNAL COORDINATES (A.U.)
---------------------------
 Ar     0   0   0     0.000000000000     0.00000000     0.00000000

---------------------
BASIS SET INFORMATION
---------------------
There are 1 groups of distinct atoms

 Group   1 Type Ar  : 21s15p5d2f1g contracted to 10s7p5d2f1g pattern {10311111111/8211111/11111/11/1}

Atom   0Ar   basis set group =>   1


           ************************************************************
           *        Program running with 18 parallel MPI-processes    *
           *              working on a common directory               *
           ************************************************************
------------------------------------------------------------------------------
                           ORCA GTO INTEGRAL CALCULATION
------------------------------------------------------------------------------

                         BASIS SET STATISTICS AND STARTUP INFO

 # of primitive gaussian shells          ...   44
 # of primitive gaussian functions       ...  114
 # of contracted shells                  ...   25
 # of contracted basis functions         ...   79
 Highest angular momentum                ...    4
 Maximum contraction depth               ...   10
 Integral package used                   ... LIBINT
 Integral threshhold            Thresh   ...  2.500e-11
 Primitive cut-off              TCut     ...  2.500e-12


------------------------------ INTEGRAL EVALUATION ----------------------------


 * One electron integrals 
 Pre-screening matrix                    ... done
 Shell pair data                         ... done (   0.000 sec)



           ************************************************************
           *        Program running with 18 parallel MPI-processes    *
           *              working on a common directory               *
           ************************************************************
-------------------------------------------------------------------------------
                                 ORCA SCF
-------------------------------------------------------------------------------

------------
SCF SETTINGS
------------
Hamiltonian:
 Density Functional     Method          .... DFT(GTOs)
 Exchange Functional    Exchange        .... PBE
   PBE kappa parameter   XKappa         ....  0.804000
   PBE mue parameter    XMuePBE         ....  0.219520
 Correlation Functional Correlation     .... PBE
   PBE beta parameter  CBetaPBE         ....  0.066725
 LDA part of GGA corr.  LDAOpt          .... PW91-LDA
 Gradients option       PostSCFGGA      .... off
   Density functional embedding theory  .... OFF
   NL short-range parameter             ....  6.400000


General Settings:
 Integral files         IntName         .... Ar_
 Hartree-Fock type      HFTyp           .... RHF
 Total Charge           Charge          ....   16
 Multiplicity           Mult            ....    1
 Number of Electrons    NEL             ....    2
 Basis Dimension        Dim             ....   79
 Nuclear Repulsion      ENuc            ....      0.0000000000 Eh

Convergence Acceleration:
 DIIS                   CNVDIIS         .... on
   Start iteration      DIISMaxIt       ....    12
   Startup error        DIISStart       ....  0.200000
   # of expansion vecs  DIISMaxEq       ....     5
   Bias factor          DIISBfac        ....   1.050
   Max. coefficient     DIISMaxC        ....  10.000
 Newton-Raphson         CNVNR           .... off
 SOSCF                  CNVSOSCF        .... on
   Start iteration      SOSCFMaxIt      ....   150
   Startup grad/error   SOSCFStart      ....  0.003300
 Level Shifting         CNVShift        .... on
   Level shift para.    LevelShift      ....    0.2500
   Turn off err/grad.   ShiftErr        ....    0.0010
 Zerner damping         CNVZerner       .... off
 Static damping         CNVDamp         .... on
   Fraction old density DampFac         ....    0.7000
   Max. Damping (<1)    DampMax         ....    0.9800
   Min. Damping (>=0)   DampMin         ....    0.0000
   Turn off err/grad.   DampErr         ....    0.1000
 Fernandez-Rico         CNVRico         .... off

SCF Procedure:
 Maximum # iterations   MaxIter         ....   125
 SCF integral mode      SCFMode         .... Direct
   Integral package                     .... LIBINT
 Reset frequency        DirectResetFreq ....    20
 Integral Threshold     Thresh          ....  2.500e-11 Eh
 Primitive CutOff       TCut            ....  2.500e-12 Eh

Convergence Tolerance:
 Convergence Check Mode ConvCheckMode   .... Total+1el-Energy
 Convergence forced     ConvForced      .... 0
 Energy Change          TolE            ....  1.000e-08 Eh
 1-El. energy change                    ....  1.000e-05 Eh
 Orbital Gradient       TolG            ....  1.000e-05
 Orbital Rotation angle TolX            ....  1.000e-05
 DIIS Error             TolErr          ....  5.000e-07


Diagonalization of the overlap matrix:
Smallest eigenvalue                        ... 1.555e-03
Time for diagonalization                   ...    0.002 sec
Threshold for overlap eigenvalues          ... 1.000e-08
Number of eigenvalues below threshold      ... 0
Time for construction of square roots      ...    0.001 sec
Total time needed                          ...    0.003 sec

-------------------
DFT GRID GENERATION
-------------------

General Integration Accuracy     IntAcc      ...  5.010
Radial Grid Type                 RadialGrid  ... Gauss-Chebyshev
Angular Grid (max. acc.)         AngularGrid ... Lebedev-434
Angular grid pruning method      GridPruning ... 3 (G Style)
Weight generation scheme         WeightScheme... Becke
Basis function cutoff            BFCut       ...    1.0000e-11
Integration weight cutoff        WCut        ...    1.0000e-14
Grids for H and He will be reduced by one unit

# of grid points (after initial pruning)     ...  11992 (   0.0 sec)
# of grid points (after weights+screening)   ...  11992 (   0.0 sec)
Grid point division into batches done        ...    0.1 sec
Reduced shell lists constructed in    0.1 sec

Total number of grid points                  ...    11992
Total number of batches                      ...      188
Average number of points per batch           ...       63
Average number of grid points per atom       ...    11992
Average number of shells per batch           ...     3.67 (14.67%)
Average number of basis functions per batch  ...    11.00 (13.92%)
Average number of large shells per batch     ...     2.25 (61.36%)
Average number of large basis fcns per batch ...     5.75 (52.27%)
Maximum spatial batch extension              ...  18.71, 18.71, 18.71 au
Average spatial batch extension              ...   0.97,  0.98,  0.97 au

Time for grid setup =    0.147 sec

------------------------------
INITIAL GUESS: MODEL POTENTIAL
------------------------------
Loading Hartree-Fock densities                     ... done
Calculating cut-offs                               ... done
Setting up the integral package                    ... done
Initializing the effective Hamiltonian             ... done
Starting the Coulomb interaction                   ... done (   0.0 sec)
Reading the grid                                   ... done
Mapping shells                                     ... done
Starting the XC term evaluation                    ... done (   0.0 sec)
  promolecular density results
     # of electrons  =     17.999998967
     EX              =    -30.002326568
     EC              =     -0.708269779
     EX+EC           =    -30.710596347
Transforming the Hamiltonian                       ... done (   0.0 sec)
Diagonalizing the Hamiltonian                      ... done (   0.0 sec)
Back transforming the eigenvectors                 ... done (   0.0 sec)
Now organizing SCF variables                       ... done
                      ------------------
                      INITIAL GUESS DONE (   0.2 sec)
                      ------------------
--------------
SCF ITERATIONS
--------------
ITER       Energy         Delta-E        Max-DP      RMS-DP      [F,P]     Damp
               ***  Starting incremental Fock matrix formation  ***
  0   -312.6590583219   0.000000000000 0.00642569  0.00011079  2.2668889 0.7000
  1   -312.6677179335  -0.008659611573 0.00439986  0.00007673  1.5719955 0.7000
  2   -312.6737021630  -0.005984229483 0.00300521  0.00005302  1.0892306 0.7000
  3   -312.6778541949  -0.004152031952 0.00205205  0.00003664  0.7547805 0.7000
                      *** Initiating the SOSCF procedure ***
                      *** Re-Reading the Fockian *** 
                      *** Removing any level shift *** 
ITER      Energy       Delta-E        Grad      Rot      Max-DP    RMS-DP
  4   -312.68074302  -0.0028888297  0.002994  0.002994  0.004669  0.000084
               *** Restarting incremental Fock matrix formation ***
  5   -312.68742907  -0.0066860484  0.006898  0.000039  0.000273  0.000004
  6   -312.68743024  -0.0000011649  0.000218  0.000001  0.000008  0.000000
                 **** Energy Check signals convergence ****
              ***Rediagonalizing the Fockian in SOSCF/NRSCF***

               *****************************************************
               *                     SUCCESS                       *
               *           SCF CONVERGED AFTER   7 CYCLES          *
               *****************************************************

Setting up the final grid:

General Integration Accuracy     IntAcc      ...  5.340
Radial Grid Type                 RadialGrid  ... Gauss-Chebyshev
Angular Grid (max. acc.)         AngularGrid ... Lebedev-590
Angular grid pruning method      GridPruning ... 3 (G Style)
Weight generation scheme         WeightScheme... Becke
Basis function cutoff            BFCut       ...    1.0000e-11
Integration weight cutoff        WCut        ...    1.0000e-14
Grids for H and He will be reduced by one unit

# of grid points (after initial pruning)     ...  18110 (   0.0 sec)
# of grid points (after weights+screening)   ...  18110 (   0.0 sec)
Grid point division into batches done        ...    0.2 sec
Reduced shell lists constructed in    0.2 sec

Total number of grid points                  ...    18110
Total number of batches                      ...      283
Average number of points per batch           ...       63
Average number of grid points per atom       ...    18110
Average number of shells per batch           ...     2.12 ( 8.47%)
Average number of basis functions per batch  ...     6.35 ( 8.04%)
Average number of large shells per batch     ...     0.94 (44.44%)
Average number of large basis fcns per batch ...     2.82 (44.44%)
Maximum spatial batch extension              ...  19.03, 19.03, 19.03 au
Average spatial batch extension              ...   0.84,  0.84,  0.80 au

Final grid set up in    0.2 sec
Final integration                            ... done (   0.0 sec)
Change in XC energy                          ...    -0.000003147
Integrated number of electrons               ...     2.000000009
Previous integrated no of electrons          ...     1.999999874

----------------
TOTAL SCF ENERGY
----------------

Total Energy       :         -312.68743339 Eh           -8508.65763 eV

Components:
Nuclear Repulsion  :            0.00000000 Eh               0.00000 eV
Electronic Energy  :         -312.68743339 Eh           -8508.65763 eV
One Electron Energy:         -323.87471756 Eh           -8813.07911 eV
Two Electron Energy:           11.18728417 Eh             304.42148 eV

Virial components:
Potential Energy   :         -625.32508173 Eh          -17015.96055 eV
Kinetic Energy     :          312.63764834 Eh            8507.30291 eV
Virial Ratio       :            2.00015924


DFT components:
N(Alpha)           :        1.000000004685 electrons
N(Beta)            :        1.000000004685 electrons
N(Total)           :        2.000000009371 electrons
E(X)               :      -10.795132477873 Eh       
E(C)               :       -0.048119967488 Eh       
E(XC)              :      -10.843252445361 Eh       
DFET-embed. en.    :        0.000000000000 Eh       

---------------
SCF CONVERGENCE
---------------

  Last Energy change         ...   -1.1439e-09  Tolerance :   1.0000e-08
  Last MAX-Density change    ...    3.6715e-10  Tolerance :   1.0000e-07
  Last RMS-Density change    ...    7.9617e-12  Tolerance :   5.0000e-09
  Last Orbital Gradient      ...    6.8869e-09  Tolerance :   1.0000e-05
  Last Orbital Rotation      ...    3.6626e-11  Tolerance :   1.0000e-05

================================================================================
                                        WARNING
Number of found core electrons (2) does not match given number of chemical core electrons (10)
================================================================================
             **** THE GBW FILE WAS UPDATED (Ar_.gbw) ****
             **** DENSITY FILE WAS UPDATED (Ar_.scfp) ****
             **** ENERGY FILE WAS UPDATED (Ar_.en.tmp) ****
             **** THE GBW FILE WAS UPDATED (Ar_.gbw) ****
             **** DENSITY FILE WAS UPDATED (Ar_.scfp) ****
----------------
ORBITAL ENERGIES
----------------

  NO   OCC          E(Eh)            E(eV) 
   0   2.0000    -146.820169     -3995.1799 
   1   0.0000     -34.319059      -933.8691 
   2   0.0000     -33.187439      -903.0761 
   3   0.0000     -33.187439      -903.0761 
   4   0.0000     -33.187439      -903.0761 
   5   0.0000     -14.831727      -403.5918 
   6   0.0000     -14.022635      -381.5753 
   7   0.0000     -14.022635      -381.5753 
   8   0.0000     -14.022635      -381.5753 
   9   0.0000     -14.022635      -381.5753 
  10   0.0000     -14.022635      -381.5753 
  11   0.0000     -13.946172      -379.4946 
  12   0.0000     -13.946172      -379.4946 
  13   0.0000     -13.946172      -379.4946 
  14   0.0000      -8.226280      -223.8485 
  15   0.0000      -7.862851      -213.9591 
  16   0.0000      -7.862851      -213.9591 
  17   0.0000      -7.862851      -213.9591 
  18   0.0000      -7.862851      -213.9591 
  19   0.0000      -7.862851      -213.9591 
  20   0.0000      -7.661800      -208.4882 
  21   0.0000      -7.661800      -208.4882 
  22   0.0000      -7.661800      -208.4882 
  23   0.0000      -7.504188      -204.1993 
  24   0.0000      -7.504188      -204.1993 
  25   0.0000      -7.504188      -204.1993 
  26   0.0000      -7.504188      -204.1993 
  27   0.0000      -7.504188      -204.1993 
  28   0.0000      -7.504188      -204.1993 
  29   0.0000      -7.504188      -204.1993 
  30   0.0000      -5.162846      -140.4882 
  31   0.0000      -4.997438      -135.9872 
  32   0.0000      -4.997438      -135.9872 
  33   0.0000      -4.997438      -135.9872 
  34   0.0000      -4.997438      -135.9872 
  35   0.0000      -4.997438      -135.9872 
  36   0.0000      -4.873102      -132.6038 
  37   0.0000      -4.873102      -132.6038 
  38   0.0000      -4.873102      -132.6038 
  39   0.0000      -4.873102      -132.6038 
  40   0.0000      -4.873102      -132.6038 
  41   0.0000      -4.873102      -132.6038 
  42   0.0000      -4.873102      -132.6038 
  43   0.0000      -4.873102      -132.6038 
  44   0.0000      -4.873102      -132.6038 
  45   0.0000      -4.849924      -131.9731 
  46   0.0000      -4.849924      -131.9731 
  47   0.0000      -4.849924      -131.9731 
  48   0.0000      -4.680380      -127.3596 
  49   0.0000      -4.680380      -127.3596 
  50   0.0000      -4.680380      -127.3596 
  51   0.0000      -4.680380      -127.3596 
  52   0.0000      -4.680380      -127.3596 
  53   0.0000      -4.680380      -127.3596 
  54   0.0000      -4.680380      -127.3596 
  55   0.0000      -3.439176       -93.5847 
  56   0.0000      -3.281918       -89.3055 
  57   0.0000      -3.281918       -89.3055 
  58   0.0000      -3.281918       -89.3055 
  59   0.0000      -3.279706       -89.2453 
  60   0.0000      -3.279706       -89.2453 
  61   0.0000      -3.279706       -89.2453 
  62   0.0000      -3.279706       -89.2453 
  63   0.0000      -3.279706       -89.2453 
  64   0.0000      -2.531832       -68.8946 
  65   0.0000      -2.206328       -60.0372 
  66   0.0000      -2.206328       -60.0372 
  67   0.0000      -2.206328       -60.0372 
  68   0.0000      -2.206328       -60.0372 
  69   0.0000      -2.206328       -60.0372 
  70   0.0000      -2.074270       -56.4438 
  71   0.0000      -2.074270       -56.4438 
  72   0.0000      -2.074270       -56.4438 
  73   0.0000      12.908102       351.2473 
  74   0.0000      26.745167       727.7730 
  75   0.0000      26.745167       727.7730 
  76   0.0000      26.745167       727.7730 
  77   0.0000      85.779037      2334.1663 
  78   0.0000     569.915223     15508.1816 

                    ********************************
                    * MULLIKEN POPULATION ANALYSIS *
                    ********************************

-----------------------
MULLIKEN ATOMIC CHARGES
-----------------------
   0 Ar:   16.000000
Sum of atomic charges:   16.0000000

--------------------------------
MULLIKEN REDUCED ORBITAL CHARGES
--------------------------------
  0 Ars       :     2.000000  s :     2.000000
      pz      :     0.000000  p :     0.000000
      px      :     0.000000
      py      :     0.000000
      dz2     :     0.000000  d :     0.000000
      dxz     :     0.000000
      dyz     :     0.000000
      dx2y2   :     0.000000
      dxy     :     0.000000
      f0      :     0.000000  f :     0.000000
      f+1     :     0.000000
      f-1     :     0.000000
      f+2     :     0.000000
      f-2     :     0.000000
      f+3     :     0.000000
      f-3     :     0.000000
      g0      :     0.000000  g :     0.000000
      g+1     :     0.000000
      g-1     :     0.000000
      g+2     :     0.000000
      g-2     :     0.000000
      g+3     :     0.000000
      g-3     :     0.000000
      g+4     :     0.000000
      g-4     :     0.000000


                     *******************************
                     * LOEWDIN POPULATION ANALYSIS *
                     *******************************

----------------------
LOEWDIN ATOMIC CHARGES
----------------------
   0 Ar:   16.000000

-------------------------------
LOEWDIN REDUCED ORBITAL CHARGES
-------------------------------
  0 Ars       :     2.000000  s :     2.000000
      pz      :     0.000000  p :     0.000000
      px      :     0.000000
      py      :     0.000000
      dz2     :     0.000000  d :     0.000000
      dxz     :     0.000000
      dyz     :     0.000000
      dx2y2   :     0.000000
      dxy     :     0.000000
      f0      :     0.000000  f :     0.000000
      f+1     :     0.000000
      f-1     :     0.000000
      f+2     :     0.000000
      f-2     :     0.000000
      f+3     :     0.000000
      f-3     :     0.000000
      g0      :     0.000000  g :     0.000000
      g+1     :     0.000000
      g-1     :     0.000000
      g+2     :     0.000000
      g-2     :     0.000000
      g+3     :     0.000000
      g-3     :     0.000000
      g+4     :     0.000000
      g-4     :     0.000000


                      *****************************
                      * MAYER POPULATION ANALYSIS *
                      *****************************

  NA   - Mulliken gross atomic population
  ZA   - Total nuclear charge
  QA   - Mulliken gross atomic charge
  VA   - Mayer's total valence
  BVA  - Mayer's bonded valence
  FA   - Mayer's free valence

  ATOM       NA         ZA         QA         VA         BVA        FA
  0 Ar     2.0000    18.0000    16.0000    -0.0000     0.0000    -0.0000

  Mayer bond orders larger than 0.100000


--------------------------
ATOM BASIS FOR ELEMENT Ar
--------------------------
 NewGTO Ar
 S 20
    1    1673421.949400000041         0.000011345070
    2     250601.753729999997         0.000088198287
    3      57030.912120000001         0.000463665336
    4      16153.303915000000         0.001953447488
    5       5269.410928800000         0.007061065017
    6       1902.031554100000         0.022508623694
    7        741.576771590000         0.063361377942
    8        307.209019060000         0.152341726940
    9        133.527862030000         0.289666107411
   10         60.253381291000         0.367060237298
   11        522.024262060000        -0.000018904207
   12        161.512904690000        -0.000172073428
   13         62.126369433000        -0.000668422790
   14         27.590930012000         0.223488830560
   15         11.175528881000         0.023084178627
   16          5.295906513700        -0.002139619577
   17          2.478279889500         0.000422520998
   18          0.912620950600        -0.000069198132
   19          0.404260675500         0.000018959316
   20          0.165628863100        -0.000003891596
 S 21
    1    1673421.949400000041         0.000003900530
    2     250601.753729999997         0.000030323305
    3      57030.912120000001         0.000159412002
    4      16153.303915000000         0.000671611507
    5       5269.410928800000         0.002427652931
    6       1902.031554100000         0.007738652193
    7        741.576771590000         0.021784169170
    8        307.209019060000         0.052376353848
    9        133.527862030000         0.099589618971
   10         60.253381291000         0.126198365072
   11        522.024262060000         0.002865538674
   12        161.512904690000         0.026083245519
   13         62.126369433000         0.101320906787
   14         27.590930012000         0.176065866558
   15         11.175528881000        -0.417417464339
   16          5.295906513700        -0.666570643107
   17          2.478279889500        -0.123429913362
   18          0.912620950600         0.004382151499
   19          0.404260675500        -0.001929074325
   20          0.165628863100         0.000692190951
   21          0.065129364700        -0.000171857387
 S 21
    1    1673421.949400000041        -0.000002048504
    2     250601.753729999997        -0.000015925375
    3      57030.912120000001        -0.000083720951
    4      16153.303915000000        -0.000352720959
    5       5269.410928800000        -0.001274969323
    6       1902.031554100000        -0.004064231763
    7        741.576771590000        -0.011440740592
    8        307.209019060000        -0.027507327584
    9        133.527862030000        -0.052303073272
   10         60.253381291000        -0.066277614107
   11        522.024262060000        -0.001979204498
   12        161.512904690000        -0.018015487738
   13         62.126369433000        -0.069981534795
   14         27.590930012000        -0.101807594222
   15         11.175528881000         0.332176348818
   16          5.295906513700         1.116605391469
   17          2.478279889500        -0.931458656041
   18          0.912620950600        -0.896182626606
   19          0.404260675500         0.219547749100
   20          0.165628863100        -0.080892866573
   21          0.065129364700         0.020332926373
 S 21
    1    1673421.949400000041        -0.000001303325
    2     250601.753729999997        -0.000010132243
    3      57030.912120000001        -0.000053266001
    4      16153.303915000000        -0.000224412584
    5       5269.410928800000        -0.000811177090
    6       1902.031554100000        -0.002585796875
    7        741.576771590000        -0.007278972510
    8        307.209019060000        -0.017501059455
    9        133.527862030000        -0.033276922021
   10         60.253381291000        -0.042167980931
   11        522.024262060000        -0.001502893387
   12        161.512904690000        -0.013679919088
   13         62.126369433000        -0.053139928686
   14         27.590930012000        -0.049434828334
   15         11.175528881000         0.168480398318
   16          5.295906513700         1.317811099264
   17          2.478279889500        -2.009346850691
   18          0.912620950600        -0.360899245510
   19          0.404260675500         1.815247513828
   20          0.165628863100        -0.350099653425
   21          0.065129364700         0.082687425534
 S 21
    1    1673421.949400000041         0.000000946308
    2     250601.753729999997         0.000007356738
    3      57030.912120000001         0.000038674953
    4      16153.303915000000         0.000162939697
    5       5269.410928800000         0.000588972984
    6       1902.031554100000         0.001877474747
    7        741.576771590000         0.005285058235
    8        307.209019060000         0.012707029497
    9        133.527862030000         0.024161441813
   10         60.253381291000         0.030616990868
   11        522.024262060000         0.001285588330
   12        161.512904690000         0.011701924088
   13         62.126369433000         0.045456366193
   14         27.590930012000         0.015468153658
   15         11.175528881000        -0.039534003909
   16          5.295906513700        -1.459082100589
   17          2.478279889500         2.807967227645
   18          0.912620950600        -1.782829994030
   19          0.404260675500        -1.076022483650
   20          0.165628863100         2.153704851143
   21          0.065129364700        -0.324631601297
 S 21
    1    1673421.949400000041         0.000000894416
    2     250601.753729999997         0.000006953328
    3      57030.912120000001         0.000036554190
    4      16153.303915000000         0.000154004807
    5       5269.410928800000         0.000556676318
    6       1902.031554100000         0.001774522361
    7        741.576771590000         0.004995249088
    8        307.209019060000         0.012010232372
    9        133.527862030000         0.022836535533
   10         60.253381291000         0.028938090917
   11        522.024262060000         0.001366296058
   12        161.512904690000         0.012436557163
   13         62.126369433000         0.048310063569
   14         27.590930012000        -0.002952262672
   15         11.175528881000         0.038999014474
   16          5.295906513700        -1.795032487687
   17          2.478279889500         3.876821713444
   18          0.912620950600        -4.893524924206
   19          0.404260675500         3.622429449229
   20          0.165628863100        -0.183391353107
   21          0.065129364700        -1.213432029872
 S 21
    1    1673421.949400000041         0.000000883691
    2     250601.753729999997         0.000006869948
    3      57030.912120000001         0.000036115857
    4      16153.303915000000         0.000152158088
    5       5269.410928800000         0.000550001040
    6       1902.031554100000         0.001753243513
    7        741.576771590000         0.004935349506
    8        307.209019060000         0.011866213951
    9        133.527862030000         0.022562695552
   10         60.253381291000         0.028591085292
   11        522.024262060000         0.001374577582
   12        161.512904690000         0.012511938810
   13         62.126369433000         0.048602885135
   14         27.590930012000        -0.004815764136
   15         11.175528881000         0.047758116684
   16          5.295906513700        -1.902058716619
   17          2.478279889500         4.363966351866
   18          0.912620950600        -6.790129880930
   19          0.404260675500         7.902182891223
   20          0.165628863100        -6.044685501650
   21          0.065129364700         2.637593203252
 S 21
    1    1673421.949400000041        -0.000004691410
    2     250601.753729999997        -0.000036471731
    3      57030.912120000001        -0.000191734760
    4      16153.303915000000        -0.000807789058
    5       5269.410928800000        -0.002919889627
    6       1902.031554100000        -0.009307759761
    7        741.576771590000        -0.026201179246
    8        307.209019060000        -0.062996308222
    9        133.527862030000        -0.119782647541
   10         60.253381291000        -0.151786646437
   11        522.024262060000         0.001061585621
   12        161.512904690000         0.009662964470
   13         62.126369433000         0.037535985376
   14         27.590930012000        -1.352613900390
   15         11.175528881000         7.041735412965
   16          5.295906513700       -11.238855036447
   17          2.478279889500         8.831110875396
   18          0.912620950600        -5.305232057803
   19          0.404260675500         3.374048017322
   20          0.165628863100        -1.476433702154
   21          0.065129364700         0.402249946222
 S 21
    1    1673421.949400000041        -0.000002164950
    2     250601.753729999997        -0.000016830651
    3      57030.912120000001        -0.000088480058
    4      16153.303915000000        -0.000372771337
    5       5269.410928800000        -0.001347444793
    6       1902.031554100000        -0.004295262501
    7        741.576771590000        -0.012091088038
    8        307.209019060000        -0.029070978128
    9        133.527862030000        -0.055276234832
   10         60.253381291000        -0.070045156666
   11        522.024262060000        -0.048064712354
   12        161.512904690000        -0.437503672313
   13         62.126369433000        -1.699492065503
   14         27.590930012000         6.182141021593
   15         11.175528881000        -8.744676412409
   16          5.295906513700         7.964701154631
   17          2.478279889500        -4.547094758224
   18          0.912620950600         2.269945668885
   19          0.404260675500        -1.364175561274
   20          0.165628863100         0.580160547369
   21          0.065129364700        -0.155383588798
 S 21
    1    1673421.949400000041        -0.000082144672
    2     250601.753729999997        -0.000638605068
    3      57030.912120000001        -0.003357197085
    4      16153.303915000000        -0.014144055440
    5       5269.410928800000        -0.051126071052
    6       1902.031554100000        -0.162975059922
    7        741.576771590000        -0.458771913701
    8        307.209019060000        -1.103039546717
    9        133.527862030000        -2.097345082241
   10         60.253381291000        -2.657721990544
   11        522.024262060000         0.195474263214
   12        161.512904690000         1.779282633984
   13         62.126369433000         6.911660198771
   14         27.590930012000        -5.375627848517
   15         11.175528881000         5.041681924002
   16          5.295906513700        -4.063864741857
   17          2.478279889500         2.245731756555
   18          0.912620950600        -1.121436151368
   19          0.404260675500         0.676866544561
   20          0.165628863100        -0.288431153278
   21          0.065129364700         0.077240342014
 P 15
    1       2868.450458100000         0.000321458069
    2        679.718695900000         0.002798787985
    3        220.367588240000         0.015221539552
    4         83.620439734000         0.060115945133
    5         34.964322657000         0.177222526974
    6         15.525131784000         0.370979076718
    7          7.099297980600         0.516974088093
    8          3.302133660200         0.381470758615
    9        128.787656670000         0.008776791045
   10          8.435786797700        -0.184403976450
   11          1.461866185500        -0.351272722685
   12          0.646580101000         0.259426077954
   13          0.272292957500        -0.136904258556
   14          0.109051824500         0.051987657548
   15          0.030101149700        -0.011508640644
 P 15
    1       2868.450458100000         0.000172578125
    2        679.718695900000         0.001502558595
    3        220.367588240000         0.008171842668
    4         83.620439734000         0.032273873731
    5         34.964322657000         0.095143766686
    6         15.525131784000         0.199163996380
    7          7.099297980600         0.277542944794
    8          3.302133660200         0.204796565510
    9        128.787656670000         0.007637859253
   10          8.435786797700        -0.160474552777
   11          1.461866185500        -1.536922931244
   12          0.646580101000         0.554749881528
   13          0.272292957500        -0.304955281202
   14          0.109051824500         0.114010662096
   15          0.030101149700        -0.024664316615
 P 15
    1       2868.450458100000         0.000100760270
    2        679.718695900000         0.000877273462
    3        220.367588240000         0.004771155506
    4         83.620439734000         0.018843200562
    5         34.964322657000         0.055549981165
    6         15.525131784000         0.116282512591
    7          7.099297980600         0.162044302982
    8          3.302133660200         0.119571105422
    9        128.787656670000         0.005533155219
   10          8.435786797700        -0.116253858556
   11          1.461866185500        -1.638697222042
   12          0.646580101000         2.024239178979
   13          0.272292957500        -0.221936487237
   14          0.109051824500         0.111306876882
   15          0.030101149700        -0.023863495456
 P 15
    1       2868.450458100000         0.000062992257
    2        679.718695900000         0.000548444695
    3        220.367588240000         0.002982781352
    4         83.620439734000         0.011780196050
    5         34.964322657000         0.034728159186
    6         15.525131784000         0.072696291215
    7          7.099297980600         0.101305171147
    8          3.302133660200         0.074752219461
    9        128.787656670000         0.003831333094
   10          8.435786797700        -0.080497878332
   11          1.461866185500        -1.342402374882
   12          0.646580101000         2.782476097800
   13          0.272292957500        -2.203514918823
   14          0.109051824500         0.117410052342
   15          0.030101149700        -0.027598527473
 P 15
    1       2868.450458100000         0.000035190928
    2        679.718695900000         0.000306391272
    3        220.367588240000         0.001666345178
    4         83.620439734000         0.006581063299
    5         34.964322657000         0.019401053504
    6         15.525131784000         0.040612133453
    7          7.099297980600         0.056594622110
    8          3.302133660200         0.041760687677
    9        128.787656670000         0.002266729454
   10          8.435786797700        -0.047624914703
   11          1.461866185500        -0.837288569982
   12          0.646580101000         2.177263048813
   13          0.272292957500        -3.028966692100
   14          0.109051824500         2.193232386478
   15          0.030101149700        -0.137887354397
 P 15
    1       2868.450458100000         0.000012573537
    2        679.718695900000         0.000109472020
    3        220.367588240000         0.000595376531
    4         83.620439734000         0.002351379946
    5         34.964322657000         0.006931896272
    6         15.525131784000         0.014510505649
    7          7.099297980600         0.020220966347
    8          3.302133660200         0.014920878145
    9        128.787656670000         0.000843692073
   10          8.435786797700        -0.017726316190
   11          1.461866185500        -0.302351258552
   12          0.646580101000         0.846858620188
   13          0.272292957500        -1.432750647056
   14          0.109051824500         1.667529559667
   15          0.030101149700        -1.449079246991
 P 15
    1       2868.450458100000         0.000945529195
    2        679.718695900000         0.008232289087
    3        220.367588240000         0.044772278077
    4         83.620439734000         0.176823625703
    5         34.964322657000         0.521278168490
    6         15.525131784000         1.091189122293
    7          7.099297980600         1.520615411588
    8          3.302133660200         1.122049108421
    9        128.787656670000         0.182658900508
   10          8.435786797700        -3.837738350578
   11          1.461866185500        -0.296546183045
   12          0.646580101000        -0.115211171858
   13          0.272292957500         0.138154622644
   14          0.109051824500        -0.065091622185
   15          0.030101149700         0.015920631567
 D 5
    1          6.315000000000         0.623219584860
    2          1.562000000000         0.657976108408
    3          0.715000000000        -0.212061549539
    4          0.297000000000         0.088330481308
    5          0.101050282200        -0.023288395474
 D 5
    1          6.315000000000         0.522447130950
    2          1.562000000000        -0.033974390288
    3          0.715000000000        -0.973087118591
    4          0.297000000000         0.069174686244
    5          0.101050282200        -0.024014746701
 D 5
    1          6.315000000000         0.425645977849
    2          1.562000000000        -0.485615252372
    3          0.715000000000        -0.428208276231
    4          0.297000000000         1.239291718059
    5          0.101050282200        -0.071244640934
 D 5
    1          6.315000000000         0.385269403436
    2          1.562000000000        -0.824899534451
    3          0.715000000000         0.652313145280
    4          0.297000000000         0.353547821979
    5          0.101050282200        -1.083492745468
 D 5
    1          6.315000000000         0.680881294694
    2          1.562000000000        -1.864897740079
    3          0.715000000000         2.584320410366
    4          0.297000000000        -1.910589719499
    5          0.101050282200         0.924621623919
 F 2
    1          0.543000000000         0.135380426325
    2          1.325000000000         0.906915799365
 F 2
    1          0.543000000000        -1.306286317739
    2          1.325000000000         0.949850270625
 G 1
    1          1.007000000000         1.000000000000
 end
  // -----------------------------------------------
  // The basis set
  // -----------------------------------------------
  BAS[ATNO] = new BFNGauss[NSH];
  // Basis function   1 L = s
  InitBFNGauss(BAS[ATNO][  0]);
  BAS[ATNO][  0].l  = 0;
  BAS[ATNO][  0].ng = 20;
  BAS[ATNO][  0].a[  0] =   1673421.949400000041;     BAS[ATNO][  0].d[  0] =         0.000011345070;
  BAS[ATNO][  0].a[  1] =    250601.753729999997;     BAS[ATNO][  0].d[  1] =         0.000088198287;
  BAS[ATNO][  0].a[  2] =     57030.912120000001;     BAS[ATNO][  0].d[  2] =         0.000463665336;
  BAS[ATNO][  0].a[  3] =     16153.303915000000;     BAS[ATNO][  0].d[  3] =         0.001953447488;
  BAS[ATNO][  0].a[  4] =      5269.410928800000;     BAS[ATNO][  0].d[  4] =         0.007061065017;
  BAS[ATNO][  0].a[  5] =      1902.031554100000;     BAS[ATNO][  0].d[  5] =         0.022508623694;
  BAS[ATNO][  0].a[  6] =       741.576771590000;     BAS[ATNO][  0].d[  6] =         0.063361377942;
  BAS[ATNO][  0].a[  7] =       307.209019060000;     BAS[ATNO][  0].d[  7] =         0.152341726940;
  BAS[ATNO][  0].a[  8] =       133.527862030000;     BAS[ATNO][  0].d[  8] =         0.289666107411;
  BAS[ATNO][  0].a[  9] =        60.253381291000;     BAS[ATNO][  0].d[  9] =         0.367060237298;
  BAS[ATNO][  0].a[ 10] =       522.024262060000;     BAS[ATNO][  0].d[ 10] =        -0.000018904207;
  BAS[ATNO][  0].a[ 11] =       161.512904690000;     BAS[ATNO][  0].d[ 11] =        -0.000172073428;
  BAS[ATNO][  0].a[ 12] =        62.126369433000;     BAS[ATNO][  0].d[ 12] =        -0.000668422790;
  BAS[ATNO][  0].a[ 13] =        27.590930012000;     BAS[ATNO][  0].d[ 13] =         0.223488830560;
  BAS[ATNO][  0].a[ 14] =        11.175528881000;     BAS[ATNO][  0].d[ 14] =         0.023084178627;
  BAS[ATNO][  0].a[ 15] =         5.295906513700;     BAS[ATNO][  0].d[ 15] =        -0.002139619577;
  BAS[ATNO][  0].a[ 16] =         2.478279889500;     BAS[ATNO][  0].d[ 16] =         0.000422520998;
  BAS[ATNO][  0].a[ 17] =         0.912620950600;     BAS[ATNO][  0].d[ 17] =        -0.000069198132;
  BAS[ATNO][  0].a[ 18] =         0.404260675500;     BAS[ATNO][  0].d[ 18] =         0.000018959316;
  BAS[ATNO][  0].a[ 19] =         0.165628863100;     BAS[ATNO][  0].d[ 19] =        -0.000003891596;

  // Basis function   2 L = s
  InitBFNGauss(BAS[ATNO][  1]);
  BAS[ATNO][  1].l  = 0;
  BAS[ATNO][  1].ng = 21;
  BAS[ATNO][  1].a[  0] =   1673421.949400000041;     BAS[ATNO][  1].d[  0] =        -0.000003900530;
  BAS[ATNO][  1].a[  1] =    250601.753729999997;     BAS[ATNO][  1].d[  1] =        -0.000030323305;
  BAS[ATNO][  1].a[  2] =     57030.912120000001;     BAS[ATNO][  1].d[  2] =        -0.000159412002;
  BAS[ATNO][  1].a[  3] =     16153.303915000000;     BAS[ATNO][  1].d[  3] =        -0.000671611507;
  BAS[ATNO][  1].a[  4] =      5269.410928800000;     BAS[ATNO][  1].d[  4] =        -0.002427652931;
  BAS[ATNO][  1].a[  5] =      1902.031554100000;     BAS[ATNO][  1].d[  5] =        -0.007738652193;
  BAS[ATNO][  1].a[  6] =       741.576771590000;     BAS[ATNO][  1].d[  6] =        -0.021784169170;
  BAS[ATNO][  1].a[  7] =       307.209019060000;     BAS[ATNO][  1].d[  7] =        -0.052376353848;
  BAS[ATNO][  1].a[  8] =       133.527862030000;     BAS[ATNO][  1].d[  8] =        -0.099589618971;
  BAS[ATNO][  1].a[  9] =        60.253381291000;     BAS[ATNO][  1].d[  9] =        -0.126198365072;
  BAS[ATNO][  1].a[ 10] =       522.024262060000;     BAS[ATNO][  1].d[ 10] =        -0.002865538674;
  BAS[ATNO][  1].a[ 11] =       161.512904690000;     BAS[ATNO][  1].d[ 11] =        -0.026083245519;
  BAS[ATNO][  1].a[ 12] =        62.126369433000;     BAS[ATNO][  1].d[ 12] =        -0.101320906787;
  BAS[ATNO][  1].a[ 13] =        27.590930012000;     BAS[ATNO][  1].d[ 13] =        -0.176065866558;
  BAS[ATNO][  1].a[ 14] =        11.175528881000;     BAS[ATNO][  1].d[ 14] =         0.417417464339;
  BAS[ATNO][  1].a[ 15] =         5.295906513700;     BAS[ATNO][  1].d[ 15] =         0.666570643107;
  BAS[ATNO][  1].a[ 16] =         2.478279889500;     BAS[ATNO][  1].d[ 16] =         0.123429913362;
  BAS[ATNO][  1].a[ 17] =         0.912620950600;     BAS[ATNO][  1].d[ 17] =        -0.004382151499;
  BAS[ATNO][  1].a[ 18] =         0.404260675500;     BAS[ATNO][  1].d[ 18] =         0.001929074325;
  BAS[ATNO][  1].a[ 19] =         0.165628863100;     BAS[ATNO][  1].d[ 19] =        -0.000692190951;
  BAS[ATNO][  1].a[ 20] =         0.065129364700;     BAS[ATNO][  1].d[ 20] =         0.000171857387;

  // Basis function   3 L = s
  InitBFNGauss(BAS[ATNO][  2]);
  BAS[ATNO][  2].l  = 0;
  BAS[ATNO][  2].ng = 21;
  BAS[ATNO][  2].a[  0] =   1673421.949400000041;     BAS[ATNO][  2].d[  0] =        -0.000002048504;
  BAS[ATNO][  2].a[  1] =    250601.753729999997;     BAS[ATNO][  2].d[  1] =        -0.000015925375;
  BAS[ATNO][  2].a[  2] =     57030.912120000001;     BAS[ATNO][  2].d[  2] =        -0.000083720951;
  BAS[ATNO][  2].a[  3] =     16153.303915000000;     BAS[ATNO][  2].d[  3] =        -0.000352720959;
  BAS[ATNO][  2].a[  4] =      5269.410928800000;     BAS[ATNO][  2].d[  4] =        -0.001274969323;
  BAS[ATNO][  2].a[  5] =      1902.031554100000;     BAS[ATNO][  2].d[  5] =        -0.004064231763;
  BAS[ATNO][  2].a[  6] =       741.576771590000;     BAS[ATNO][  2].d[  6] =        -0.011440740592;
  BAS[ATNO][  2].a[  7] =       307.209019060000;     BAS[ATNO][  2].d[  7] =        -0.027507327584;
  BAS[ATNO][  2].a[  8] =       133.527862030000;     BAS[ATNO][  2].d[  8] =        -0.052303073272;
  BAS[ATNO][  2].a[  9] =        60.253381291000;     BAS[ATNO][  2].d[  9] =        -0.066277614107;
  BAS[ATNO][  2].a[ 10] =       522.024262060000;     BAS[ATNO][  2].d[ 10] =        -0.001979204498;
  BAS[ATNO][  2].a[ 11] =       161.512904690000;     BAS[ATNO][  2].d[ 11] =        -0.018015487738;
  BAS[ATNO][  2].a[ 12] =        62.126369433000;     BAS[ATNO][  2].d[ 12] =        -0.069981534795;
  BAS[ATNO][  2].a[ 13] =        27.590930012000;     BAS[ATNO][  2].d[ 13] =        -0.101807594222;
  BAS[ATNO][  2].a[ 14] =        11.175528881000;     BAS[ATNO][  2].d[ 14] =         0.332176348818;
  BAS[ATNO][  2].a[ 15] =         5.295906513700;     BAS[ATNO][  2].d[ 15] =         1.116605391469;
  BAS[ATNO][  2].a[ 16] =         2.478279889500;     BAS[ATNO][  2].d[ 16] =        -0.931458656041;
  BAS[ATNO][  2].a[ 17] =         0.912620950600;     BAS[ATNO][  2].d[ 17] =        -0.896182626606;
  BAS[ATNO][  2].a[ 18] =         0.404260675500;     BAS[ATNO][  2].d[ 18] =         0.219547749100;
  BAS[ATNO][  2].a[ 19] =         0.165628863100;     BAS[ATNO][  2].d[ 19] =        -0.080892866573;
  BAS[ATNO][  2].a[ 20] =         0.065129364700;     BAS[ATNO][  2].d[ 20] =         0.020332926373;

  // Basis function   4 L = s
  InitBFNGauss(BAS[ATNO][  3]);
  BAS[ATNO][  3].l  = 0;
  BAS[ATNO][  3].ng = 21;
  BAS[ATNO][  3].a[  0] =   1673421.949400000041;     BAS[ATNO][  3].d[  0] =         0.000001303325;
  BAS[ATNO][  3].a[  1] =    250601.753729999997;     BAS[ATNO][  3].d[  1] =         0.000010132243;
  BAS[ATNO][  3].a[  2] =     57030.912120000001;     BAS[ATNO][  3].d[  2] =         0.000053266001;
  BAS[ATNO][  3].a[  3] =     16153.303915000000;     BAS[ATNO][  3].d[  3] =         0.000224412584;
  BAS[ATNO][  3].a[  4] =      5269.410928800000;     BAS[ATNO][  3].d[  4] =         0.000811177090;
  BAS[ATNO][  3].a[  5] =      1902.031554100000;     BAS[ATNO][  3].d[  5] =         0.002585796875;
  BAS[ATNO][  3].a[  6] =       741.576771590000;     BAS[ATNO][  3].d[  6] =         0.007278972510;
  BAS[ATNO][  3].a[  7] =       307.209019060000;     BAS[ATNO][  3].d[  7] =         0.017501059455;
  BAS[ATNO][  3].a[  8] =       133.527862030000;     BAS[ATNO][  3].d[  8] =         0.033276922021;
  BAS[ATNO][  3].a[  9] =        60.253381291000;     BAS[ATNO][  3].d[  9] =         0.042167980931;
  BAS[ATNO][  3].a[ 10] =       522.024262060000;     BAS[ATNO][  3].d[ 10] =         0.001502893387;
  BAS[ATNO][  3].a[ 11] =       161.512904690000;     BAS[ATNO][  3].d[ 11] =         0.013679919088;
  BAS[ATNO][  3].a[ 12] =        62.126369433000;     BAS[ATNO][  3].d[ 12] =         0.053139928686;
  BAS[ATNO][  3].a[ 13] =        27.590930012000;     BAS[ATNO][  3].d[ 13] =         0.049434828334;
  BAS[ATNO][  3].a[ 14] =        11.175528881000;     BAS[ATNO][  3].d[ 14] =        -0.168480398318;
  BAS[ATNO][  3].a[ 15] =         5.295906513700;     BAS[ATNO][  3].d[ 15] =        -1.317811099264;
  BAS[ATNO][  3].a[ 16] =         2.478279889500;     BAS[ATNO][  3].d[ 16] =         2.009346850691;
  BAS[ATNO][  3].a[ 17] =         0.912620950600;     BAS[ATNO][  3].d[ 17] =         0.360899245510;
  BAS[ATNO][  3].a[ 18] =         0.404260675500;     BAS[ATNO][  3].d[ 18] =        -1.815247513828;
  BAS[ATNO][  3].a[ 19] =         0.165628863100;     BAS[ATNO][  3].d[ 19] =         0.350099653425;
  BAS[ATNO][  3].a[ 20] =         0.065129364700;     BAS[ATNO][  3].d[ 20] =        -0.082687425534;

  // Basis function   5 L = s
  InitBFNGauss(BAS[ATNO][  4]);
  BAS[ATNO][  4].l  = 0;
  BAS[ATNO][  4].ng = 21;
  BAS[ATNO][  4].a[  0] =   1673421.949400000041;     BAS[ATNO][  4].d[  0] =         0.000000946308;
  BAS[ATNO][  4].a[  1] =    250601.753729999997;     BAS[ATNO][  4].d[  1] =         0.000007356738;
  BAS[ATNO][  4].a[  2] =     57030.912120000001;     BAS[ATNO][  4].d[  2] =         0.000038674953;
  BAS[ATNO][  4].a[  3] =     16153.303915000000;     BAS[ATNO][  4].d[  3] =         0.000162939697;
  BAS[ATNO][  4].a[  4] =      5269.410928800000;     BAS[ATNO][  4].d[  4] =         0.000588972984;
  BAS[ATNO][  4].a[  5] =      1902.031554100000;     BAS[ATNO][  4].d[  5] =         0.001877474747;
  BAS[ATNO][  4].a[  6] =       741.576771590000;     BAS[ATNO][  4].d[  6] =         0.005285058235;
  BAS[ATNO][  4].a[  7] =       307.209019060000;     BAS[ATNO][  4].d[  7] =         0.012707029497;
  BAS[ATNO][  4].a[  8] =       133.527862030000;     BAS[ATNO][  4].d[  8] =         0.024161441813;
  BAS[ATNO][  4].a[  9] =        60.253381291000;     BAS[ATNO][  4].d[  9] =         0.030616990868;
  BAS[ATNO][  4].a[ 10] =       522.024262060000;     BAS[ATNO][  4].d[ 10] =         0.001285588330;
  BAS[ATNO][  4].a[ 11] =       161.512904690000;     BAS[ATNO][  4].d[ 11] =         0.011701924088;
  BAS[ATNO][  4].a[ 12] =        62.126369433000;     BAS[ATNO][  4].d[ 12] =         0.045456366193;
  BAS[ATNO][  4].a[ 13] =        27.590930012000;     BAS[ATNO][  4].d[ 13] =         0.015468153658;
  BAS[ATNO][  4].a[ 14] =        11.175528881000;     BAS[ATNO][  4].d[ 14] =        -0.039534003909;
  BAS[ATNO][  4].a[ 15] =         5.295906513700;     BAS[ATNO][  4].d[ 15] =        -1.459082100589;
  BAS[ATNO][  4].a[ 16] =         2.478279889500;     BAS[ATNO][  4].d[ 16] =         2.807967227645;
  BAS[ATNO][  4].a[ 17] =         0.912620950600;     BAS[ATNO][  4].d[ 17] =        -1.782829994030;
  BAS[ATNO][  4].a[ 18] =         0.404260675500;     BAS[ATNO][  4].d[ 18] =        -1.076022483650;
  BAS[ATNO][  4].a[ 19] =         0.165628863100;     BAS[ATNO][  4].d[ 19] =         2.153704851143;
  BAS[ATNO][  4].a[ 20] =         0.065129364700;     BAS[ATNO][  4].d[ 20] =        -0.324631601297;

  // Basis function   6 L = s
  InitBFNGauss(BAS[ATNO][  5]);
  BAS[ATNO][  5].l  = 0;
  BAS[ATNO][  5].ng = 21;
  BAS[ATNO][  5].a[  0] =   1673421.949400000041;     BAS[ATNO][  5].d[  0] =        -0.000000894416;
  BAS[ATNO][  5].a[  1] =    250601.753729999997;     BAS[ATNO][  5].d[  1] =        -0.000006953328;
  BAS[ATNO][  5].a[  2] =     57030.912120000001;     BAS[ATNO][  5].d[  2] =        -0.000036554190;
  BAS[ATNO][  5].a[  3] =     16153.303915000000;     BAS[ATNO][  5].d[  3] =        -0.000154004807;
  BAS[ATNO][  5].a[  4] =      5269.410928800000;     BAS[ATNO][  5].d[  4] =        -0.000556676318;
  BAS[ATNO][  5].a[  5] =      1902.031554100000;     BAS[ATNO][  5].d[  5] =        -0.001774522361;
  BAS[ATNO][  5].a[  6] =       741.576771590000;     BAS[ATNO][  5].d[  6] =        -0.004995249088;
  BAS[ATNO][  5].a[  7] =       307.209019060000;     BAS[ATNO][  5].d[  7] =        -0.012010232372;
  BAS[ATNO][  5].a[  8] =       133.527862030000;     BAS[ATNO][  5].d[  8] =        -0.022836535533;
  BAS[ATNO][  5].a[  9] =        60.253381291000;     BAS[ATNO][  5].d[  9] =        -0.028938090917;
  BAS[ATNO][  5].a[ 10] =       522.024262060000;     BAS[ATNO][  5].d[ 10] =        -0.001366296058;
  BAS[ATNO][  5].a[ 11] =       161.512904690000;     BAS[ATNO][  5].d[ 11] =        -0.012436557163;
  BAS[ATNO][  5].a[ 12] =        62.126369433000;     BAS[ATNO][  5].d[ 12] =        -0.048310063569;
  BAS[ATNO][  5].a[ 13] =        27.590930012000;     BAS[ATNO][  5].d[ 13] =         0.002952262672;
  BAS[ATNO][  5].a[ 14] =        11.175528881000;     BAS[ATNO][  5].d[ 14] =        -0.038999014474;
  BAS[ATNO][  5].a[ 15] =         5.295906513700;     BAS[ATNO][  5].d[ 15] =         1.795032487687;
  BAS[ATNO][  5].a[ 16] =         2.478279889500;     BAS[ATNO][  5].d[ 16] =        -3.876821713444;
  BAS[ATNO][  5].a[ 17] =         0.912620950600;     BAS[ATNO][  5].d[ 17] =         4.893524924206;
  BAS[ATNO][  5].a[ 18] =         0.404260675500;     BAS[ATNO][  5].d[ 18] =        -3.622429449229;
  BAS[ATNO][  5].a[ 19] =         0.165628863100;     BAS[ATNO][  5].d[ 19] =         0.183391353107;
  BAS[ATNO][  5].a[ 20] =         0.065129364700;     BAS[ATNO][  5].d[ 20] =         1.213432029872;

  // Basis function   7 L = s
  InitBFNGauss(BAS[ATNO][  6]);
  BAS[ATNO][  6].l  = 0;
  BAS[ATNO][  6].ng = 21;
  BAS[ATNO][  6].a[  0] =   1673421.949400000041;     BAS[ATNO][  6].d[  0] =         0.000000883691;
  BAS[ATNO][  6].a[  1] =    250601.753729999997;     BAS[ATNO][  6].d[  1] =         0.000006869948;
  BAS[ATNO][  6].a[  2] =     57030.912120000001;     BAS[ATNO][  6].d[  2] =         0.000036115857;
  BAS[ATNO][  6].a[  3] =     16153.303915000000;     BAS[ATNO][  6].d[  3] =         0.000152158088;
  BAS[ATNO][  6].a[  4] =      5269.410928800000;     BAS[ATNO][  6].d[  4] =         0.000550001040;
  BAS[ATNO][  6].a[  5] =      1902.031554100000;     BAS[ATNO][  6].d[  5] =         0.001753243513;
  BAS[ATNO][  6].a[  6] =       741.576771590000;     BAS[ATNO][  6].d[  6] =         0.004935349506;
  BAS[ATNO][  6].a[  7] =       307.209019060000;     BAS[ATNO][  6].d[  7] =         0.011866213951;
  BAS[ATNO][  6].a[  8] =       133.527862030000;     BAS[ATNO][  6].d[  8] =         0.022562695552;
  BAS[ATNO][  6].a[  9] =        60.253381291000;     BAS[ATNO][  6].d[  9] =         0.028591085292;
  BAS[ATNO][  6].a[ 10] =       522.024262060000;     BAS[ATNO][  6].d[ 10] =         0.001374577582;
  BAS[ATNO][  6].a[ 11] =       161.512904690000;     BAS[ATNO][  6].d[ 11] =         0.012511938810;
  BAS[ATNO][  6].a[ 12] =        62.126369433000;     BAS[ATNO][  6].d[ 12] =         0.048602885135;
  BAS[ATNO][  6].a[ 13] =        27.590930012000;     BAS[ATNO][  6].d[ 13] =        -0.004815764136;
  BAS[ATNO][  6].a[ 14] =        11.175528881000;     BAS[ATNO][  6].d[ 14] =         0.047758116684;
  BAS[ATNO][  6].a[ 15] =         5.295906513700;     BAS[ATNO][  6].d[ 15] =        -1.902058716619;
  BAS[ATNO][  6].a[ 16] =         2.478279889500;     BAS[ATNO][  6].d[ 16] =         4.363966351866;
  BAS[ATNO][  6].a[ 17] =         0.912620950600;     BAS[ATNO][  6].d[ 17] =        -6.790129880930;
  BAS[ATNO][  6].a[ 18] =         0.404260675500;     BAS[ATNO][  6].d[ 18] =         7.902182891223;
  BAS[ATNO][  6].a[ 19] =         0.165628863100;     BAS[ATNO][  6].d[ 19] =        -6.044685501650;
  BAS[ATNO][  6].a[ 20] =         0.065129364700;     BAS[ATNO][  6].d[ 20] =         2.637593203252;

  // Basis function   8 L = s
  InitBFNGauss(BAS[ATNO][  7]);
  BAS[ATNO][  7].l  = 0;
  BAS[ATNO][  7].ng = 21;
  BAS[ATNO][  7].a[  0] =   1673421.949400000041;     BAS[ATNO][  7].d[  0] =         0.000004691410;
  BAS[ATNO][  7].a[  1] =    250601.753729999997;     BAS[ATNO][  7].d[  1] =         0.000036471731;
  BAS[ATNO][  7].a[  2] =     57030.912120000001;     BAS[ATNO][  7].d[  2] =         0.000191734760;
  BAS[ATNO][  7].a[  3] =     16153.303915000000;     BAS[ATNO][  7].d[  3] =         0.000807789058;
  BAS[ATNO][  7].a[  4] =      5269.410928800000;     BAS[ATNO][  7].d[  4] =         0.002919889627;
  BAS[ATNO][  7].a[  5] =      1902.031554100000;     BAS[ATNO][  7].d[  5] =         0.009307759761;
  BAS[ATNO][  7].a[  6] =       741.576771590000;     BAS[ATNO][  7].d[  6] =         0.026201179246;
  BAS[ATNO][  7].a[  7] =       307.209019060000;     BAS[ATNO][  7].d[  7] =         0.062996308222;
  BAS[ATNO][  7].a[  8] =       133.527862030000;     BAS[ATNO][  7].d[  8] =         0.119782647541;
  BAS[ATNO][  7].a[  9] =        60.253381291000;     BAS[ATNO][  7].d[  9] =         0.151786646437;
  BAS[ATNO][  7].a[ 10] =       522.024262060000;     BAS[ATNO][  7].d[ 10] =        -0.001061585621;
  BAS[ATNO][  7].a[ 11] =       161.512904690000;     BAS[ATNO][  7].d[ 11] =        -0.009662964470;
  BAS[ATNO][  7].a[ 12] =        62.126369433000;     BAS[ATNO][  7].d[ 12] =        -0.037535985376;
  BAS[ATNO][  7].a[ 13] =        27.590930012000;     BAS[ATNO][  7].d[ 13] =         1.352613900390;
  BAS[ATNO][  7].a[ 14] =        11.175528881000;     BAS[ATNO][  7].d[ 14] =        -7.041735412965;
  BAS[ATNO][  7].a[ 15] =         5.295906513700;     BAS[ATNO][  7].d[ 15] =        11.238855036447;
  BAS[ATNO][  7].a[ 16] =         2.478279889500;     BAS[ATNO][  7].d[ 16] =        -8.831110875396;
  BAS[ATNO][  7].a[ 17] =         0.912620950600;     BAS[ATNO][  7].d[ 17] =         5.305232057803;
  BAS[ATNO][  7].a[ 18] =         0.404260675500;     BAS[ATNO][  7].d[ 18] =        -3.374048017322;
  BAS[ATNO][  7].a[ 19] =         0.165628863100;     BAS[ATNO][  7].d[ 19] =         1.476433702154;
  BAS[ATNO][  7].a[ 20] =         0.065129364700;     BAS[ATNO][  7].d[ 20] =        -0.402249946222;

  // Basis function   9 L = s
  InitBFNGauss(BAS[ATNO][  8]);
  BAS[ATNO][  8].l  = 0;
  BAS[ATNO][  8].ng = 21;
  BAS[ATNO][  8].a[  0] =   1673421.949400000041;     BAS[ATNO][  8].d[  0] =         0.000002164950;
  BAS[ATNO][  8].a[  1] =    250601.753729999997;     BAS[ATNO][  8].d[  1] =         0.000016830651;
  BAS[ATNO][  8].a[  2] =     57030.912120000001;     BAS[ATNO][  8].d[  2] =         0.000088480058;
  BAS[ATNO][  8].a[  3] =     16153.303915000000;     BAS[ATNO][  8].d[  3] =         0.000372771337;
  BAS[ATNO][  8].a[  4] =      5269.410928800000;     BAS[ATNO][  8].d[  4] =         0.001347444793;
  BAS[ATNO][  8].a[  5] =      1902.031554100000;     BAS[ATNO][  8].d[  5] =         0.004295262501;
  BAS[ATNO][  8].a[  6] =       741.576771590000;     BAS[ATNO][  8].d[  6] =         0.012091088038;
  BAS[ATNO][  8].a[  7] =       307.209019060000;     BAS[ATNO][  8].d[  7] =         0.029070978128;
  BAS[ATNO][  8].a[  8] =       133.527862030000;     BAS[ATNO][  8].d[  8] =         0.055276234832;
  BAS[ATNO][  8].a[  9] =        60.253381291000;     BAS[ATNO][  8].d[  9] =         0.070045156666;
  BAS[ATNO][  8].a[ 10] =       522.024262060000;     BAS[ATNO][  8].d[ 10] =         0.048064712354;
  BAS[ATNO][  8].a[ 11] =       161.512904690000;     BAS[ATNO][  8].d[ 11] =         0.437503672313;
  BAS[ATNO][  8].a[ 12] =        62.126369433000;     BAS[ATNO][  8].d[ 12] =         1.699492065503;
  BAS[ATNO][  8].a[ 13] =        27.590930012000;     BAS[ATNO][  8].d[ 13] =        -6.182141021593;
  BAS[ATNO][  8].a[ 14] =        11.175528881000;     BAS[ATNO][  8].d[ 14] =         8.744676412409;
  BAS[ATNO][  8].a[ 15] =         5.295906513700;     BAS[ATNO][  8].d[ 15] =        -7.964701154631;
  BAS[ATNO][  8].a[ 16] =         2.478279889500;     BAS[ATNO][  8].d[ 16] =         4.547094758224;
  BAS[ATNO][  8].a[ 17] =         0.912620950600;     BAS[ATNO][  8].d[ 17] =        -2.269945668885;
  BAS[ATNO][  8].a[ 18] =         0.404260675500;     BAS[ATNO][  8].d[ 18] =         1.364175561274;
  BAS[ATNO][  8].a[ 19] =         0.165628863100;     BAS[ATNO][  8].d[ 19] =        -0.580160547369;
  BAS[ATNO][  8].a[ 20] =         0.065129364700;     BAS[ATNO][  8].d[ 20] =         0.155383588798;

  // Basis function  10 L = s
  InitBFNGauss(BAS[ATNO][  9]);
  BAS[ATNO][  9].l  = 0;
  BAS[ATNO][  9].ng = 21;
  BAS[ATNO][  9].a[  0] =   1673421.949400000041;     BAS[ATNO][  9].d[  0] =        -0.000082144672;
  BAS[ATNO][  9].a[  1] =    250601.753729999997;     BAS[ATNO][  9].d[  1] =        -0.000638605068;
  BAS[ATNO][  9].a[  2] =     57030.912120000001;     BAS[ATNO][  9].d[  2] =        -0.003357197085;
  BAS[ATNO][  9].a[  3] =     16153.303915000000;     BAS[ATNO][  9].d[  3] =        -0.014144055440;
  BAS[ATNO][  9].a[  4] =      5269.410928800000;     BAS[ATNO][  9].d[  4] =        -0.051126071052;
  BAS[ATNO][  9].a[  5] =      1902.031554100000;     BAS[ATNO][  9].d[  5] =        -0.162975059922;
  BAS[ATNO][  9].a[  6] =       741.576771590000;     BAS[ATNO][  9].d[  6] =        -0.458771913701;
  BAS[ATNO][  9].a[  7] =       307.209019060000;     BAS[ATNO][  9].d[  7] =        -1.103039546717;
  BAS[ATNO][  9].a[  8] =       133.527862030000;     BAS[ATNO][  9].d[  8] =        -2.097345082241;
  BAS[ATNO][  9].a[  9] =        60.253381291000;     BAS[ATNO][  9].d[  9] =        -2.657721990544;
  BAS[ATNO][  9].a[ 10] =       522.024262060000;     BAS[ATNO][  9].d[ 10] =         0.195474263214;
  BAS[ATNO][  9].a[ 11] =       161.512904690000;     BAS[ATNO][  9].d[ 11] =         1.779282633984;
  BAS[ATNO][  9].a[ 12] =        62.126369433000;     BAS[ATNO][  9].d[ 12] =         6.911660198771;
  BAS[ATNO][  9].a[ 13] =        27.590930012000;     BAS[ATNO][  9].d[ 13] =        -5.375627848517;
  BAS[ATNO][  9].a[ 14] =        11.175528881000;     BAS[ATNO][  9].d[ 14] =         5.041681924002;
  BAS[ATNO][  9].a[ 15] =         5.295906513700;     BAS[ATNO][  9].d[ 15] =        -4.063864741857;
  BAS[ATNO][  9].a[ 16] =         2.478279889500;     BAS[ATNO][  9].d[ 16] =         2.245731756555;
  BAS[ATNO][  9].a[ 17] =         0.912620950600;     BAS[ATNO][  9].d[ 17] =        -1.121436151368;
  BAS[ATNO][  9].a[ 18] =         0.404260675500;     BAS[ATNO][  9].d[ 18] =         0.676866544561;
  BAS[ATNO][  9].a[ 19] =         0.165628863100;     BAS[ATNO][  9].d[ 19] =        -0.288431153278;
  BAS[ATNO][  9].a[ 20] =         0.065129364700;     BAS[ATNO][  9].d[ 20] =         0.077240342014;

  // Basis function  11 L = p
  InitBFNGauss(BAS[ATNO][ 10]);
  BAS[ATNO][ 10].l  = 1;
  BAS[ATNO][ 10].ng = 15;
  BAS[ATNO][ 10].a[  0] =      2868.450458100000;     BAS[ATNO][ 10].d[  0] =         0.000321458069;
  BAS[ATNO][ 10].a[  1] =       679.718695900000;     BAS[ATNO][ 10].d[  1] =         0.002798787985;
  BAS[ATNO][ 10].a[  2] =       220.367588240000;     BAS[ATNO][ 10].d[  2] =         0.015221539552;
  BAS[ATNO][ 10].a[  3] =        83.620439734000;     BAS[ATNO][ 10].d[  3] =         0.060115945133;
  BAS[ATNO][ 10].a[  4] =        34.964322657000;     BAS[ATNO][ 10].d[  4] =         0.177222526974;
  BAS[ATNO][ 10].a[  5] =        15.525131784000;     BAS[ATNO][ 10].d[  5] =         0.370979076718;
  BAS[ATNO][ 10].a[  6] =         7.099297980600;     BAS[ATNO][ 10].d[  6] =         0.516974088093;
  BAS[ATNO][ 10].a[  7] =         3.302133660200;     BAS[ATNO][ 10].d[  7] =         0.381470758615;
  BAS[ATNO][ 10].a[  8] =       128.787656670000;     BAS[ATNO][ 10].d[  8] =         0.008776791045;
  BAS[ATNO][ 10].a[  9] =         8.435786797700;     BAS[ATNO][ 10].d[  9] =        -0.184403976450;
  BAS[ATNO][ 10].a[ 10] =         1.461866185500;     BAS[ATNO][ 10].d[ 10] =        -0.351272722685;
  BAS[ATNO][ 10].a[ 11] =         0.646580101000;     BAS[ATNO][ 10].d[ 11] =         0.259426077954;
  BAS[ATNO][ 10].a[ 12] =         0.272292957500;     BAS[ATNO][ 10].d[ 12] =        -0.136904258556;
  BAS[ATNO][ 10].a[ 13] =         0.109051824500;     BAS[ATNO][ 10].d[ 13] =         0.051987657548;
  BAS[ATNO][ 10].a[ 14] =         0.030101149700;     BAS[ATNO][ 10].d[ 14] =        -0.011508640644;

  // Basis function  12 L = p
  InitBFNGauss(BAS[ATNO][ 11]);
  BAS[ATNO][ 11].l  = 1;
  BAS[ATNO][ 11].ng = 15;
  BAS[ATNO][ 11].a[  0] =      2868.450458100000;     BAS[ATNO][ 11].d[  0] =        -0.000172578125;
  BAS[ATNO][ 11].a[  1] =       679.718695900000;     BAS[ATNO][ 11].d[  1] =        -0.001502558595;
  BAS[ATNO][ 11].a[  2] =       220.367588240000;     BAS[ATNO][ 11].d[  2] =        -0.008171842668;
  BAS[ATNO][ 11].a[  3] =        83.620439734000;     BAS[ATNO][ 11].d[  3] =        -0.032273873731;
  BAS[ATNO][ 11].a[  4] =        34.964322657000;     BAS[ATNO][ 11].d[  4] =        -0.095143766686;
  BAS[ATNO][ 11].a[  5] =        15.525131784000;     BAS[ATNO][ 11].d[  5] =        -0.199163996380;
  BAS[ATNO][ 11].a[  6] =         7.099297980600;     BAS[ATNO][ 11].d[  6] =        -0.277542944794;
  BAS[ATNO][ 11].a[  7] =         3.302133660200;     BAS[ATNO][ 11].d[  7] =        -0.204796565510;
  BAS[ATNO][ 11].a[  8] =       128.787656670000;     BAS[ATNO][ 11].d[  8] =        -0.007637859253;
  BAS[ATNO][ 11].a[  9] =         8.435786797700;     BAS[ATNO][ 11].d[  9] =         0.160474552777;
  BAS[ATNO][ 11].a[ 10] =         1.461866185500;     BAS[ATNO][ 11].d[ 10] =         1.536922931244;
  BAS[ATNO][ 11].a[ 11] =         0.646580101000;     BAS[ATNO][ 11].d[ 11] =        -0.554749881528;
  BAS[ATNO][ 11].a[ 12] =         0.272292957500;     BAS[ATNO][ 11].d[ 12] =         0.304955281202;
  BAS[ATNO][ 11].a[ 13] =         0.109051824500;     BAS[ATNO][ 11].d[ 13] =        -0.114010662096;
  BAS[ATNO][ 11].a[ 14] =         0.030101149700;     BAS[ATNO][ 11].d[ 14] =         0.024664316615;

  // Basis function  13 L = p
  InitBFNGauss(BAS[ATNO][ 12]);
  BAS[ATNO][ 12].l  = 1;
  BAS[ATNO][ 12].ng = 15;
  BAS[ATNO][ 12].a[  0] =      2868.450458100000;     BAS[ATNO][ 12].d[  0] =         0.000100760270;
  BAS[ATNO][ 12].a[  1] =       679.718695900000;     BAS[ATNO][ 12].d[  1] =         0.000877273462;
  BAS[ATNO][ 12].a[  2] =       220.367588240000;     BAS[ATNO][ 12].d[  2] =         0.004771155506;
  BAS[ATNO][ 12].a[  3] =        83.620439734000;     BAS[ATNO][ 12].d[  3] =         0.018843200562;
  BAS[ATNO][ 12].a[  4] =        34.964322657000;     BAS[ATNO][ 12].d[  4] =         0.055549981165;
  BAS[ATNO][ 12].a[  5] =        15.525131784000;     BAS[ATNO][ 12].d[  5] =         0.116282512591;
  BAS[ATNO][ 12].a[  6] =         7.099297980600;     BAS[ATNO][ 12].d[  6] =         0.162044302982;
  BAS[ATNO][ 12].a[  7] =         3.302133660200;     BAS[ATNO][ 12].d[  7] =         0.119571105422;
  BAS[ATNO][ 12].a[  8] =       128.787656670000;     BAS[ATNO][ 12].d[  8] =         0.005533155219;
  BAS[ATNO][ 12].a[  9] =         8.435786797700;     BAS[ATNO][ 12].d[  9] =        -0.116253858556;
  BAS[ATNO][ 12].a[ 10] =         1.461866185500;     BAS[ATNO][ 12].d[ 10] =        -1.638697222042;
  BAS[ATNO][ 12].a[ 11] =         0.646580101000;     BAS[ATNO][ 12].d[ 11] =         2.024239178979;
  BAS[ATNO][ 12].a[ 12] =         0.272292957500;     BAS[ATNO][ 12].d[ 12] =        -0.221936487237;
  BAS[ATNO][ 12].a[ 13] =         0.109051824500;     BAS[ATNO][ 12].d[ 13] =         0.111306876882;
  BAS[ATNO][ 12].a[ 14] =         0.030101149700;     BAS[ATNO][ 12].d[ 14] =        -0.023863495456;

  // Basis function  14 L = p
  InitBFNGauss(BAS[ATNO][ 13]);
  BAS[ATNO][ 13].l  = 1;
  BAS[ATNO][ 13].ng = 15;
  BAS[ATNO][ 13].a[  0] =      2868.450458100000;     BAS[ATNO][ 13].d[  0] =         0.000062992257;
  BAS[ATNO][ 13].a[  1] =       679.718695900000;     BAS[ATNO][ 13].d[  1] =         0.000548444695;
  BAS[ATNO][ 13].a[  2] =       220.367588240000;     BAS[ATNO][ 13].d[  2] =         0.002982781352;
  BAS[ATNO][ 13].a[  3] =        83.620439734000;     BAS[ATNO][ 13].d[  3] =         0.011780196050;
  BAS[ATNO][ 13].a[  4] =        34.964322657000;     BAS[ATNO][ 13].d[  4] =         0.034728159186;
  BAS[ATNO][ 13].a[  5] =        15.525131784000;     BAS[ATNO][ 13].d[  5] =         0.072696291215;
  BAS[ATNO][ 13].a[  6] =         7.099297980600;     BAS[ATNO][ 13].d[  6] =         0.101305171147;
  BAS[ATNO][ 13].a[  7] =         3.302133660200;     BAS[ATNO][ 13].d[  7] =         0.074752219461;
  BAS[ATNO][ 13].a[  8] =       128.787656670000;     BAS[ATNO][ 13].d[  8] =         0.003831333094;
  BAS[ATNO][ 13].a[  9] =         8.435786797700;     BAS[ATNO][ 13].d[  9] =        -0.080497878332;
  BAS[ATNO][ 13].a[ 10] =         1.461866185500;     BAS[ATNO][ 13].d[ 10] =        -1.342402374882;
  BAS[ATNO][ 13].a[ 11] =         0.646580101000;     BAS[ATNO][ 13].d[ 11] =         2.782476097800;
  BAS[ATNO][ 13].a[ 12] =         0.272292957500;     BAS[ATNO][ 13].d[ 12] =        -2.203514918823;
  BAS[ATNO][ 13].a[ 13] =         0.109051824500;     BAS[ATNO][ 13].d[ 13] =         0.117410052342;
  BAS[ATNO][ 13].a[ 14] =         0.030101149700;     BAS[ATNO][ 13].d[ 14] =        -0.027598527473;

  // Basis function  15 L = p
  InitBFNGauss(BAS[ATNO][ 14]);
  BAS[ATNO][ 14].l  = 1;
  BAS[ATNO][ 14].ng = 15;
  BAS[ATNO][ 14].a[  0] =      2868.450458100000;     BAS[ATNO][ 14].d[  0] =        -0.000035190928;
  BAS[ATNO][ 14].a[  1] =       679.718695900000;     BAS[ATNO][ 14].d[  1] =        -0.000306391272;
  BAS[ATNO][ 14].a[  2] =       220.367588240000;     BAS[ATNO][ 14].d[  2] =        -0.001666345178;
  BAS[ATNO][ 14].a[  3] =        83.620439734000;     BAS[ATNO][ 14].d[  3] =        -0.006581063299;
  BAS[ATNO][ 14].a[  4] =        34.964322657000;     BAS[ATNO][ 14].d[  4] =        -0.019401053504;
  BAS[ATNO][ 14].a[  5] =        15.525131784000;     BAS[ATNO][ 14].d[  5] =        -0.040612133453;
  BAS[ATNO][ 14].a[  6] =         7.099297980600;     BAS[ATNO][ 14].d[  6] =        -0.056594622110;
  BAS[ATNO][ 14].a[  7] =         3.302133660200;     BAS[ATNO][ 14].d[  7] =        -0.041760687677;
  BAS[ATNO][ 14].a[  8] =       128.787656670000;     BAS[ATNO][ 14].d[  8] =        -0.002266729454;
  BAS[ATNO][ 14].a[  9] =         8.435786797700;     BAS[ATNO][ 14].d[  9] =         0.047624914703;
  BAS[ATNO][ 14].a[ 10] =         1.461866185500;     BAS[ATNO][ 14].d[ 10] =         0.837288569982;
  BAS[ATNO][ 14].a[ 11] =         0.646580101000;     BAS[ATNO][ 14].d[ 11] =        -2.177263048813;
  BAS[ATNO][ 14].a[ 12] =         0.272292957500;     BAS[ATNO][ 14].d[ 12] =         3.028966692100;
  BAS[ATNO][ 14].a[ 13] =         0.109051824500;     BAS[ATNO][ 14].d[ 13] =        -2.193232386478;
  BAS[ATNO][ 14].a[ 14] =         0.030101149700;     BAS[ATNO][ 14].d[ 14] =         0.137887354397;

  // Basis function  16 L = p
  InitBFNGauss(BAS[ATNO][ 15]);
  BAS[ATNO][ 15].l  = 1;
  BAS[ATNO][ 15].ng = 15;
  BAS[ATNO][ 15].a[  0] =      2868.450458100000;     BAS[ATNO][ 15].d[  0] =         0.000012573537;
  BAS[ATNO][ 15].a[  1] =       679.718695900000;     BAS[ATNO][ 15].d[  1] =         0.000109472020;
  BAS[ATNO][ 15].a[  2] =       220.367588240000;     BAS[ATNO][ 15].d[  2] =         0.000595376531;
  BAS[ATNO][ 15].a[  3] =        83.620439734000;     BAS[ATNO][ 15].d[  3] =         0.002351379946;
  BAS[ATNO][ 15].a[  4] =        34.964322657000;     BAS[ATNO][ 15].d[  4] =         0.006931896272;
  BAS[ATNO][ 15].a[  5] =        15.525131784000;     BAS[ATNO][ 15].d[  5] =         0.014510505649;
  BAS[ATNO][ 15].a[  6] =         7.099297980600;     BAS[ATNO][ 15].d[  6] =         0.020220966347;
  BAS[ATNO][ 15].a[  7] =         3.302133660200;     BAS[ATNO][ 15].d[  7] =         0.014920878145;
  BAS[ATNO][ 15].a[  8] =       128.787656670000;     BAS[ATNO][ 15].d[  8] =         0.000843692073;
  BAS[ATNO][ 15].a[  9] =         8.435786797700;     BAS[ATNO][ 15].d[  9] =        -0.017726316190;
  BAS[ATNO][ 15].a[ 10] =         1.461866185500;     BAS[ATNO][ 15].d[ 10] =        -0.302351258552;
  BAS[ATNO][ 15].a[ 11] =         0.646580101000;     BAS[ATNO][ 15].d[ 11] =         0.846858620188;
  BAS[ATNO][ 15].a[ 12] =         0.272292957500;     BAS[ATNO][ 15].d[ 12] =        -1.432750647056;
  BAS[ATNO][ 15].a[ 13] =         0.109051824500;     BAS[ATNO][ 15].d[ 13] =         1.667529559667;
  BAS[ATNO][ 15].a[ 14] =         0.030101149700;     BAS[ATNO][ 15].d[ 14] =        -1.449079246991;

  // Basis function  17 L = p
  InitBFNGauss(BAS[ATNO][ 16]);
  BAS[ATNO][ 16].l  = 1;
  BAS[ATNO][ 16].ng = 15;
  BAS[ATNO][ 16].a[  0] =      2868.450458100000;     BAS[ATNO][ 16].d[  0] =        -0.000945529195;
  BAS[ATNO][ 16].a[  1] =       679.718695900000;     BAS[ATNO][ 16].d[  1] =        -0.008232289087;
  BAS[ATNO][ 16].a[  2] =       220.367588240000;     BAS[ATNO][ 16].d[  2] =        -0.044772278077;
  BAS[ATNO][ 16].a[  3] =        83.620439734000;     BAS[ATNO][ 16].d[  3] =        -0.176823625703;
  BAS[ATNO][ 16].a[  4] =        34.964322657000;     BAS[ATNO][ 16].d[  4] =        -0.521278168490;
  BAS[ATNO][ 16].a[  5] =        15.525131784000;     BAS[ATNO][ 16].d[  5] =        -1.091189122293;
  BAS[ATNO][ 16].a[  6] =         7.099297980600;     BAS[ATNO][ 16].d[  6] =        -1.520615411588;
  BAS[ATNO][ 16].a[  7] =         3.302133660200;     BAS[ATNO][ 16].d[  7] =        -1.122049108421;
  BAS[ATNO][ 16].a[  8] =       128.787656670000;     BAS[ATNO][ 16].d[  8] =        -0.182658900508;
  BAS[ATNO][ 16].a[  9] =         8.435786797700;     BAS[ATNO][ 16].d[  9] =         3.837738350578;
  BAS[ATNO][ 16].a[ 10] =         1.461866185500;     BAS[ATNO][ 16].d[ 10] =         0.296546183045;
  BAS[ATNO][ 16].a[ 11] =         0.646580101000;     BAS[ATNO][ 16].d[ 11] =         0.115211171858;
  BAS[ATNO][ 16].a[ 12] =         0.272292957500;     BAS[ATNO][ 16].d[ 12] =        -0.138154622644;
  BAS[ATNO][ 16].a[ 13] =         0.109051824500;     BAS[ATNO][ 16].d[ 13] =         0.065091622185;
  BAS[ATNO][ 16].a[ 14] =         0.030101149700;     BAS[ATNO][ 16].d[ 14] =        -0.015920631567;

  // Basis function  18 L = d
  InitBFNGauss(BAS[ATNO][ 17]);
  BAS[ATNO][ 17].l  = 2;
  BAS[ATNO][ 17].ng = 5;
  BAS[ATNO][ 17].a[  0] =         6.315000000000;     BAS[ATNO][ 17].d[  0] =         0.623219584860;
  BAS[ATNO][ 17].a[  1] =         1.562000000000;     BAS[ATNO][ 17].d[  1] =         0.657976108408;
  BAS[ATNO][ 17].a[  2] =         0.715000000000;     BAS[ATNO][ 17].d[  2] =        -0.212061549539;
  BAS[ATNO][ 17].a[  3] =         0.297000000000;     BAS[ATNO][ 17].d[  3] =         0.088330481308;
  BAS[ATNO][ 17].a[  4] =         0.101050282200;     BAS[ATNO][ 17].d[  4] =        -0.023288395474;

  // Basis function  19 L = d
  InitBFNGauss(BAS[ATNO][ 18]);
  BAS[ATNO][ 18].l  = 2;
  BAS[ATNO][ 18].ng = 5;
  BAS[ATNO][ 18].a[  0] =         6.315000000000;     BAS[ATNO][ 18].d[  0] =        -0.522447130950;
  BAS[ATNO][ 18].a[  1] =         1.562000000000;     BAS[ATNO][ 18].d[  1] =         0.033974390288;
  BAS[ATNO][ 18].a[  2] =         0.715000000000;     BAS[ATNO][ 18].d[  2] =         0.973087118591;
  BAS[ATNO][ 18].a[  3] =         0.297000000000;     BAS[ATNO][ 18].d[  3] =        -0.069174686244;
  BAS[ATNO][ 18].a[  4] =         0.101050282200;     BAS[ATNO][ 18].d[  4] =         0.024014746701;

  // Basis function  20 L = d
  InitBFNGauss(BAS[ATNO][ 19]);
  BAS[ATNO][ 19].l  = 2;
  BAS[ATNO][ 19].ng = 5;
  BAS[ATNO][ 19].a[  0] =         6.315000000000;     BAS[ATNO][ 19].d[  0] =         0.425645977849;
  BAS[ATNO][ 19].a[  1] =         1.562000000000;     BAS[ATNO][ 19].d[  1] =        -0.485615252372;
  BAS[ATNO][ 19].a[  2] =         0.715000000000;     BAS[ATNO][ 19].d[  2] =        -0.428208276231;
  BAS[ATNO][ 19].a[  3] =         0.297000000000;     BAS[ATNO][ 19].d[  3] =         1.239291718059;
  BAS[ATNO][ 19].a[  4] =         0.101050282200;     BAS[ATNO][ 19].d[  4] =        -0.071244640934;

  // Basis function  21 L = d
  InitBFNGauss(BAS[ATNO][ 20]);
  BAS[ATNO][ 20].l  = 2;
  BAS[ATNO][ 20].ng = 5;
  BAS[ATNO][ 20].a[  0] =         6.315000000000;     BAS[ATNO][ 20].d[  0] =        -0.385269403436;
  BAS[ATNO][ 20].a[  1] =         1.562000000000;     BAS[ATNO][ 20].d[  1] =         0.824899534451;
  BAS[ATNO][ 20].a[  2] =         0.715000000000;     BAS[ATNO][ 20].d[  2] =        -0.652313145280;
  BAS[ATNO][ 20].a[  3] =         0.297000000000;     BAS[ATNO][ 20].d[  3] =        -0.353547821979;
  BAS[ATNO][ 20].a[  4] =         0.101050282200;     BAS[ATNO][ 20].d[  4] =         1.083492745468;

  // Basis function  22 L = d
  InitBFNGauss(BAS[ATNO][ 21]);
  BAS[ATNO][ 21].l  = 2;
  BAS[ATNO][ 21].ng = 5;
  BAS[ATNO][ 21].a[  0] =         6.315000000000;     BAS[ATNO][ 21].d[  0] =         0.680881294694;
  BAS[ATNO][ 21].a[  1] =         1.562000000000;     BAS[ATNO][ 21].d[  1] =        -1.864897740079;
  BAS[ATNO][ 21].a[  2] =         0.715000000000;     BAS[ATNO][ 21].d[  2] =         2.584320410366;
  BAS[ATNO][ 21].a[  3] =         0.297000000000;     BAS[ATNO][ 21].d[  3] =        -1.910589719499;
  BAS[ATNO][ 21].a[  4] =         0.101050282200;     BAS[ATNO][ 21].d[  4] =         0.924621623919;

  // Basis function  23 L = f
  InitBFNGauss(BAS[ATNO][ 22]);
  BAS[ATNO][ 22].l  = 3;
  BAS[ATNO][ 22].ng = 2;
  BAS[ATNO][ 22].a[  0] =         0.543000000000;     BAS[ATNO][ 22].d[  0] =         0.135380426325;
  BAS[ATNO][ 22].a[  1] =         1.325000000000;     BAS[ATNO][ 22].d[  1] =         0.906915799365;

  // Basis function  24 L = f
  InitBFNGauss(BAS[ATNO][ 23]);
  BAS[ATNO][ 23].l  = 3;
  BAS[ATNO][ 23].ng = 2;
  BAS[ATNO][ 23].a[  0] =         0.543000000000;     BAS[ATNO][ 23].d[  0] =         1.306286317739;
  BAS[ATNO][ 23].a[  1] =         1.325000000000;     BAS[ATNO][ 23].d[  1] =        -0.949850270625;

  // Basis function  25 L = g
  InitBFNGauss(BAS[ATNO][ 24]);
  BAS[ATNO][ 24].l  = 4;
  BAS[ATNO][ 24].ng = 1;
  BAS[ATNO][ 24].a[  0] =         1.007000000000;     BAS[ATNO][ 24].d[  0] =         1.000000000000;

-------
TIMINGS
-------

Total SCF time: 0 days 0 hours 0 min 1 sec 

Total time                  ....       1.753 sec
Sum of individual times     ....       1.565 sec  ( 89.2%)

Fock matrix formation       ....       1.095 sec  ( 62.5%)
  XC integration            ....       0.043 sec  (  3.9% of F)
    Basis function eval.    ....       0.008 sec  ( 19.3% of XC)
    Density eval.           ....       0.005 sec  ( 10.8% of XC)
    XC-Functional eval.     ....       0.003 sec  (  6.3% of XC)
    XC-Potential eval.      ....       0.009 sec  ( 21.0% of XC)
Diagonalization             ....       0.004 sec  (  0.2%)
Density matrix formation    ....       0.001 sec  (  0.1%)
Population analysis         ....       0.001 sec  (  0.1%)
Initial guess               ....       0.090 sec  (  5.2%)
Orbital Transformation      ....       0.000 sec  (  0.0%)
Orbital Orthonormalization  ....       0.000 sec  (  0.0%)
DIIS solution               ....       0.001 sec  (  0.0%)
SOSCF solution              ....       0.001 sec  (  0.1%)
Grid generation             ....       0.372 sec  ( 21.2%)

-------------------------   --------------------
FINAL SINGLE POINT ENERGY      -312.687433385492
-------------------------   --------------------


                            ***************************************
                            *     ORCA property calculations      *
                            ***************************************

                                    ---------------------
                                    Active property flags
                                    ---------------------
   (+) Dipole Moment


------------------------------------------------------------------------------
                       ORCA ELECTRIC PROPERTIES CALCULATION
------------------------------------------------------------------------------

Dipole Moment Calculation                       ... on
Quadrupole Moment Calculation                   ... off
Polarizability Calculation                      ... off
GBWName                                         ... Ar_.gbw
Electron density file                           ... Ar_.scfp
The origin for moment calculation is the CENTER OF MASS  = ( 0.000000,  0.000000  0.000000)

-------------
DIPOLE MOMENT
-------------
                                X             Y             Z
Electronic contribution:     -0.00000       0.00000       0.00000
Nuclear contribution   :      0.00000       0.00000       0.00000
                        -----------------------------------------
Total Dipole Moment    :     -0.00000       0.00000       0.00000
                        -----------------------------------------
Magnitude (a.u.)       :      0.00000
Magnitude (Debye)      :      0.00000



--------------------
Rotational spectrum 
--------------------
 
Rotational constants in cm-1:     0.000000     0.000000     0.000000 
Rotational constants in MHz :     0.000000     0.000000     0.000000 

 Dipole components along the rotational axes: 
x,y,z [a.u.] :    -0.000000     0.000000     0.000000 
x,y,z [Debye]:    -0.000000     0.000000     0.000000 

 

Timings for individual modules:

Sum of individual times         ...        2.526 sec (=   0.042 min)
GTO integral calculation        ...        0.531 sec (=   0.009 min)  21.0 %
SCF iterations                  ...        1.995 sec (=   0.033 min)  79.0 %
                             ****ORCA TERMINATED NORMALLY****
TOTAL RUN TIME: 0 days 0 hours 0 minutes 2 seconds 848 msec
