
                                 *****************
                                 * O   R   C   A *
                                 *****************

           --- An Ab Initio, DFT and Semiempirical electronic structure package ---

                  #######################################################
                  #                        -***-                        #
                  #          Department of theory and spectroscopy      #
                  #               Directorship: Frank Neese             #
                  #        Max Planck Institute fuer Kohlenforschung    #
                  #                Kaiser Wilhelm Platz 1               #
                  #                 D-45470 Muelheim/Ruhr               #
                  #                      Germany                        #
                  #                                                     #
                  #                  All rights reserved                #
                  #                        -***-                        #
                  #######################################################


                         Program Version 4.2.1 -  RELEASE  -


 With contributions from (in alphabetic order):
   Daniel Aravena         : Magnetic Suceptibility
   Michael Atanasov       : Ab Initio Ligand Field Theory (pilot matlab implementation)
   Alexander A. Auer      : GIAO ZORA, VPT2
   Ute Becker             : Parallelization
   Giovanni Bistoni       : ED, misc. LED, open-shell LED, HFLD
   Martin Brehm           : Molecular dynamics
   Dmytro Bykov           : SCF Hessian
   Vijay G. Chilkuri      : MRCI spin determinant printing, contributions to CSF-ICE
   Dipayan Datta          : RHF DLPNO-CCSD density
   Achintya Kumar Dutta   : EOM-CC, STEOM-CC
   Dmitry Ganyushin       : Spin-Orbit,Spin-Spin,Magnetic field MRCI
   Miquel Garcia          : C-PCM Hessian, Gaussian charge scheme
   Yang Guo               : DLPNO-NEVPT2, CIM, IAO-localization
   Andreas Hansen         : Spin unrestricted coupled pair/coupled cluster methods
   Benjamin Helmich-Paris : CASSCF linear response (MC-RPA)
   Lee Huntington         : MR-EOM, pCC
   Robert Izsak           : Overlap fitted RIJCOSX, COSX-SCS-MP3, EOM
   Christian Kollmar      : KDIIS, OOCD, Brueckner-CCSD(T), CCSD density
   Simone Kossmann        : Meta GGA functionals, TD-DFT gradient, OOMP2, MP2 Hessian
   Martin Krupicka        : AUTO-CI
   Lucas Lang             : DCDCAS
   Dagmar Lenk            : GEPOL surface, SMD
   Dimitrios Liakos       : Extrapolation schemes; Compound Job, initial MDCI parallelization
   Dimitrios Manganas     : Further ROCIS development; embedding schemes
   Dimitrios Pantazis     : SARC Basis sets
   Taras Petrenko         : DFT Hessian,TD-DFT gradient, ASA, ECA, R-Raman, ABS, FL, XAS/XES, NRVS
   Peter Pinski           : DLPNO-MP2, DLPNO-MP2 Gradient
   Christoph Reimann      : Effective Core Potentials
   Marius Retegan         : Local ZFS, SOC
   Christoph Riplinger    : Optimizer, TS searches, QM/MM, DLPNO-CCSD(T), (RO)-DLPNO pert. Triples
   Tobias Risthaus        : Range-separated hybrids, TD-DFT gradient, RPA, STAB
   Michael Roemelt        : Original ROCIS implementation
   Masaaki Saitow         : Open-shell DLPNO-CCSD energy and density
   Barbara Sandhoefer     : DKH picture change effects
   Avijit Sen             : IP-ROCIS
   Kantharuban Sivalingam : CASSCF convergence, NEVPT2, FIC-MRCI
   Bernardo de Souza      : ESD, SOC TD-DFT
   Georgi Stoychev        : AutoAux, RI-MP2 NMR
   Willem Van den Heuvel  : Paramagnetic NMR
   Boris Wezisla          : Elementary symmetry handling
   Frank Wennmohs         : Technical directorship


 We gratefully acknowledge several colleagues who have allowed us to
 interface, adapt or use parts of their codes:
   Stefan Grimme, W. Hujo, H. Kruse,             : VdW corrections, initial TS optimization,
                  C. Bannwarth                     DFT functionals, gCP, sTDA/sTD-DF
   Ed Valeev, F. Pavosevic, A. Kumar             : LibInt (2-el integral package), F12 methods
   Garnet Chan, S. Sharma, J. Yang, R. Olivares  : DMRG
   Ulf Ekstrom                                   : XCFun DFT Library
   Mihaly Kallay                                 : mrcc  (arbitrary order and MRCC methods)
   Andreas Klamt, Michael Diedenhofen            : otool_cosmo (COSMO solvation model)
   Jiri Pittner, Ondrej Demel                    : Mk-CCSD
   Frank Weinhold                                : gennbo (NPA and NBO analysis)
   Christopher J. Cramer and Donald G. Truhlar   : smd solvation model
   Lars Goerigk                                  : TD-DFT with DH, B97 family of functionals
   V. Asgeirsson, H. Jonsson                     : NEB implementation
   FAccTs GmbH                                   : IRC, NEB, NEB-TS, Multilevel, MM, QM/MM, CI optimization
   S Lehtola, MJT Oliveira, MAL Marques          : LibXC Library


 Your calculation uses the libint2 library for the computation of 2-el integrals
 For citations please refer to: http://libint.valeyev.net

 Your ORCA version has been built with support for libXC version: 4.2.3
 For citations please refer to: https://tddft.org/programs/libxc/

 This ORCA versions uses:
   CBLAS   interface :  Fast vector & matrix operations
   LAPACKE interface :  Fast linear algebra routines
   SCALAPACK package :  Parallel linear algebra routines




***************************************
The coordinates will be read from file: ../xyzfiles/LiH.xyz
***************************************


----- Orbital basis set information -----
Your calculation utilizes the basis: def2-QZVPPD
   F. Weigend and R. Ahlrichs, Phys. Chem. Chem. Phys. 7, 3297 (2005).
   D. Rappoport and F. Furche, J. Chem. Phys. 133 134105 (2010).

================================================================================
                                        WARNINGS
                       Please study these warnings very carefully!
================================================================================


INFO   : the flag for use of LIBINT has been found!

================================================================================
                                       INPUT FILE
================================================================================
NAME = LiH_.inp
|  1> 
|  2> ! pbe def2-qzvppd nori grid5 finalgrid6 tightscf
|  3> %pal nprocs 18 end
|  4> *xyzfile 0 1 ../xyzfiles/LiH.xyz
|  5> 
|  6>                          ****END OF INPUT****
================================================================================

                       ****************************
                       * Single Point Calculation *
                       ****************************

---------------------------------
CARTESIAN COORDINATES (ANGSTROEM)
---------------------------------
  Li     0.000000    0.000000    0.000000
  H      0.000000    0.000000    1.594900

----------------------------
CARTESIAN COORDINATES (A.U.)
----------------------------
  NO LB      ZA    FRAG     MASS         X           Y           Z
   0 Li    3.0000    0     6.941    0.000000    0.000000    0.000000
   1 H     1.0000    0     1.008    0.000000    0.000000    3.013924

--------------------------------
INTERNAL COORDINATES (ANGSTROEM)
--------------------------------
 Li     0   0   0     0.000000000000     0.00000000     0.00000000
 H      1   0   0     1.594900000000     0.00000000     0.00000000

---------------------------
INTERNAL COORDINATES (A.U.)
---------------------------
 Li     0   0   0     0.000000000000     0.00000000     0.00000000
 H      1   0   0     3.013924210991     0.00000000     0.00000000

---------------------
BASIS SET INFORMATION
---------------------
There are 2 groups of distinct atoms

 Group   1 Type Li  : 15s6p2d1f contracted to 6s4p2d1f pattern {921111/3111/11/1}
 Group   2 Type H   : 7s4p2d1f contracted to 4s4p2d1f pattern {4111/1111/11/1}

Atom   0Li   basis set group =>   1
Atom   1H    basis set group =>   2


           ************************************************************
           *        Program running with 18 parallel MPI-processes    *
           *              working on a common directory               *
           ************************************************************
------------------------------------------------------------------------------
                           ORCA GTO INTEGRAL CALCULATION
------------------------------------------------------------------------------

                         BASIS SET STATISTICS AND STARTUP INFO

 # of primitive gaussian shells          ...   38
 # of primitive gaussian functions       ...   86
 # of contracted shells                  ...   24
 # of contracted basis functions         ...   68
 Highest angular momentum                ...    3
 Maximum contraction depth               ...    9
 Integral package used                   ... LIBINT
 Integral threshhold            Thresh   ...  2.500e-11
 Primitive cut-off              TCut     ...  2.500e-12


------------------------------ INTEGRAL EVALUATION ----------------------------


 * One electron integrals 
 Pre-screening matrix                    ... done
 Shell pair data                         ... done (   0.000 sec)



           ************************************************************
           *        Program running with 18 parallel MPI-processes    *
           *              working on a common directory               *
           ************************************************************
-------------------------------------------------------------------------------
                                 ORCA SCF
-------------------------------------------------------------------------------

------------
SCF SETTINGS
------------
Hamiltonian:
 Density Functional     Method          .... DFT(GTOs)
 Exchange Functional    Exchange        .... PBE
   PBE kappa parameter   XKappa         ....  0.804000
   PBE mue parameter    XMuePBE         ....  0.219520
 Correlation Functional Correlation     .... PBE
   PBE beta parameter  CBetaPBE         ....  0.066725
 LDA part of GGA corr.  LDAOpt          .... PW91-LDA
 Gradients option       PostSCFGGA      .... off
   Density functional embedding theory  .... OFF
   NL short-range parameter             ....  6.400000


General Settings:
 Integral files         IntName         .... LiH_
 Hartree-Fock type      HFTyp           .... RHF
 Total Charge           Charge          ....    0
 Multiplicity           Mult            ....    1
 Number of Electrons    NEL             ....    4
 Basis Dimension        Dim             ....   68
 Nuclear Repulsion      ENuc            ....      0.9953800394 Eh

Convergence Acceleration:
 DIIS                   CNVDIIS         .... on
   Start iteration      DIISMaxIt       ....    12
   Startup error        DIISStart       ....  0.200000
   # of expansion vecs  DIISMaxEq       ....     5
   Bias factor          DIISBfac        ....   1.050
   Max. coefficient     DIISMaxC        ....  10.000
 Newton-Raphson         CNVNR           .... off
 SOSCF                  CNVSOSCF        .... on
   Start iteration      SOSCFMaxIt      ....   150
   Startup grad/error   SOSCFStart      ....  0.003300
 Level Shifting         CNVShift        .... on
   Level shift para.    LevelShift      ....    0.2500
   Turn off err/grad.   ShiftErr        ....    0.0010
 Zerner damping         CNVZerner       .... off
 Static damping         CNVDamp         .... on
   Fraction old density DampFac         ....    0.7000
   Max. Damping (<1)    DampMax         ....    0.9800
   Min. Damping (>=0)   DampMin         ....    0.0000
   Turn off err/grad.   DampErr         ....    0.1000
 Fernandez-Rico         CNVRico         .... off

SCF Procedure:
 Maximum # iterations   MaxIter         ....   125
 SCF integral mode      SCFMode         .... Direct
   Integral package                     .... LIBINT
 Reset frequency        DirectResetFreq ....    20
 Integral Threshold     Thresh          ....  2.500e-11 Eh
 Primitive CutOff       TCut            ....  2.500e-12 Eh

Convergence Tolerance:
 Convergence Check Mode ConvCheckMode   .... Total+1el-Energy
 Convergence forced     ConvForced      .... 0
 Energy Change          TolE            ....  1.000e-08 Eh
 1-El. energy change                    ....  1.000e-05 Eh
 Orbital Gradient       TolG            ....  1.000e-05
 Orbital Rotation angle TolX            ....  1.000e-05
 DIIS Error             TolErr          ....  5.000e-07


Diagonalization of the overlap matrix:
Smallest eigenvalue                        ... 9.641e-04
Time for diagonalization                   ...    0.001 sec
Threshold for overlap eigenvalues          ... 1.000e-08
Number of eigenvalues below threshold      ... 0
Time for construction of square roots      ...    0.001 sec
Total time needed                          ...    0.002 sec

-------------------
DFT GRID GENERATION
-------------------

General Integration Accuracy     IntAcc      ...  5.010
Radial Grid Type                 RadialGrid  ... Gauss-Chebyshev
Angular Grid (max. acc.)         AngularGrid ... Lebedev-434
Angular grid pruning method      GridPruning ... 3 (G Style)
Weight generation scheme         WeightScheme... Becke
Basis function cutoff            BFCut       ...    1.0000e-11
Integration weight cutoff        WCut        ...    1.0000e-14
Grids for H and He will be reduced by one unit

# of grid points (after initial pruning)     ...  17054 (   0.0 sec)
# of grid points (after weights+screening)   ...  16987 (   0.0 sec)
nearest neighbour list constructed           ...    0.0 sec
Grid point re-assignment to atoms done       ...    0.0 sec
Grid point division into batches done        ...    0.1 sec
Reduced shell lists constructed in    0.1 sec

Total number of grid points                  ...    16987
Total number of batches                      ...      266
Average number of points per batch           ...       63
Average number of grid points per atom       ...     8494
Average number of shells per batch           ...     4.00 (16.67%)
Average number of basis functions per batch  ...    10.12 (14.89%)
Average number of large shells per batch     ...     2.81 (70.31%)
Average number of large basis fcns per batch ...     6.44 (63.58%)
Maximum spatial batch extension              ...  32.58, 32.58, 30.97 au
Average spatial batch extension              ...   1.65,  1.50,  1.17 au

Time for grid setup =    0.151 sec

------------------------------
INITIAL GUESS: MODEL POTENTIAL
------------------------------
Loading Hartree-Fock densities                     ... done
Calculating cut-offs                               ... done
Setting up the integral package                    ... done
Initializing the effective Hamiltonian             ... done
Starting the Coulomb interaction                   ... done (   0.0 sec)
Reading the grid                                   ... done
Mapping shells                                     ... done
Starting the XC term evaluation                    ... done (   0.0 sec)
  promolecular density results
     # of electrons  =      3.999512302
     EX              =     -2.015322660
     EC              =     -0.076066767
     EX+EC           =     -2.091389427
Transforming the Hamiltonian                       ... done (   0.0 sec)
Diagonalizing the Hamiltonian                      ... done (   0.0 sec)
Back transforming the eigenvectors                 ... done (   0.0 sec)
Now organizing SCF variables                       ... done
                      ------------------
                      INITIAL GUESS DONE (   0.2 sec)
                      ------------------
--------------
SCF ITERATIONS
--------------
ITER       Energy         Delta-E        Max-DP      RMS-DP      [F,P]     Damp
               ***  Starting incremental Fock matrix formation  ***
  0     -8.0104311701   0.000000000000 0.02959291  0.00127098  0.1968742 0.7000
  1     -8.0244631917  -0.014032021558 0.03096113  0.00123483  0.1263808 0.7000
                               ***Turning on DIIS***
  2     -8.0336096867  -0.009146495025 0.08060206  0.00302690  0.0651210 0.0000
  3     -8.0434637798  -0.009854093115 0.02026914  0.00081491  0.0633078 0.0000
  4     -8.0462780440  -0.002814264163 0.01481239  0.00044602  0.0250868 0.0000
  5     -8.0468874115  -0.000609367515 0.00885403  0.00025636  0.0109866 0.0000
  6     -8.0470324956  -0.000145084072 0.00468917  0.00013726  0.0051433 0.0000
                      *** Initiating the SOSCF procedure ***
                           *** Shutting down DIIS ***
                      *** Re-Reading the Fockian *** 
                      *** Removing any level shift *** 
ITER      Energy       Delta-E        Grad      Rot      Max-DP    RMS-DP
  7     -8.04706896  -0.0000364603  0.000556  0.000556  0.002308  0.000069
               *** Restarting incremental Fock matrix formation ***
  8     -8.04707926  -0.0000103063  0.000541  0.005313  0.002952  0.000095
  9     -8.04707984  -0.0000005808  0.000693  0.001975  0.001334  0.000044
 10     -8.04708434  -0.0000044942  0.000022  0.000033  0.000046  0.000002
                 **** Energy Check signals convergence ****
              ***Rediagonalizing the Fockian in SOSCF/NRSCF***

               *****************************************************
               *                     SUCCESS                       *
               *           SCF CONVERGED AFTER  11 CYCLES          *
               *****************************************************

Setting up the final grid:

General Integration Accuracy     IntAcc      ...  5.340
Radial Grid Type                 RadialGrid  ... Gauss-Chebyshev
Angular Grid (max. acc.)         AngularGrid ... Lebedev-590
Angular grid pruning method      GridPruning ... 3 (G Style)
Weight generation scheme         WeightScheme... Becke
Basis function cutoff            BFCut       ...    1.0000e-11
Integration weight cutoff        WCut        ...    1.0000e-14
Grids for H and He will be reduced by one unit

# of grid points (after initial pruning)     ...  26926 (   0.0 sec)
# of grid points (after weights+screening)   ...  26768 (   0.0 sec)
nearest neighbour list constructed           ...    0.0 sec
Grid point re-assignment to atoms done       ...    0.0 sec
Grid point division into batches done        ...    0.2 sec
Reduced shell lists constructed in    0.2 sec

Total number of grid points                  ...    26768
Total number of batches                      ...      420
Average number of points per batch           ...       63
Average number of grid points per atom       ...    13384
Average number of shells per batch           ...     3.92 (16.33%)
Average number of basis functions per batch  ...     9.60 (14.12%)
Average number of large shells per batch     ...     2.24 (57.14%)
Average number of large basis fcns per batch ...     4.88 (50.83%)
Maximum spatial batch extension              ...  38.48, 38.48, 28.43 au
Average spatial batch extension              ...   1.28,  1.25,  1.11 au

Final grid set up in    0.2 sec
Final integration                            ... done (   0.0 sec)
Change in XC energy                          ...     0.000002198
Integrated number of electrons               ...     3.999997548
Previous integrated no of electrons          ...     4.000002530

----------------
TOTAL SCF ENERGY
----------------

Total Energy       :           -8.04708214 Eh            -218.97224 eV

Components:
Nuclear Repulsion  :            0.99538004 Eh              27.08567 eV
Electronic Energy  :           -9.04246218 Eh            -246.05791 eV
One Electron Energy:          -12.45126086 Eh            -338.81603 eV
Two Electron Energy:            3.40879868 Eh              92.75813 eV

Virial components:
Potential Energy   :          -16.02318129 Eh            -436.01293 eV
Kinetic Energy     :            7.97609915 Eh             217.04069 eV
Virial Ratio       :            2.00889946


DFT components:
N(Alpha)           :        1.999998774013 electrons
N(Beta)            :        1.999998774013 electrons
N(Total)           :        3.999997548026 electrons
E(X)               :       -2.105118018264 Eh       
E(C)               :       -0.083272307955 Eh       
E(XC)              :       -2.188390326220 Eh       
DFET-embed. en.    :        0.000000000000 Eh       

---------------
SCF CONVERGENCE
---------------

  Last Energy change         ...   -1.6960e-09  Tolerance :   1.0000e-08
  Last MAX-Density change    ...    4.8541e-06  Tolerance :   1.0000e-07
  Last RMS-Density change    ...    1.8143e-07  Tolerance :   5.0000e-09
  Last Orbital Gradient      ...    2.0936e-06  Tolerance :   1.0000e-05
  Last Orbital Rotation      ...    3.6991e-06  Tolerance :   1.0000e-05

             **** THE GBW FILE WAS UPDATED (LiH_.gbw) ****
             **** DENSITY FILE WAS UPDATED (LiH_.scfp) ****
             **** ENERGY FILE WAS UPDATED (LiH_.en.tmp) ****
             **** THE GBW FILE WAS UPDATED (LiH_.gbw) ****
             **** DENSITY FILE WAS UPDATED (LiH_.scfp) ****
----------------
ORBITAL ENERGIES
----------------

  NO   OCC          E(Eh)            E(eV) 
   0   2.0000      -1.868359       -50.8406 
   1   2.0000      -0.160295        -4.3618 
   2   0.0000      -0.058605        -1.5947 
   3   0.0000      -0.015521        -0.4224 
   4   0.0000      -0.015521        -0.4224 
   5   0.0000       0.029290         0.7970 
   6   0.0000       0.035672         0.9707 
   7   0.0000       0.061441         1.6719 
   8   0.0000       0.061441         1.6719 
   9   0.0000       0.103261         2.8099 
  10   0.0000       0.141277         3.8444 
  11   0.0000       0.141277         3.8444 
  12   0.0000       0.148620         4.0442 
  13   0.0000       0.148620         4.0442 
  14   0.0000       0.178007         4.8438 
  15   0.0000       0.235517         6.4087 
  16   0.0000       0.245422         6.6783 
  17   0.0000       0.252183         6.8623 
  18   0.0000       0.252183         6.8623 
  19   0.0000       0.309604         8.4247 
  20   0.0000       0.309604         8.4247 
  21   0.0000       0.358442         9.7537 
  22   0.0000       0.462185        12.5767 
  23   0.0000       0.462185        12.5767 
  24   0.0000       0.465376        12.6635 
  25   0.0000       0.465376        12.6635 
  26   0.0000       0.473881        12.8950 
  27   0.0000       0.563168        15.3246 
  28   0.0000       0.563168        15.3246 
  29   0.0000       0.595585        16.2067 
  30   0.0000       0.632826        17.2201 
  31   0.0000       0.632826        17.2201 
  32   0.0000       0.683140        18.5892 
  33   0.0000       0.683140        18.5892 
  34   0.0000       0.808757        22.0074 
  35   0.0000       0.912426        24.8284 
  36   0.0000       0.912426        24.8284 
  37   0.0000       1.096890        29.8479 
  38   0.0000       1.236853        33.6565 
  39   0.0000       1.496081        40.7104 
  40   0.0000       2.033143        55.3246 
  41   0.0000       2.033152        55.3249 
  42   0.0000       2.187782        59.5326 
  43   0.0000       2.187782        59.5326 
  44   0.0000       2.370598        64.5072 
  45   0.0000       2.552122        69.4468 
  46   0.0000       2.552122        69.4468 
  47   0.0000       2.908692        79.1495 
  48   0.0000       5.289589       143.9370 
  49   0.0000       5.427376       147.6864 
  50   0.0000       5.427376       147.6864 
  51   0.0000       5.838469       158.8728 
  52   0.0000       5.838485       158.8732 
  53   0.0000       5.839388       158.8978 
  54   0.0000       5.839388       158.8978 
  55   0.0000       5.854997       159.3226 
  56   0.0000       5.854997       159.3226 
  57   0.0000       5.892257       160.3365 
  58   0.0000       6.333881       172.3537 
  59   0.0000       7.694276       209.3719 
  60   0.0000       7.694276       209.3719 
  61   0.0000       7.724509       210.1946 
  62   0.0000       7.931558       215.8287 
  63   0.0000       7.931681       215.8320 
  64   0.0000       8.129940       221.2269 
  65   0.0000       8.129940       221.2269 
  66   0.0000       8.434558       229.5160 
  67   0.0000       9.271709       252.2960 

                    ********************************
                    * MULLIKEN POPULATION ANALYSIS *
                    ********************************

-----------------------
MULLIKEN ATOMIC CHARGES
-----------------------
   0 Li:    0.068097
   1 H :   -0.068097
Sum of atomic charges:   -0.0000000

--------------------------------
MULLIKEN REDUCED ORBITAL CHARGES
--------------------------------
  0 Lis       :     2.580420  s :     2.580420
      pz      :     0.316970  p :     0.316970
      px      :     0.000000
      py      :     0.000000
      dz2     :     0.030656  d :     0.030656
      dxz     :     0.000000
      dyz     :     0.000000
      dx2y2   :     0.000000
      dxy     :     0.000000
      f0      :     0.003857  f :     0.003857
      f+1     :    -0.000000
      f-1     :     0.000000
      f+2     :     0.000000
      f-2     :     0.000000
      f+3     :     0.000000
      f-3     :     0.000000
  1 H s       :     1.065564  s :     1.065564
      pz      :     0.002111  p :     0.002111
      px      :     0.000000
      py      :     0.000000
      dz2     :     0.000418  d :     0.000418
      dxz     :    -0.000000
      dyz     :    -0.000000
      dx2y2   :     0.000000
      dxy     :     0.000000
      f0      :     0.000005  f :     0.000005
      f+1     :    -0.000000
      f-1     :     0.000000
      f+2     :     0.000000
      f-2     :     0.000000
      f+3     :     0.000000
      f-3     :     0.000000


                     *******************************
                     * LOEWDIN POPULATION ANALYSIS *
                     *******************************

----------------------
LOEWDIN ATOMIC CHARGES
----------------------
   0 Li:    0.186923
   1 H :   -0.186923

-------------------------------
LOEWDIN REDUCED ORBITAL CHARGES
-------------------------------
  0 Lis       :     2.463108  s :     2.463108
      pz      :     0.285718  p :     0.285718
      px      :     0.000000
      py      :     0.000000
      dz2     :     0.050246  d :     0.050246
      dxz     :     0.000000
      dyz     :     0.000000
      dx2y2   :     0.000000
      dxy     :     0.000000
      f0      :     0.014005  f :     0.014005
      f+1     :     0.000000
      f-1     :     0.000000
      f+2     :     0.000000
      f-2     :     0.000000
      f+3     :     0.000000
      f-3     :     0.000000
  1 H s       :     1.152082  s :     1.152082
      pz      :     0.032205  p :     0.032205
      px      :     0.000000
      py      :     0.000000
      dz2     :     0.002527  d :     0.002527
      dxz     :     0.000000
      dyz     :     0.000000
      dx2y2   :     0.000000
      dxy     :     0.000000
      f0      :     0.000110  f :     0.000110
      f+1     :     0.000000
      f-1     :     0.000000
      f+2     :     0.000000
      f-2     :     0.000000
      f+3     :     0.000000
      f-3     :     0.000000


                      *****************************
                      * MAYER POPULATION ANALYSIS *
                      *****************************

  NA   - Mulliken gross atomic population
  ZA   - Total nuclear charge
  QA   - Mulliken gross atomic charge
  VA   - Mayer's total valence
  BVA  - Mayer's bonded valence
  FA   - Mayer's free valence

  ATOM       NA         ZA         QA         VA         BVA        FA
  0 Li     2.9319     3.0000     0.0681     1.0246     1.0246    -0.0000
  1 H      1.0681     1.0000    -0.0681     1.0246     1.0246     0.0000

  Mayer bond orders larger than 0.100000
B(  0-Li,  1-H ) :   1.0246 

-------
TIMINGS
-------

Total SCF time: 0 days 0 hours 0 min 2 sec 

Total time                  ....       2.281 sec
Sum of individual times     ....       2.105 sec  ( 92.3%)

Fock matrix formation       ....       1.615 sec  ( 70.8%)
  XC integration            ....       0.082 sec  (  5.0% of F)
    Basis function eval.    ....       0.017 sec  ( 20.6% of XC)
    Density eval.           ....       0.009 sec  ( 10.6% of XC)
    XC-Functional eval.     ....       0.008 sec  ( 10.0% of XC)
    XC-Potential eval.      ....       0.015 sec  ( 18.8% of XC)
Diagonalization             ....       0.005 sec  (  0.2%)
Density matrix formation    ....       0.001 sec  (  0.1%)
Population analysis         ....       0.001 sec  (  0.0%)
Initial guess               ....       0.086 sec  (  3.8%)
Orbital Transformation      ....       0.000 sec  (  0.0%)
Orbital Orthonormalization  ....       0.000 sec  (  0.0%)
DIIS solution               ....       0.002 sec  (  0.1%)
SOSCF solution              ....       0.001 sec  (  0.1%)
Grid generation             ....       0.395 sec  ( 17.3%)

-------------------------   --------------------
FINAL SINGLE POINT ENERGY        -8.047082140485
-------------------------   --------------------


                            ***************************************
                            *     ORCA property calculations      *
                            ***************************************

                                    ---------------------
                                    Active property flags
                                    ---------------------
   (+) Dipole Moment


------------------------------------------------------------------------------
                       ORCA ELECTRIC PROPERTIES CALCULATION
------------------------------------------------------------------------------

Dipole Moment Calculation                       ... on
Quadrupole Moment Calculation                   ... off
Polarizability Calculation                      ... off
GBWName                                         ... LiH_.gbw
Electron density file                           ... LiH_.scfp
The origin for moment calculation is the CENTER OF MASS  = ( 0.000000,  0.000000  0.382191)

-------------
DIPOLE MOMENT
-------------
                                X             Y             Z
Electronic contribution:     -0.00000       0.00000      -3.69169
Nuclear contribution   :      0.00000       0.00000       1.48516
                        -----------------------------------------
Total Dipole Moment    :     -0.00000       0.00000      -2.20653
                        -----------------------------------------
Magnitude (a.u.)       :      2.20653
Magnitude (Debye)      :      5.60856



--------------------
Rotational spectrum 
--------------------
 
Rotational constants in cm-1:     0.000000     7.529392     7.529392 
Rotational constants in MHz :     0.000000 225725.492015 225725.492015 

 Dipole components along the rotational axes: 
x,y,z [a.u.] :    -2.206531     0.000000    -0.000000 
x,y,z [Debye]:    -5.608557     0.000000    -0.000000 

 

Timings for individual modules:

Sum of individual times         ...        3.015 sec (=   0.050 min)
GTO integral calculation        ...        0.499 sec (=   0.008 min)  16.5 %
SCF iterations                  ...        2.517 sec (=   0.042 min)  83.5 %
                             ****ORCA TERMINATED NORMALLY****
TOTAL RUN TIME: 0 days 0 hours 0 minutes 3 seconds 347 msec
