
                                 *****************
                                 * O   R   C   A *
                                 *****************

                                            #,                                       
                                            ###                                      
                                            ####                                     
                                            #####                                    
                                            ######                                   
                                           ########,                                 
                                     ,,################,,,,,                         
                               ,,#################################,,                 
                          ,,##########################################,,             
                       ,#########################################, ''#####,          
                    ,#############################################,,   '####,        
                  ,##################################################,,,,####,       
                ,###########''''           ''''###############################       
              ,#####''   ,,,,##########,,,,          '''####'''          '####       
            ,##' ,,,,###########################,,,                        '##       
           ' ,,###''''                  '''############,,,                           
         ,,##''                                '''############,,,,        ,,,,,,###''
      ,#''                                            '''#######################'''  
     '                                                          ''''####''''         
             ,#######,   #######,   ,#######,      ##                                
            ,#'     '#,  ##    ##  ,#'     '#,    #''#        ######   ,####,        
            ##       ##  ##   ,#'  ##            #'  '#       #        #'  '#        
            ##       ##  #######   ##           ,######,      #####,   #    #        
            '#,     ,#'  ##    ##  '#,     ,#' ,#      #,         ##   #,  ,#        
             '#######'   ##     ##  '#######'  #'      '#     #####' # '####'        



                  #######################################################
                  #                        -***-                        #
                  #          Department of theory and spectroscopy      #
                  #    Directorship and core code : Frank Neese         #
                  #        Max Planck Institute fuer Kohlenforschung    #
                  #                Kaiser Wilhelm Platz 1               #
                  #                 D-45470 Muelheim/Ruhr               #
                  #                      Germany                        #
                  #                                                     #
                  #                  All rights reserved                #
                  #                        -***-                        #
                  #######################################################


                         Program Version 5.0.1 -  RELEASE  -


 With contributions from (in alphabetic order):
   Daniel Aravena         : Magnetic Suceptibility
   Michael Atanasov       : Ab Initio Ligand Field Theory (pilot matlab implementation)
   Alexander A. Auer      : GIAO ZORA, VPT2 properties, NMR spectrum
   Ute Becker             : Parallelization
   Giovanni Bistoni       : ED, misc. LED, open-shell LED, HFLD
   Martin Brehm           : Molecular dynamics
   Dmytro Bykov           : SCF Hessian
   Vijay G. Chilkuri      : MRCI spin determinant printing, contributions to CSF-ICE
   Dipayan Datta          : RHF DLPNO-CCSD density
   Achintya Kumar Dutta   : EOM-CC, STEOM-CC
   Dmitry Ganyushin       : Spin-Orbit,Spin-Spin,Magnetic field MRCI
   Miquel Garcia          : C-PCM and meta-GGA Hessian, CC/C-PCM, Gaussian charge scheme
   Yang Guo               : DLPNO-NEVPT2, F12-NEVPT2, CIM, IAO-localization
   Andreas Hansen         : Spin unrestricted coupled pair/coupled cluster methods
   Benjamin Helmich-Paris : MC-RPA, TRAH-SCF, COSX integrals
   Lee Huntington         : MR-EOM, pCC
   Robert Izsak           : Overlap fitted RIJCOSX, COSX-SCS-MP3, EOM
   Marcus Kettner         : VPT2
   Christian Kollmar      : KDIIS, OOCD, Brueckner-CCSD(T), CCSD density, CASPT2, CASPT2-K
   Simone Kossmann        : Meta GGA functionals, TD-DFT gradient, OOMP2, MP2 Hessian
   Martin Krupicka        : Initial AUTO-CI
   Lucas Lang             : DCDCAS
   Marvin Lechner         : AUTO-CI (C++ implementation), FIC-MRCC
   Dagmar Lenk            : GEPOL surface, SMD
   Dimitrios Liakos       : Extrapolation schemes; Compound Job, initial MDCI parallelization
   Dimitrios Manganas     : Further ROCIS development; embedding schemes
   Dimitrios Pantazis     : SARC Basis sets
   Anastasios Papadopoulos: AUTO-CI, single reference methods and gradients
   Taras Petrenko         : DFT Hessian,TD-DFT gradient, ASA, ECA, R-Raman, ABS, FL, XAS/XES, NRVS
   Peter Pinski           : DLPNO-MP2, DLPNO-MP2 Gradient
   Christoph Reimann      : Effective Core Potentials
   Marius Retegan         : Local ZFS, SOC
   Christoph Riplinger    : Optimizer, TS searches, QM/MM, DLPNO-CCSD(T), (RO)-DLPNO pert. Triples
   Tobias Risthaus        : Range-separated hybrids, TD-DFT gradient, RPA, STAB
   Michael Roemelt        : Original ROCIS implementation
   Masaaki Saitow         : Open-shell DLPNO-CCSD energy and density
   Barbara Sandhoefer     : DKH picture change effects
   Avijit Sen             : IP-ROCIS
   Kantharuban Sivalingam : CASSCF convergence, NEVPT2, FIC-MRCI
   Bernardo de Souza      : ESD, SOC TD-DFT
   Georgi Stoychev        : AutoAux, RI-MP2 NMR, DLPNO-MP2 response
   Willem Van den Heuvel  : Paramagnetic NMR
   Boris Wezisla          : Elementary symmetry handling
   Frank Wennmohs         : Technical directorship


 We gratefully acknowledge several colleagues who have allowed us to
 interface, adapt or use parts of their codes:
   Stefan Grimme, W. Hujo, H. Kruse, P. Pracht,  : VdW corrections, initial TS optimization,
                  C. Bannwarth, S. Ehlert          DFT functionals, gCP, sTDA/sTD-DF
   Ed Valeev, F. Pavosevic, A. Kumar             : LibInt (2-el integral package), F12 methods
   Garnet Chan, S. Sharma, J. Yang, R. Olivares  : DMRG
   Ulf Ekstrom                                   : XCFun DFT Library
   Mihaly Kallay                                 : mrcc  (arbitrary order and MRCC methods)
   Jiri Pittner, Ondrej Demel                    : Mk-CCSD
   Frank Weinhold                                : gennbo (NPA and NBO analysis)
   Christopher J. Cramer and Donald G. Truhlar   : smd solvation model
   Lars Goerigk                                  : TD-DFT with DH, B97 family of functionals
   V. Asgeirsson, H. Jonsson                     : NEB implementation
   FAccTs GmbH                                   : IRC, NEB, NEB-TS, DLPNO-Multilevel, CI-OPT
                                                   MM, QMMM, 2- and 3-layer-ONIOM, Crystal-QMMM,
                                                   LR-CPCM, SF, NACMEs, symmetry and pop. for TD-DFT,
                                                   nearIR, NL-DFT gradient (VV10), updates on ESD,
                                                   ML-optimized integration grids
   S Lehtola, MJT Oliveira, MAL Marques          : LibXC Library
   Liviu Ungur et al                             : ANISO software


 Your calculation uses the libint2 library for the computation of 2-el integrals
 For citations please refer to: http://libint.valeyev.net

 Your ORCA version has been built with support for libXC version: 5.1.0
 For citations please refer to: https://tddft.org/programs/libxc/

 This ORCA versions uses:
   CBLAS   interface :  Fast vector & matrix operations
   LAPACKE interface :  Fast linear algebra routines
   SCALAPACK package :  Parallel linear algebra routines
   Shared memory     :  Shared parallel matrices
   BLAS/LAPACK       :  OpenBLAS 0.3.15  USE64BITINT DYNAMIC_ARCH NO_AFFINITY Haswell SINGLE_THREADED
        Core in use  :  Haswell
   Copyright (c) 2011-2014, The OpenBLAS Project


SCAN-COORDS

Reading of a custom basis requested
Basis file         : Ag_ano-r3.basis
READING GTO-BASIS: SILVER
Basis successfully read

================================================================================

----- Orbital basis set information -----
================================================================================
                                        WARNINGS
                       Please study these warnings very carefully!
================================================================================


INFO   : the flag for use of the SHARK integral package has been found!

================================================================================
                                       INPUT FILE
================================================================================
NAME = Ag_ano-r3_pbe.inp
|  1> !uks pbe nori verytightscf soscf notrah defgrid3
|  2> 
|  3> %pal
|  4>   nprocs 32
|  5> end
|  6> %coords
|  7>   charge 0
|  8>   mult 2
|  9>   units bohrs
| 10>   coords
| 11>     Ag 0.0 0.0 0.0
| 12>   end
| 13> end
| 14> %basis
| 15>   gtoname "Ag_ano-r3.basis"
| 16>   delECP Ag
| 17> end
| 18> %rel
| 19>   method zora
| 20>   modelpot 1, 0, 0, 0
| 21>   c 137.035999084
| 22> endd                         ****END OF INPUT****
================================================================================

                       ****************************
                       * Single Point Calculation *
                       ****************************

---------------------------------
CARTESIAN COORDINATES (ANGSTROEM)
---------------------------------
  Ag     0.000000    0.000000    0.000000

----------------------------
CARTESIAN COORDINATES (A.U.)
----------------------------
  NO LB      ZA    FRAG     MASS         X           Y           Z
   0 Ag   47.0000    0   107.870    0.000000    0.000000    0.000000

--------------------------------
INTERNAL COORDINATES (ANGSTROEM)
--------------------------------
 Ag     0   0   0     0.000000000000     0.00000000     0.00000000

---------------------------
INTERNAL COORDINATES (A.U.)
---------------------------
 Ag     0   0   0     0.000000000000     0.00000000     0.00000000

---------------------
BASIS SET INFORMATION
---------------------
There are 1 groups of distinct atoms

 Group   1 Type Ag  : 184s96p60d18f10g3h contracted to 8s6p5d3f2g1h pattern {2323232323232323/161616161616/1212121212/666/55/3}

Atom   0Ag   basis set group =>   1


           ************************************************************
           *        Program running with 32 parallel MPI-processes    *
           *              working on a common directory               *
           ************************************************************
------------------------------------------------------------------------------
                           ORCA GTO INTEGRAL CALCULATION
------------------------------------------------------------------------------
------------------------------------------------------------------------------
                   ___                                                        
                  /   \      - P O W E R E D   B Y -                         
                 /     \                                                     
                 |  |  |   _    _      __       _____    __    __             
                 |  |  |  | |  | |    /  \     |  _  \  |  |  /  |          
                  \  \/   | |  | |   /    \    | | | |  |  | /  /          
                 / \  \   | |__| |  /  /\  \   | |_| |  |  |/  /          
                |  |  |   |  __  | /  /__\  \  |    /   |      \           
                |  |  |   | |  | | |   __   |  |    \   |  |\   \          
                \     /   | |  | | |  |  |  |  | |\  \  |  | \   \       
                 \___/    |_|  |_| |__|  |__|  |_| \__\ |__|  \__/        
                                                                              
                      - O R C A' S   B I G   F R I E N D -                    
                                      &                                       
                       - I N T E G R A L  F E E D E R -                       
                                                                              
 v1 FN, 2020, v2 2021                                                         
------------------------------------------------------------------------------


Reading SHARK input file Ag_ano-r3_pbe.SHARKINP.tmp ... ok
----------------------
SHARK INTEGRAL PACKAGE
----------------------

Number of atoms                             ...      1
Number of basis functions                   ...    101
Number of shells                            ...     25
Maximum angular momentum                    ...      5
Integral batch strategy                     ... SHARK/LIBINT Hybrid
RI-J (if used) integral strategy            ... SPLIT-RIJ (Revised 2003 algorithm where possible)
Printlevel                                  ...      1
Contraction scheme used                     ... SEGMENTED contraction
Coulomb Range Separation                    ... NOT USED
Exchange Range Separation                   ... NOT USED
Finite Nucleus Model                        ... NOT USED
Auxiliary Coulomb fitting basis             ... NOT available
Auxiliary J/K fitting basis                 ... NOT available
Auxiliary Correlation fitting basis         ... NOT available
Auxiliary 'external' fitting basis          ... NOT available
Integral threshold                          ...     1.000000e-12
Primitive cut-off                           ...     1.000000e-14
Primitive pair pre-selection threshold      ...     1.000000e-14

Calculating pre-screening integrals         ... done ( 24.2 sec) Dimension = 25
Organizing shell pair data                  ... done (  0.4 sec)
Shell pair information
Total number of shell pairs                 ...       325
Shell pairs after pre-screening             ...       325
Total number of primitive shell pairs       ...     72148
Primitive shell pairs kept                  ...     72144
          la=0 lb=0:     36 shell pairs
          la=1 lb=0:     48 shell pairs
          la=1 lb=1:     21 shell pairs
          la=2 lb=0:     40 shell pairs
          la=2 lb=1:     30 shell pairs
          la=2 lb=2:     15 shell pairs
          la=3 lb=0:     24 shell pairs
          la=3 lb=1:     18 shell pairs
          la=3 lb=2:     15 shell pairs
          la=3 lb=3:      6 shell pairs
          la=4 lb=0:     16 shell pairs
          la=4 lb=1:     12 shell pairs
          la=4 lb=2:     10 shell pairs
          la=4 lb=3:      6 shell pairs
          la=4 lb=4:      3 shell pairs
          la=5 lb=0:      8 shell pairs
          la=5 lb=1:      6 shell pairs
          la=5 lb=2:      5 shell pairs
          la=5 lb=3:      3 shell pairs
          la=5 lb=4:      2 shell pairs
          la=5 lb=5:      1 shell pairs

Calculating one electron integrals          ... done (  0.1 sec)
Calculating Nuclear repulsion               ... done (  0.0 sec) ENN=      0.000000000000 Eh

SHARK setup successfully completed in  25.0 seconds

Maximum memory used throughout the entire GTOINT-calculation: 386.5 MB


           ************************************************************
           *        Program running with 32 parallel MPI-processes    *
           *              working on a common directory               *
           ************************************************************
------------------------------------------------------------------------------
                          ORCA RELATIVISTIC HAMILTONIAN
------------------------------------------------------------------------------

Relativistic Method            ... ZORA(MP)
Treatment of potential         ... Van Wuellen
Nucleus model                  ... Point Nucleus
Speed of light used            ... 137.03599908400000


            *************************************************
            *         ZERO ORDER REGULAR APPROXIMATION      *
            *                     ZORA(MP)                  *
            *            Programmed by FN according to      *
            *                   C. van Wuellen              *
            *       J. Chem. Phys. (1998) vol 109, 392-399  *
            *************************************************

Terms included in model potential: +V(e,N)
Basis function cutoff value   ... 1.000000e-12
Loading the fitted atomic densities  (DKH4)  ... done
Calculating the cutoffs                      ... done
Number of fit functions                      ... 29
Setting up the integration grid ... done

Maximum memory used throughout the entire REL-calculation: 23.6 MB


           ************************************************************
           *        Program running with 32 parallel MPI-processes    *
           *              working on a common directory               *
           ************************************************************
-------------------------------------------------------------------------------
                                 ORCA SCF
-------------------------------------------------------------------------------

------------
SCF SETTINGS
------------
Hamiltonian:
 Density Functional     Method          .... DFT(GTOs)
 Exchange Functional    Exchange        .... PBE
   PBE kappa parameter   XKappa         ....  0.804000
   PBE mue parameter    XMuePBE         ....  0.219520
 Correlation Functional Correlation     .... PBE
   PBE beta parameter  CBetaPBE         ....  0.066725
 LDA part of GGA corr.  LDAOpt          .... PW91-LDA
 Gradients option       PostSCFGGA      .... off
   Density functional embedding theory  .... OFF
   NL short-range parameter             ....  6.400000

Relativistic Settings:
 Scalar relativistic method             .... ZORA
 Speed of light used       Velit        ....       137.035999
Orbital energies will be scaled


General Settings:
 Integral files         IntName         .... Ag_ano-r3_pbe
 Hartree-Fock type      HFTyp           .... UHF
 Total Charge           Charge          ....    0
 Multiplicity           Mult            ....    2
 Number of Electrons    NEL             ....   47
 Basis Dimension        Dim             ....  101
 Nuclear Repulsion      ENuc            ....      0.0000000000 Eh

Convergence Acceleration:
 DIIS                   CNVDIIS         .... on
   Start iteration      DIISMaxIt       ....    12
   Startup error        DIISStart       ....  0.200000
   # of expansion vecs  DIISMaxEq       ....     5
   Bias factor          DIISBfac        ....   1.050
   Max. coefficient     DIISMaxC        ....  10.000
 Trust-Rad. Augm. Hess. CNVTRAH         .... off
 SOSCF                  CNVSOSCF        .... on
   Start iteration      SOSCFMaxIt      ....   150
   Startup grad/error   SOSCFStart      ....  0.003300
 Level Shifting         CNVShift        .... on
   Level shift para.    LevelShift      ....    0.2500
   Turn off err/grad.   ShiftErr        ....    0.0010
 Zerner damping         CNVZerner       .... off
 Static damping         CNVDamp         .... on
   Fraction old density DampFac         ....    0.7000
   Max. Damping (<1)    DampMax         ....    0.9800
   Min. Damping (>=0)   DampMin         ....    0.0000
   Turn off err/grad.   DampErr         ....    0.1000
 Fernandez-Rico         CNVRico         .... off

SCF Procedure:
 Maximum # iterations   MaxIter         ....   125
 SCF integral mode      SCFMode         .... Direct
   Integral package                     .... SHARK and LIBINT hybrid scheme
 Reset frequency        DirectResetFreq ....    20
 Integral Threshold     Thresh          ....  1.000e-12 Eh
 Primitive CutOff       TCut            ....  1.000e-14 Eh

Convergence Tolerance:
 Convergence Check Mode ConvCheckMode   .... Total+1el-Energy
 Convergence forced     ConvForced      .... 0
 Energy Change          TolE            ....  1.000e-09 Eh
 1-El. energy change                    ....  1.000e-06 Eh
 Orbital Gradient       TolG            ....  2.000e-06
 Orbital Rotation angle TolX            ....  2.000e-06
 DIIS Error             TolErr          ....  1.000e-08


Diagonalization of the overlap matrix:
Smallest eigenvalue                        ... 1.000e+00
Time for diagonalization                   ...    0.003 sec
Threshold for overlap eigenvalues          ... 1.000e-08
Number of eigenvalues below threshold      ... 0
Time for construction of square roots      ...    0.019 sec
Total time needed                          ...    0.023 sec

Time for model grid setup =    0.192 sec

------------------------------
INITIAL GUESS: MODEL POTENTIAL
------------------------------
Loading ZORA relativistic densities                ... done
Calculating cut-offs                               ... done
Initializing the effective Hamiltonian             ... done
Setting up the integral package (SHARK)            ... done
Starting the Coulomb interaction                   ... done (   0.4 sec)
Reading the grid                                   ... done
Mapping shells                                     ... done
Starting the XC term evaluation                    ... done (   0.0 sec)
  promolecular density results
     # of electrons  =     47.001474205
     EX              =   -151.960917757
     EC              =     -2.465372120
     EX+EC           =   -154.426289876
Transforming the Hamiltonian                       ... done (   0.0 sec)
Diagonalizing the Hamiltonian                      ... done (   0.0 sec)
Back transforming the eigenvectors                 ... done (   0.0 sec)
Now organizing SCF variables                       ... done
                      ------------------
                      INITIAL GUESS DONE (   0.7 sec)
                      ------------------
-------------------
DFT GRID GENERATION
-------------------

General Integration Accuracy     IntAcc      ... 4.959
Radial Grid Type                 RadialGrid  ... OptM3 with GC (2021)
Angular Grid (max. ang.)         AngularGrid ... 6 (Lebedev-590)
Angular grid pruning method      GridPruning ... 4 (adaptive)
Weight generation scheme         WeightScheme... Becke
Basis function cutoff            BFCut       ... 1.0000e-12
Integration weight cutoff        WCut        ... 1.0000e-14
Angular grids for H and He will be reduced by one unit
Partially contracted basis set               ... off
Rotationally invariant grid construction     ... off

Total number of grid points                  ...    65888
Total number of batches                      ...     1030
Average number of points per batch           ...       63
Average number of grid points per atom       ...    65888
Time for grid setup =    4.190 sec

--------------
SCF ITERATIONS
--------------
ITER       Energy         Delta-E        Max-DP      RMS-DP      [F,P]     Damp
               ***  Starting incremental Fock matrix formation  ***
  0  -5394.7422560624   0.000000000000 0.01108472  0.00025029  0.3060918 0.7000
  1  -5394.7511354666  -0.008879404173 0.00573876  0.00011570  0.2052956 0.7000
                               ***Turning on DIIS***
  2  -5394.7549218082  -0.003786341588 0.00294400  0.00004150  0.1400199 0.7000
  3  -5394.7575293861  -0.002607577867 0.00674563  0.00012333  0.0977702 0.0000
  4  -5394.7633828329  -0.005853446860 0.00429647  0.00009751  0.0122367 0.0000
  5  -5394.7633154781   0.000067354789 0.00173521  0.00003907  0.0148821 0.0000
                      *** Initiating the SOSCF procedure ***
                           *** Shutting down DIIS ***
                      *** Re-Reading the Fockian *** 
                      *** Removing any level shift *** 
ITER      Energy       Delta-E        Grad      Rot      Max-DP    RMS-DP
  6  -5394.76351013  -0.0001946515  0.000566  0.000566  0.000680  0.000015
               *** Restarting incremental Fock matrix formation ***
  7  -5394.76352057  -0.0000104434  0.000114  0.000045  0.000072  0.000002
  8  -5394.76352058  -0.0000000092  0.000097  0.000058  0.000064  0.000001
  9  -5394.76352064  -0.0000000572  0.000024  0.000063  0.000056  0.000001
 10  -5394.76352065  -0.0000000057  0.000010  0.000016  0.000014  0.000000
 11  -5394.76352065  -0.0000000007  0.000001  0.000000  0.000000  0.000000
                  ***Gradient check signals convergence***
              ***Rediagonalizing the Fockian in SOSCF/NRSCF***

               *****************************************************
               *                     SUCCESS                       *
               *           SCF CONVERGED AFTER  12 CYCLES          *
               *****************************************************


----------------
TOTAL SCF ENERGY
----------------

Total Energy       :        -5394.76352065 Eh         -146798.97851 eV

Components:
Nuclear Repulsion  :            0.00000000 Eh               0.00000 eV
Electronic Energy  :        -5394.76352065 Eh         -146798.97851 eV
One Electron Energy:        -7413.89093768 Eh         -201742.22879 eV
Two Electron Energy:         2019.12741703 Eh           54943.25028 eV

Virial components:
Potential Energy   :       -11095.16636878 Eh         -301914.82595 eV
Kinetic Energy     :         5700.40284813 Eh          155115.84744 eV
Virial Ratio       :            1.94638285


DFT components:
N(Alpha)           :       23.999999987265 electrons
N(Beta)            :       22.999999987611 electrons
N(Total)           :       46.999999974876 electrons
E(X)               :     -148.061226229060 Eh       
E(C)               :       -2.466194053430 Eh       
E(XC)              :     -150.527420282490 Eh       
DFET-embed. en.    :        0.000000000000 Eh       

---------------
SCF CONVERGENCE
---------------

  Last Energy change         ...   -1.8190e-12  Tolerance :   1.0000e-09
  Last MAX-Density change    ...    6.3749e-08  Tolerance :   1.0000e-08
  Last RMS-Density change    ...    1.2070e-09  Tolerance :   1.0000e-09
  Last Orbital Gradient      ...    3.3524e-07  Tolerance :   2.0000e-06
  Last Orbital Rotation      ...    8.5691e-08  Tolerance :   2.0000e-06

             **** THE GBW FILE WAS UPDATED (Ag_ano-r3_pbe.gbw) ****
             **** DENSITY Ag_ano-r3_pbe.scfp WAS UPDATED ****
             **** ENERGY FILE WAS UPDATED (Ag_ano-r3_pbe.en.tmp) ****
----------------------
UHF SPIN CONTAMINATION
----------------------

Warning: in a DFT calculation there is little theoretical justification to 
         calculate <S**2> as in Hartree-Fock theory. We will do it anyways
         but you should keep in mind that the values have only limited relevance

Expectation value of <S**2>     :     0.751207
Ideal value S*(S+1) for S=0.5   :     0.750000
Deviation                       :     0.001207

             **** THE GBW FILE WAS UPDATED (Ag_ano-r3_pbe.gbw) ****
             **** DENSITY Ag_ano-r3_pbe.scfp WAS UPDATED ****
----------------
ORBITAL ENERGIES
----------------
                 SPIN UP ORBITALS
  NO   OCC          E(Eh)            E(eV) 
   0   1.0000    -959.727500    -26115.5130 
   1   1.0000    -138.177884     -3760.0114 
   2   1.0000    -124.325341     -3383.0645 
   3   1.0000    -124.325341     -3383.0645 
   4   1.0000    -124.325341     -3383.0645 
   5   1.0000     -25.206319      -685.8988 
   6   1.0000     -20.614692      -560.9543 
   7   1.0000     -20.614692      -560.9543 
   8   1.0000     -20.614692      -560.9543 
   9   1.0000     -13.226362      -359.9076 
  10   1.0000     -13.226362      -359.9076 
  11   1.0000     -13.226362      -359.9076 
  12   1.0000     -13.226362      -359.9076 
  13   1.0000     -13.226362      -359.9076 
  14   1.0000      -3.488591       -94.9294 
  15   1.0000      -2.155728       -58.6603 
  16   1.0000      -2.155728       -58.6603 
  17   1.0000      -2.155728       -58.6603 
  18   1.0000      -0.268165        -7.2972 
  19   1.0000      -0.268165        -7.2972 
  20   1.0000      -0.268165        -7.2972 
  21   1.0000      -0.268165        -7.2972 
  22   1.0000      -0.268165        -7.2972 
  23   1.0000      -0.170339        -4.6352 
  24   0.0000       0.067506         1.8369 
  25   0.0000       0.067506         1.8369 
  26   0.0000       0.067506         1.8369 
  27   0.0000       0.086075         2.3422 
  28   0.0000       0.418366        11.3843 
  29   0.0000       0.418366        11.3843 
  30   0.0000       0.418366        11.3843 
  31   0.0000       0.418366        11.3843 
  32   0.0000       0.418366        11.3843 
  33   0.0000       0.939464        25.5641 
  34   0.0000       0.939464        25.5641 
  35   0.0000       0.939464        25.5641 
  36   0.0000       0.939464        25.5641 
  37   0.0000       0.939464        25.5641 
  38   0.0000       0.939464        25.5641 
  39   0.0000       0.939464        25.5641 
  40   0.0000       1.117086        30.3974 
  41   0.0000       1.356547        36.9135 
  42   0.0000       1.356547        36.9135 
  43   0.0000       1.356547        36.9135 
  44   0.0000       2.290339        62.3233 
  45   0.0000       2.290339        62.3233 
  46   0.0000       2.290339        62.3233 
  47   0.0000       2.290339        62.3233 
  48   0.0000       2.290339        62.3233 
  49   0.0000       2.530606        68.8613 
  50   0.0000       2.530606        68.8613 
  51   0.0000       2.530606        68.8613 
  52   0.0000       2.530606        68.8613 
  53   0.0000       2.530606        68.8613 
  54   0.0000       2.530606        68.8613 
  55   0.0000       2.530606        68.8613 
  56   0.0000       2.878282        78.3220 
  57   0.0000       2.878282        78.3220 
  58   0.0000       2.878282        78.3220 
  59   0.0000       2.878282        78.3220 
  60   0.0000       2.878282        78.3220 
  61   0.0000       2.878282        78.3220 
  62   0.0000       2.878282        78.3220 
  63   0.0000       2.878282        78.3220 
  64   0.0000       2.878282        78.3220 
  65   0.0000       5.652029       153.7995 
  66   0.0000       6.382163       173.6675 
  67   0.0000       6.382163       173.6675 
  68   0.0000       6.382163       173.6675 
  69   0.0000       6.382163       173.6675 
  70   0.0000       6.382163       173.6675 
  71   0.0000       6.382163       173.6675 
  72   0.0000       6.382163       173.6675 
  73   0.0000       7.117902       193.6880 
  74   0.0000       7.117902       193.6880 
  75   0.0000       7.117902       193.6880 
  76   0.0000       7.733776       210.4468 
  77   0.0000       7.733776       210.4468 
  78   0.0000       7.733776       210.4468 
  79   0.0000       7.733776       210.4468 
  80   0.0000       7.733776       210.4468 
  81   0.0000       7.733776       210.4468 
  82   0.0000       7.733776       210.4468 
  83   0.0000       7.733776       210.4468 
  84   0.0000       7.733776       210.4468 
  85   0.0000       7.733776       210.4468 
  86   0.0000       7.733776       210.4468 
  87   0.0000       8.071180       219.6280 
  88   0.0000       8.071180       219.6280 
  89   0.0000       8.071180       219.6280 
  90   0.0000       8.071180       219.6280 
  91   0.0000       8.071180       219.6280 
  92   0.0000       8.141687       221.5466 
  93   0.0000       8.141687       221.5466 
  94   0.0000       8.141687       221.5466 
  95   0.0000       8.141687       221.5466 
  96   0.0000       8.141687       221.5466 
  97   0.0000       8.141687       221.5466 
  98   0.0000       8.141687       221.5466 
  99   0.0000       8.141687       221.5466 
 100   0.0000       8.141687       221.5466 

                 SPIN DOWN ORBITALS
  NO   OCC          E(Eh)            E(eV) 
   0   1.0000    -959.726829    -26115.4947 
   1   1.0000    -138.178062     -3760.0162 
   2   1.0000    -124.325365     -3383.0652 
   3   1.0000    -124.325365     -3383.0652 
   4   1.0000    -124.325365     -3383.0652 
   5   1.0000     -25.205925      -685.8881 
   6   1.0000     -20.614319      -560.9441 
   7   1.0000     -20.614319      -560.9441 
   8   1.0000     -20.614319      -560.9441 
   9   1.0000     -13.226205      -359.9033 
  10   1.0000     -13.226205      -359.9033 
  11   1.0000     -13.226205      -359.9033 
  12   1.0000     -13.226205      -359.9033 
  13   1.0000     -13.226205      -359.9033 
  14   1.0000      -3.488820       -94.9356 
  15   1.0000      -2.155298       -58.6486 
  16   1.0000      -2.155298       -58.6486 
  17   1.0000      -2.155298       -58.6486 
  18   1.0000      -0.260568        -7.0904 
  19   1.0000      -0.260568        -7.0904 
  20   1.0000      -0.260568        -7.0904 
  21   1.0000      -0.260568        -7.0904 
  22   1.0000      -0.260568        -7.0904 
  23   0.0000      -0.141324        -3.8456 
  24   0.0000       0.097795         2.6611 
  25   0.0000       0.097795         2.6611 
  26   0.0000       0.097795         2.6611 
  27   0.0000       0.115859         3.1527 
  28   0.0000       0.444047        12.0831 
  29   0.0000       0.444047        12.0831 
  30   0.0000       0.444047        12.0831 
  31   0.0000       0.444047        12.0831 
  32   0.0000       0.444047        12.0831 
  33   0.0000       0.966770        26.3072 
  34   0.0000       0.966770        26.3072 
  35   0.0000       0.966770        26.3072 
  36   0.0000       0.966770        26.3072 
  37   0.0000       0.966770        26.3072 
  38   0.0000       0.966770        26.3072 
  39   0.0000       0.966770        26.3072 
  40   0.0000       1.132784        30.8246 
  41   0.0000       1.373315        37.3698 
  42   0.0000       1.373315        37.3698 
  43   0.0000       1.373315        37.3698 
  44   0.0000       2.305829        62.7448 
  45   0.0000       2.305829        62.7448 
  46   0.0000       2.305829        62.7448 
  47   0.0000       2.305829        62.7448 
  48   0.0000       2.305829        62.7448 
  49   0.0000       2.537243        69.0419 
  50   0.0000       2.537243        69.0419 
  51   0.0000       2.537243        69.0419 
  52   0.0000       2.537243        69.0419 
  53   0.0000       2.537243        69.0419 
  54   0.0000       2.537243        69.0419 
  55   0.0000       2.537243        69.0419 
  56   0.0000       2.898206        78.8642 
  57   0.0000       2.898206        78.8642 
  58   0.0000       2.898206        78.8642 
  59   0.0000       2.898206        78.8642 
  60   0.0000       2.898206        78.8642 
  61   0.0000       2.898206        78.8642 
  62   0.0000       2.898206        78.8642 
  63   0.0000       2.898206        78.8642 
  64   0.0000       2.898206        78.8642 
  65   0.0000       5.660787       154.0378 
  66   0.0000       6.388448       173.8385 
  67   0.0000       6.388448       173.8385 
  68   0.0000       6.388448       173.8385 
  69   0.0000       6.388448       173.8385 
  70   0.0000       6.388448       173.8385 
  71   0.0000       6.388448       173.8385 
  72   0.0000       6.388448       173.8385 
  73   0.0000       7.124224       193.8600 
  74   0.0000       7.124224       193.8600 
  75   0.0000       7.124224       193.8600 
  76   0.0000       7.738962       210.5879 
  77   0.0000       7.738962       210.5879 
  78   0.0000       7.738962       210.5879 
  79   0.0000       7.738962       210.5879 
  80   0.0000       7.738962       210.5879 
  81   0.0000       7.738962       210.5879 
  82   0.0000       7.738962       210.5879 
  83   0.0000       7.738962       210.5879 
  84   0.0000       7.738962       210.5879 
  85   0.0000       7.738962       210.5879 
  86   0.0000       7.738962       210.5879 
  87   0.0000       8.077525       219.8006 
  88   0.0000       8.077525       219.8006 
  89   0.0000       8.077525       219.8006 
  90   0.0000       8.077525       219.8006 
  91   0.0000       8.077525       219.8006 
  92   0.0000       8.144516       221.6235 
  93   0.0000       8.144516       221.6235 
  94   0.0000       8.144516       221.6235 
  95   0.0000       8.144516       221.6235 
  96   0.0000       8.144516       221.6235 
  97   0.0000       8.144516       221.6235 
  98   0.0000       8.144516       221.6235 
  99   0.0000       8.144516       221.6235 
 100   0.0000       8.144516       221.6235 

                    ********************************
                    * MULLIKEN POPULATION ANALYSIS *
                    ********************************

--------------------------------------------
MULLIKEN ATOMIC CHARGES AND SPIN POPULATIONS
--------------------------------------------
   0 Ag:   -0.000000    1.000000
Sum of atomic charges         :   -0.0000000
Sum of atomic spin populations:    1.0000000

-----------------------------------------------------
MULLIKEN REDUCED ORBITAL CHARGES AND SPIN POPULATIONS
-----------------------------------------------------
CHARGE
  0 Ags       :     9.000000  s :     9.000000
      pz      :     6.000000  p :    18.000000
      px      :     6.000000
      py      :     6.000000
      dz2     :     4.000000  d :    20.000000
      dxz     :     4.000000
      dyz     :     4.000000
      dx2y2   :     4.000000
      dxy     :     4.000000
      f0      :     0.000000  f :     0.000000
      f+1     :     0.000000
      f-1     :     0.000000
      f+2     :     0.000000
      f-2     :     0.000000
      f+3     :     0.000000
      f-3     :     0.000000
      g0      :     0.000000  g :     0.000000
      g+1     :     0.000000
      g-1     :     0.000000
      g+2     :     0.000000
      g-2     :     0.000000
      g+3     :     0.000000
      g-3     :     0.000000
      g+4     :     0.000000
      g-4     :     0.000000
      h0      :     0.000000  h :     0.000000
      h+1     :     0.000000
      h-1     :     0.000000
      h+2     :     0.000000
      h-2     :     0.000000
      h+3     :     0.000000
      h-3     :     0.000000
      h+4     :     0.000000
      h-4     :     0.000000
      h+5     :     0.000000
      h-5     :     0.000000

SPIN
  0 Ags       :     1.000000  s :     1.000000
      pz      :    -0.000000  p :     0.000000
      px      :    -0.000000
      py      :     0.000000
      dz2     :     0.000000  d :    -0.000000
      dxz     :    -0.000000
      dyz     :     0.000000
      dx2y2   :     0.000000
      dxy     :    -0.000000
      f0      :     0.000000  f :     0.000000
      f+1     :     0.000000
      f-1     :     0.000000
      f+2     :     0.000000
      f-2     :     0.000000
      f+3     :     0.000000
      f-3     :     0.000000
      g0      :     0.000000  g :     0.000000
      g+1     :     0.000000
      g-1     :     0.000000
      g+2     :     0.000000
      g-2     :     0.000000
      g+3     :     0.000000
      g-3     :     0.000000
      g+4     :     0.000000
      g-4     :     0.000000
      h0      :     0.000000  h :     0.000000
      h+1     :     0.000000
      h-1     :     0.000000
      h+2     :     0.000000
      h-2     :     0.000000
      h+3     :    -0.000000
      h-3     :     0.000000
      h+4     :     0.000000
      h-4     :     0.000000
      h+5     :     0.000000
      h-5     :     0.000000


                     *******************************
                     * LOEWDIN POPULATION ANALYSIS *
                     *******************************

-------------------------------------------
LOEWDIN ATOMIC CHARGES AND SPIN POPULATIONS
-------------------------------------------
   0 Ag:    0.000000    1.000000

----------------------------------------------------
LOEWDIN REDUCED ORBITAL CHARGES AND SPIN POPULATIONS
----------------------------------------------------
CHARGE
  0 Ags       :     9.000000  s :     9.000000
      pz      :     6.000000  p :    18.000000
      px      :     6.000000
      py      :     6.000000
      dz2     :     4.000000  d :    20.000000
      dxz     :     4.000000
      dyz     :     4.000000
      dx2y2   :     4.000000
      dxy     :     4.000000
      f0      :     0.000000  f :     0.000000
      f+1     :     0.000000
      f-1     :     0.000000
      f+2     :     0.000000
      f-2     :     0.000000
      f+3     :     0.000000
      f-3     :     0.000000
      g0      :     0.000000  g :     0.000000
      g+1     :     0.000000
      g-1     :     0.000000
      g+2     :     0.000000
      g-2     :     0.000000
      g+3     :     0.000000
      g-3     :     0.000000
      g+4     :     0.000000
      g-4     :     0.000000
      h0      :     0.000000  h :     0.000000
      h+1     :     0.000000
      h-1     :     0.000000
      h+2     :     0.000000
      h-2     :     0.000000
      h+3     :     0.000000
      h-3     :     0.000000
      h+4     :     0.000000
      h-4     :     0.000000
      h+5     :     0.000000
      h-5     :     0.000000

SPIN
  0 Ags       :     1.000000  s :     1.000000
      pz      :    -0.000000  p :     0.000000
      px      :    -0.000000
      py      :     0.000000
      dz2     :     0.000000  d :    -0.000000
      dxz     :    -0.000000
      dyz     :     0.000000
      dx2y2   :     0.000000
      dxy     :    -0.000000
      f0      :     0.000000  f :     0.000000
      f+1     :     0.000000
      f-1     :     0.000000
      f+2     :     0.000000
      f-2     :     0.000000
      f+3     :     0.000000
      f-3     :     0.000000
      g0      :     0.000000  g :     0.000000
      g+1     :     0.000000
      g-1     :     0.000000
      g+2     :     0.000000
      g-2     :     0.000000
      g+3     :     0.000000
      g-3     :     0.000000
      g+4     :     0.000000
      g-4     :     0.000000
      h0      :     0.000000  h :     0.000000
      h+1     :     0.000000
      h-1     :     0.000000
      h+2     :     0.000000
      h-2     :     0.000000
      h+3     :    -0.000000
      h-3     :     0.000000
      h+4     :     0.000000
      h-4     :     0.000000
      h+5     :     0.000000
      h-5     :     0.000000


                      *****************************
                      * MAYER POPULATION ANALYSIS *
                      *****************************

  NA   - Mulliken gross atomic population
  ZA   - Total nuclear charge
  QA   - Mulliken gross atomic charge
  VA   - Mayer's total valence
  BVA  - Mayer's bonded valence
  FA   - Mayer's free valence

  ATOM       NA         ZA         QA         VA         BVA        FA
  0 Ag    47.0000    47.0000     0.0000     1.0024     0.0000     1.0024

  Mayer bond orders larger than 0.100000


-------
TIMINGS
-------

Total SCF time: 0 days 0 hours 15 min 36 sec 

Total time                  ....     936.709 sec
Sum of individual times     ....     933.838 sec  ( 99.7%)

Fock matrix formation       ....     928.483 sec  ( 99.1%)
  XC integration            ....       1.655 sec  (  0.2% of F)
    Basis function eval.    ....       0.229 sec  ( 13.8% of XC)
    Density eval.           ....       0.251 sec  ( 15.2% of XC)
    XC-Functional eval.     ....       0.053 sec  (  3.2% of XC)
    XC-Potential eval.      ....       0.147 sec  (  8.9% of XC)
Diagonalization             ....       0.153 sec  (  0.0%)
Density matrix formation    ....       0.006 sec  (  0.0%)
Population analysis         ....       0.084 sec  (  0.0%)
Initial guess               ....       0.478 sec  (  0.1%)
Orbital Transformation      ....       0.000 sec  (  0.0%)
Orbital Orthonormalization  ....       0.000 sec  (  0.0%)
DIIS solution               ....       0.170 sec  (  0.0%)
SOSCF solution              ....       0.083 sec  (  0.0%)
Grid generation             ....       4.382 sec  (  0.5%)

Maximum memory used throughout the entire SCF-calculation: 266.6 MB

-------------------------   --------------------
FINAL SINGLE POINT ENERGY     -5394.763520645878
-------------------------   --------------------


                            ***************************************
                            *     ORCA property calculations      *
                            ***************************************

                                    ---------------------
                                    Active property flags
                                    ---------------------
   (+) Dipole Moment


------------------------------------------------------------------------------
                       ORCA ELECTRIC PROPERTIES CALCULATION
------------------------------------------------------------------------------

Dipole Moment Calculation                       ... on
Quadrupole Moment Calculation                   ... off
Polarizability Calculation                      ... off
GBWName                                         ... Ag_ano-r3_pbe.gbw
Electron density                                ... Ag_ano-r3_pbe.scfp
The origin for moment calculation is the CENTER OF MASS  = ( 0.000000,  0.000000  0.000000)

-------------
DIPOLE MOMENT
-------------
                                X             Y             Z
Electronic contribution:     -0.00000      -0.00000       0.00000
Nuclear contribution   :      0.00000       0.00000       0.00000
                        -----------------------------------------
Total Dipole Moment    :     -0.00000      -0.00000       0.00000
                        -----------------------------------------
Magnitude (a.u.)       :      0.00000
Magnitude (Debye)      :      0.00000



--------------------
Rotational spectrum 
--------------------
 
Rotational constants in cm-1:     0.000000     0.000000     0.000000 
Rotational constants in MHz :     0.000000     0.000000     0.000000 

 Dipole components along the rotational axes: 
x,y,z [a.u.] :    -0.000000    -0.000000     0.000000 
x,y,z [Debye]:    -0.000000    -0.000000     0.000000 

 

Timings for individual modules:

Sum of individual times         ...      974.991 sec (=  16.250 min)
GTO integral calculation        ...       28.693 sec (=   0.478 min)   2.9 %
Relativistic integrals          ...        6.905 sec (=   0.115 min)   0.7 %
SCF iterations                  ...      939.393 sec (=  15.657 min)  96.3 %
                             ****ORCA TERMINATED NORMALLY****
TOTAL RUN TIME: 0 days 0 hours 16 minutes 21 seconds 776 msec
