
                                 *****************
                                 * O   R   C   A *
                                 *****************

                                            #,                                       
                                            ###                                      
                                            ####                                     
                                            #####                                    
                                            ######                                   
                                           ########,                                 
                                     ,,################,,,,,                         
                               ,,#################################,,                 
                          ,,##########################################,,             
                       ,#########################################, ''#####,          
                    ,#############################################,,   '####,        
                  ,##################################################,,,,####,       
                ,###########''''           ''''###############################       
              ,#####''   ,,,,##########,,,,          '''####'''          '####       
            ,##' ,,,,###########################,,,                        '##       
           ' ,,###''''                  '''############,,,                           
         ,,##''                                '''############,,,,        ,,,,,,###''
      ,#''                                            '''#######################'''  
     '                                                          ''''####''''         
             ,#######,   #######,   ,#######,      ##                                
            ,#'     '#,  ##    ##  ,#'     '#,    #''#        ######   ,####,        
            ##       ##  ##   ,#'  ##            #'  '#       #        #'  '#        
            ##       ##  #######   ##           ,######,      #####,   #    #        
            '#,     ,#'  ##    ##  '#,     ,#' ,#      #,         ##   #,  ,#        
             '#######'   ##     ##  '#######'  #'      '#     #####' # '####'        



                  #######################################################
                  #                        -***-                        #
                  #          Department of theory and spectroscopy      #
                  #    Directorship and core code : Frank Neese         #
                  #        Max Planck Institute fuer Kohlenforschung    #
                  #                Kaiser Wilhelm Platz 1               #
                  #                 D-45470 Muelheim/Ruhr               #
                  #                      Germany                        #
                  #                                                     #
                  #                  All rights reserved                #
                  #                        -***-                        #
                  #######################################################


                         Program Version 5.0.3 -  RELEASE  -


 With contributions from (in alphabetic order):
   Daniel Aravena         : Magnetic Suceptibility
   Michael Atanasov       : Ab Initio Ligand Field Theory (pilot matlab implementation)
   Alexander A. Auer      : GIAO ZORA, VPT2 properties, NMR spectrum
   Ute Becker             : Parallelization
   Giovanni Bistoni       : ED, misc. LED, open-shell LED, HFLD
   Martin Brehm           : Molecular dynamics
   Dmytro Bykov           : SCF Hessian
   Vijay G. Chilkuri      : MRCI spin determinant printing, contributions to CSF-ICE
   Dipayan Datta          : RHF DLPNO-CCSD density
   Achintya Kumar Dutta   : EOM-CC, STEOM-CC
   Dmitry Ganyushin       : Spin-Orbit,Spin-Spin,Magnetic field MRCI
   Miquel Garcia          : C-PCM and meta-GGA Hessian, CC/C-PCM, Gaussian charge scheme
   Yang Guo               : DLPNO-NEVPT2, F12-NEVPT2, CIM, IAO-localization
   Andreas Hansen         : Spin unrestricted coupled pair/coupled cluster methods
   Benjamin Helmich-Paris : MC-RPA, TRAH-SCF, COSX integrals
   Lee Huntington         : MR-EOM, pCC
   Robert Izsak           : Overlap fitted RIJCOSX, COSX-SCS-MP3, EOM
   Marcus Kettner         : VPT2
   Christian Kollmar      : KDIIS, OOCD, Brueckner-CCSD(T), CCSD density, CASPT2, CASPT2-K
   Simone Kossmann        : Meta GGA functionals, TD-DFT gradient, OOMP2, MP2 Hessian
   Martin Krupicka        : Initial AUTO-CI
   Lucas Lang             : DCDCAS
   Marvin Lechner         : AUTO-CI (C++ implementation), FIC-MRCC
   Dagmar Lenk            : GEPOL surface, SMD
   Dimitrios Liakos       : Extrapolation schemes; Compound Job, initial MDCI parallelization
   Dimitrios Manganas     : Further ROCIS development; embedding schemes
   Dimitrios Pantazis     : SARC Basis sets
   Anastasios Papadopoulos: AUTO-CI, single reference methods and gradients
   Taras Petrenko         : DFT Hessian,TD-DFT gradient, ASA, ECA, R-Raman, ABS, FL, XAS/XES, NRVS
   Peter Pinski           : DLPNO-MP2, DLPNO-MP2 Gradient
   Christoph Reimann      : Effective Core Potentials
   Marius Retegan         : Local ZFS, SOC
   Christoph Riplinger    : Optimizer, TS searches, QM/MM, DLPNO-CCSD(T), (RO)-DLPNO pert. Triples
   Tobias Risthaus        : Range-separated hybrids, TD-DFT gradient, RPA, STAB
   Michael Roemelt        : Original ROCIS implementation
   Masaaki Saitow         : Open-shell DLPNO-CCSD energy and density
   Barbara Sandhoefer     : DKH picture change effects
   Avijit Sen             : IP-ROCIS
   Kantharuban Sivalingam : CASSCF convergence, NEVPT2, FIC-MRCI
   Bernardo de Souza      : ESD, SOC TD-DFT
   Georgi Stoychev        : AutoAux, RI-MP2 NMR, DLPNO-MP2 response
   Willem Van den Heuvel  : Paramagnetic NMR
   Boris Wezisla          : Elementary symmetry handling
   Frank Wennmohs         : Technical directorship


 We gratefully acknowledge several colleagues who have allowed us to
 interface, adapt or use parts of their codes:
   Stefan Grimme, W. Hujo, H. Kruse, P. Pracht,  : VdW corrections, initial TS optimization,
                  C. Bannwarth, S. Ehlert          DFT functionals, gCP, sTDA/sTD-DF
   Ed Valeev, F. Pavosevic, A. Kumar             : LibInt (2-el integral package), F12 methods
   Garnet Chan, S. Sharma, J. Yang, R. Olivares  : DMRG
   Ulf Ekstrom                                   : XCFun DFT Library
   Mihaly Kallay                                 : mrcc  (arbitrary order and MRCC methods)
   Jiri Pittner, Ondrej Demel                    : Mk-CCSD
   Frank Weinhold                                : gennbo (NPA and NBO analysis)
   Christopher J. Cramer and Donald G. Truhlar   : smd solvation model
   Lars Goerigk                                  : TD-DFT with DH, B97 family of functionals
   V. Asgeirsson, H. Jonsson                     : NEB implementation
   FAccTs GmbH                                   : IRC, NEB, NEB-TS, DLPNO-Multilevel, CI-OPT
                                                   MM, QMMM, 2- and 3-layer-ONIOM, Crystal-QMMM,
                                                   LR-CPCM, SF, NACMEs, symmetry and pop. for TD-DFT,
                                                   nearIR, NL-DFT gradient (VV10), updates on ESD,
                                                   ML-optimized integration grids
   S Lehtola, MJT Oliveira, MAL Marques          : LibXC Library
   Liviu Ungur et al                             : ANISO software


 Your calculation uses the libint2 library for the computation of 2-el integrals
 For citations please refer to: http://libint.valeyev.net

 Your ORCA version has been built with support for libXC version: 5.1.0
 For citations please refer to: https://tddft.org/programs/libxc/

 This ORCA versions uses:
   CBLAS   interface :  Fast vector & matrix operations
   LAPACKE interface :  Fast linear algebra routines
   SCALAPACK package :  Parallel linear algebra routines
   Shared memory     :  Shared parallel matrices
   BLAS/LAPACK       :  OpenBLAS 0.3.15  USE64BITINT DYNAMIC_ARCH NO_AFFINITY SkylakeX SINGLE_THREADED
        Core in use  :  SkylakeX
   Copyright (c) 2011-2014, The OpenBLAS Project


================================================================================

----- Orbital basis set information -----
Your calculation utilizes the basis: def2-SVP
   F. Weigend and R. Ahlrichs, Phys. Chem. Chem. Phys. 7, 3297 (2005).

The basis set includes element-specific modifications.

Your calculation utilizes the basis: SARC-ZORA-TZVPP 
   Rb-Xe:  J. D. Rolfes, F. Neese and D. A. Pantazis, J. Comput. Chem. 41, 1842 (2020).
   La-Lu:  D. A. Pantazis and F. Neese, J. Chem. Theory Comput. 5, 2229 (2009).
   Hf-Hg:  D. A. Pantazis, X. Y. Chen, C. R. Landis and F. Neese, J. Chem. Theory Comput. 4, 908 (2008).
   Tl-Rn:  D. A. Pantazis and F. Neese, Theor. Chem. Acc. 131, 1292 (2012).
   Ac-Lr:  D. A. Pantazis and F. Neese, J. Chem. Theory Comput. 7, 677 (2011).

Your calculation utilizes the basis: ZORA-def2-TZVP 
   Exponents from def2-TZVP [F. Weigend and R. Ahlrichs, Phys. Chem. Chem. Phys. 7, 3297 (2005)],
   recontracted for ZORA by D. A. Pantazis.

================================================================================
                                        WARNINGS
                       Please study these warnings very carefully!
================================================================================


INFO   : the flag for use of the SHARK integral package has been found!

================================================================================
                                       INPUT FILE
================================================================================
NAME = AgH.inp
|  1> 
|  2> !uks pbe nori defgrid3 verytightscf
|  3> 
|  4> %pal nprocs 16 end
|  5> 
|  6> %scf maxiter 400 end
|  7> 
|  8> %basis
|  9>   newgto Ag "sarc-zora-tzvpp" end
| 10>   newgto H "zora-def2-tzvp" end
| 11>   delecp Ag
| 12>   delecp H
| 13> end
| 14> 
| 15> *xyz 0 1
| 16> Ag 0.0000000000 0.0000000000 0.0000000000
| 17> H 0.0000000000 0.0000000000 1.9310000000
| 18> *
| 19> 
| 20>                          ****END OF INPUT****
================================================================================

                       ****************************
                       * Single Point Calculation *
                       ****************************

---------------------------------
CARTESIAN COORDINATES (ANGSTROEM)
---------------------------------
  Ag     0.000000    0.000000    0.000000
  H      0.000000    0.000000    1.931000

----------------------------
CARTESIAN COORDINATES (A.U.)
----------------------------
  NO LB      ZA    FRAG     MASS         X           Y           Z
   0 Ag   47.0000    0   107.870    0.000000    0.000000    0.000000
   1 H     1.0000    0     1.008    0.000000    0.000000    3.649061

--------------------------------
INTERNAL COORDINATES (ANGSTROEM)
--------------------------------
 Ag     0   0   0     0.000000000000     0.00000000     0.00000000
 H      1   0   0     1.931000000000     0.00000000     0.00000000

---------------------------
INTERNAL COORDINATES (A.U.)
---------------------------
 Ag     0   0   0     0.000000000000     0.00000000     0.00000000
 H      1   0   0     3.649061164602     0.00000000     0.00000000

---------------------
BASIS SET INFORMATION
---------------------
There are 2 groups of distinct atoms

 Group   1 Type Ag  : 22s15p10d2f1g contracted to 15s10p6d2f1g pattern {811111111111111/6111111111/511111/11/1}
 Group   2 Type H   : 5s1p contracted to 3s1p pattern {311/1}

Atom   0Ag   basis set group =>   1
Atom   1H    basis set group =>   2


           ************************************************************
           *        Program running with 16 parallel MPI-processes    *
           *              working on a common directory               *
           ************************************************************
------------------------------------------------------------------------------
                           ORCA GTO INTEGRAL CALCULATION
------------------------------------------------------------------------------
------------------------------------------------------------------------------
                   ___                                                        
                  /   \      - P O W E R E D   B Y -                         
                 /     \                                                     
                 |  |  |   _    _      __       _____    __    __             
                 |  |  |  | |  | |    /  \     |  _  \  |  |  /  |          
                  \  \/   | |  | |   /    \    | | | |  |  | /  /          
                 / \  \   | |__| |  /  /\  \   | |_| |  |  |/  /          
                |  |  |   |  __  | /  /__\  \  |    /   |      \           
                |  |  |   | |  | | |   __   |  |    \   |  |\   \          
                \     /   | |  | | |  |  |  |  | |\  \  |  | \   \       
                 \___/    |_|  |_| |__|  |__|  |_| \__\ |__|  \__/        
                                                                              
                      - O R C A' S   B I G   F R I E N D -                    
                                      &                                       
                       - I N T E G R A L  F E E D E R -                       
                                                                              
 v1 FN, 2020, v2 2021                                                         
------------------------------------------------------------------------------


Reading SHARK input file AgH.SHARKINP.tmp ... ok
----------------------
SHARK INTEGRAL PACKAGE
----------------------

Number of atoms                             ...      2
Number of basis functions                   ...    104
Number of shells                            ...     38
Maximum angular momentum                    ...      4
Integral batch strategy                     ... SHARK/LIBINT Hybrid
RI-J (if used) integral strategy            ... SPLIT-RIJ (Revised 2003 algorithm where possible)
Printlevel                                  ...      1
Contraction scheme used                     ... SEGMENTED contraction
Coulomb Range Separation                    ... NOT USED
Exchange Range Separation                   ... NOT USED
Finite Nucleus Model                        ... NOT USED
Auxiliary Coulomb fitting basis             ... NOT available
Auxiliary J/K fitting basis                 ... NOT available
Auxiliary Correlation fitting basis         ... NOT available
Auxiliary 'external' fitting basis          ... NOT available
Integral threshold                          ...     1.000000e-12
Primitive cut-off                           ...     1.000000e-14
Primitive pair pre-selection threshold      ...     1.000000e-14

Calculating pre-screening integrals         ... done (  0.0 sec) Dimension = 38
Organizing shell pair data                  ... done (  0.0 sec)
Shell pair information
Total number of shell pairs                 ...       741
Shell pairs after pre-screening             ...       741
Total number of primitive shell pairs       ...      1652
Primitive shell pairs kept                  ...      1589
          la=0 lb=0:    171 shell pairs
          la=1 lb=0:    198 shell pairs
          la=1 lb=1:     66 shell pairs
          la=2 lb=0:    108 shell pairs
          la=2 lb=1:     66 shell pairs
          la=2 lb=2:     21 shell pairs
          la=3 lb=0:     36 shell pairs
          la=3 lb=1:     22 shell pairs
          la=3 lb=2:     12 shell pairs
          la=3 lb=3:      3 shell pairs
          la=4 lb=0:     18 shell pairs
          la=4 lb=1:     11 shell pairs
          la=4 lb=2:      6 shell pairs
          la=4 lb=3:      2 shell pairs
          la=4 lb=4:      1 shell pairs

Calculating one electron integrals          ... done (  0.0 sec)
Calculating Nuclear repulsion               ... done (  0.0 sec) ENN=     12.880025266753 Eh

SHARK setup successfully completed in   0.2 seconds

Maximum memory used throughout the entire GTOINT-calculation: 26.5 MB


           ************************************************************
           *        Program running with 16 parallel MPI-processes    *
           *              working on a common directory               *
           ************************************************************
-------------------------------------------------------------------------------
                                 ORCA SCF
-------------------------------------------------------------------------------

------------
SCF SETTINGS
------------
Hamiltonian:
 Density Functional     Method          .... DFT(GTOs)
 Exchange Functional    Exchange        .... PBE
   PBE kappa parameter   XKappa         ....  0.804000
   PBE mue parameter    XMuePBE         ....  0.219520
 Correlation Functional Correlation     .... PBE
   PBE beta parameter  CBetaPBE         ....  0.066725
 LDA part of GGA corr.  LDAOpt          .... PW91-LDA
 Gradients option       PostSCFGGA      .... off
   Density functional embedding theory  .... OFF
   NL short-range parameter             ....  6.400000


General Settings:
 Integral files         IntName         .... AgH
 Hartree-Fock type      HFTyp           .... UHF
 Total Charge           Charge          ....    0
 Multiplicity           Mult            ....    1
 Number of Electrons    NEL             ....   48
 Basis Dimension        Dim             ....  104
 Nuclear Repulsion      ENuc            ....     12.8800252668 Eh

Convergence Acceleration:
 DIIS                   CNVDIIS         .... on
   Start iteration      DIISMaxIt       ....    12
   Startup error        DIISStart       ....  0.200000
   # of expansion vecs  DIISMaxEq       ....     5
   Bias factor          DIISBfac        ....   1.050
   Max. coefficient     DIISMaxC        ....  10.000
 Trust-Rad. Augm. Hess. CNVTRAH         .... auto
   Auto Start mean grad. ratio tolernc. ....  1.125000
   Auto Start start iteration           ....    20
   Auto Start num. interpolation iter.  ....    10
   Max. Number of Micro iterations      ....    16
   Max. Number of Macro iterations      .... Maxiter - #DIIS iter
   Number of Davidson start vectors     ....     2
   Converg. threshold I  (grad. norm)   ....   2.000e-06
   Converg. threshold II (energy diff.) ....   1.000e-09
   Grad. Scal. Fac. for Micro threshold ....   0.100
   Minimum threshold for Micro iter.    ....   0.010
   NR start threshold (gradient norm)   ....   0.001
   Initial trust radius                 ....   0.400
   Minimum AH scaling param. (alpha)    ....   1.000
   Maximum AH scaling param. (alpha)    .... 1000.000
   Orbital update algorithm             .... Taylor
   White noise on init. David. guess    .... on
   Maximum white noise                  ....   0.010
   Quad. conv. algorithm                .... NR
 SOSCF                  CNVSOSCF        .... off
 Level Shifting         CNVShift        .... on
   Level shift para.    LevelShift      ....    0.2500
   Turn off err/grad.   ShiftErr        ....    0.0010
 Zerner damping         CNVZerner       .... off
 Static damping         CNVDamp         .... on
   Fraction old density DampFac         ....    0.7000
   Max. Damping (<1)    DampMax         ....    0.9800
   Min. Damping (>=0)   DampMin         ....    0.0000
   Turn off err/grad.   DampErr         ....    0.1000
 Fernandez-Rico         CNVRico         .... off

SCF Procedure:
 Maximum # iterations   MaxIter         ....   400
 SCF integral mode      SCFMode         .... Direct
   Integral package                     .... SHARK and LIBINT hybrid scheme
 Reset frequency        DirectResetFreq ....    20
 Integral Threshold     Thresh          ....  1.000e-12 Eh
 Primitive CutOff       TCut            ....  1.000e-14 Eh

Convergence Tolerance:
 Convergence Check Mode ConvCheckMode   .... Total+1el-Energy
 Convergence forced     ConvForced      .... 0
 Energy Change          TolE            ....  1.000e-09 Eh
 1-El. energy change                    ....  1.000e-06 Eh
 DIIS Error             TolErr          ....  1.000e-08


Diagonalization of the overlap matrix:
Smallest eigenvalue                        ... 7.198e-04
Time for diagonalization                   ...    0.003 sec
Threshold for overlap eigenvalues          ... 1.000e-08
Number of eigenvalues below threshold      ... 0
Time for construction of square roots      ...    0.002 sec
Total time needed                          ...    0.005 sec

Time for model grid setup =    0.095 sec

------------------------------
INITIAL GUESS: MODEL POTENTIAL
------------------------------
Loading Hartree-Fock densities                     ... done
Calculating cut-offs                               ... done
Initializing the effective Hamiltonian             ... done
Setting up the integral package (SHARK)            ... done
Starting the Coulomb interaction                   ... done (   0.0 sec)
Reading the grid                                   ... done
Mapping shells                                     ... done
Starting the XC term evaluation                    ... done (   0.0 sec)
  promolecular density results
     # of electrons  =     48.001033463
     EX              =   -143.672963931
     EC              =     -2.502605542
     EX+EC           =   -146.175569473
Transforming the Hamiltonian                       ... done (   0.0 sec)
Diagonalizing the Hamiltonian                      ... done (   0.0 sec)
Back transforming the eigenvectors                 ... done (   0.0 sec)
Now organizing SCF variables                       ... done
                      ------------------
                      INITIAL GUESS DONE (   0.1 sec)
                      ------------------
-------------------
DFT GRID GENERATION
-------------------

General Integration Accuracy     IntAcc      ... 4.959
Radial Grid Type                 RadialGrid  ... OptM3 with GC (2021)
Angular Grid (max. ang.)         AngularGrid ... 6 (Lebedev-590)
Angular grid pruning method      GridPruning ... 4 (adaptive)
Weight generation scheme         WeightScheme... Becke
Basis function cutoff            BFCut       ... 1.0000e-12
Integration weight cutoff        WCut        ... 1.0000e-14
Angular grids for H and He will be reduced by one unit
Partially contracted basis set               ... off
Rotationally invariant grid construction     ... off

Total number of grid points                  ...    74974
Total number of batches                      ...     1173
Average number of points per batch           ...       63
Average number of grid points per atom       ...    37487
Time for grid setup =    2.071 sec

--------------
SCF ITERATIONS
--------------
ITER       Energy         Delta-E        Max-DP      RMS-DP      [F,P]     Damp
               ***  Starting incremental Fock matrix formation  ***
  0  -5197.3484295619   0.000000000000 0.02295375  0.00069854  0.0713379 0.7000
  1  -5197.3756737900  -0.027244228159 0.02336881  0.00061800  0.0403359 0.7000
                               ***Turning on DIIS***
  2  -5197.3859608740  -0.010287083944 0.06524491  0.00128063  0.0125487 0.0000
  3  -5197.3884072290  -0.002446355013 0.01140214  0.00034199  0.0437967 0.0000
  4  -5197.3961980130  -0.007790783970 0.01035324  0.00023600  0.0266178 0.0000
  5  -5197.3990549887  -0.002856975738 0.00865246  0.00016881  0.0161345 0.0000
  6  -5197.4002030309  -0.001148042155 0.00598104  0.00010422  0.0091883 0.0000
  7  -5197.4005963221  -0.000393291220 0.00386231  0.00006969  0.0054051 0.0000
  8  -5197.4007501759  -0.000153853818 0.00230508  0.00003838  0.0030267 0.0000
  9  -5197.4008000989  -0.000049923058 0.00140771  0.00002465  0.0019433 0.0000
 10  -5197.4008207144  -0.000020615466 0.00083725  0.00001483  0.0012664 0.0000
 11  -5197.4008290902  -0.000008375739 0.00208006  0.00003682  0.0008928 0.0000
 12  -5197.4008366297  -0.000007539579 0.00027609  0.00000483  0.0001718 0.0000
 13  -5197.4008368222  -0.000000192448 0.00005225  0.00000145  0.0000936 0.0000
 14  -5197.4008368954  -0.000000073212 0.00002044  0.00000037  0.0000119 0.0000
 15  -5197.4008368975  -0.000000002140 0.00000159  0.00000005  0.0000014 0.0000
 16  -5197.4008368975  -0.000000000006 0.00000050  0.00000002  0.0000006 0.0000
 17  -5197.4008368975  -0.000000000005 0.00000010  0.00000000  0.0000001 0.0000
 18  -5197.4008368976  -0.000000000035 0.00000003  0.00000000  0.0000000 0.0000
                 **** Energy Check signals convergence ****

               *****************************************************
               *                     SUCCESS                       *
               *           SCF CONVERGED AFTER  19 CYCLES          *
               *****************************************************


----------------
TOTAL SCF ENERGY
----------------

Total Energy       :        -5197.40083690 Eh         -141428.46686 eV

Components:
Nuclear Repulsion  :           12.88002527 Eh             350.48331 eV
Electronic Energy  :        -5210.28086216 Eh         -141778.95016 eV
One Electron Energy:        -7207.71237499 Eh         -196131.82487 eV
Two Electron Energy:         1997.43151283 Eh           54352.87471 eV

Virial components:
Potential Energy   :       -10389.49361358 Eh         -282712.49405 eV
Kinetic Energy     :         5192.09277668 Eh          141284.02719 eV
Virial Ratio       :            2.00102234


DFT components:
N(Alpha)           :       24.000000016247 electrons
N(Beta)            :       24.000000016247 electrons
N(Total)           :       48.000000032493 electrons
E(X)               :     -143.502431224175 Eh       
E(C)               :       -2.502910747074 Eh       
E(XC)              :     -146.005341971249 Eh       
DFET-embed. en.    :        0.000000000000 Eh       

---------------
SCF CONVERGENCE
---------------

  Last Energy change         ...    2.0009e-11  Tolerance :   1.0000e-09
  Last MAX-Density change    ...    1.0821e-08  Tolerance :   1.0000e-08
  Last RMS-Density change    ...    3.5679e-10  Tolerance :   1.0000e-09
  Last DIIS Error            ...    1.1363e-08  Tolerance :   1.0000e-08

             **** THE GBW FILE WAS UPDATED (AgH.gbw) ****
             **** DENSITY AgH.scfp WAS UPDATED ****
             **** ENERGY FILE WAS UPDATED (AgH.en.tmp) ****
----------------------
UHF SPIN CONTAMINATION
----------------------

Warning: in a DFT calculation there is little theoretical justification to 
         calculate <S**2> as in Hartree-Fock theory. We will do it anyways
         but you should keep in mind that the values have only limited relevance

Expectation value of <S**2>     :    -0.000000
Ideal value S*(S+1) for S=0.0   :     0.000000
Deviation                       :    -0.000000

             **** THE GBW FILE WAS UPDATED (AgH.gbw) ****
             **** DENSITY AgH.scfp WAS UPDATED ****
----------------
ORBITAL ENERGIES
----------------
                 SPIN UP ORBITALS
  NO   OCC          E(Eh)            E(eV) 
   0   1.0000    -900.623520    -24507.2119 
   1   1.0000    -129.947542     -3536.0524 
   2   1.0000    -120.979724     -3292.0257 
   3   1.0000    -120.979724     -3292.0257 
   4   1.0000    -120.979388     -3292.0165 
   5   1.0000     -23.733912      -645.8326 
   6   1.0000     -20.095202      -546.8182 
   7   1.0000     -20.095202      -546.8182 
   8   1.0000     -20.092313      -546.7396 
   9   1.0000     -13.387641      -364.2962 
  10   1.0000     -13.387641      -364.2962 
  11   1.0000     -13.385624      -364.2414 
  12   1.0000     -13.385624      -364.2414 
  13   1.0000     -13.385214      -364.2302 
  14   1.0000      -3.237143       -88.0871 
  15   1.0000      -2.094769       -57.0016 
  16   1.0000      -2.093694       -56.9723 
  17   1.0000      -2.093694       -56.9723 
  18   1.0000      -0.317019        -8.6265 
  19   1.0000      -0.299364        -8.1461 
  20   1.0000      -0.299364        -8.1461 
  21   1.0000      -0.297680        -8.1003 
  22   1.0000      -0.297680        -8.1003 
  23   1.0000      -0.206616        -5.6223 
  24   0.0000      -0.109835        -2.9888 
  25   0.0000      -0.020189        -0.5494 
  26   0.0000      -0.020189        -0.5494 
  27   0.0000       0.061211         1.6656 
  28   0.0000       0.113195         3.0802 
  29   0.0000       0.113195         3.0802 
  30   0.0000       0.121336         3.3017 
  31   0.0000       0.121336         3.3017 
  32   0.0000       0.126753         3.4491 
  33   0.0000       0.162518         4.4223 
  34   0.0000       0.225484         6.1357 
  35   0.0000       0.225484         6.1357 
  36   0.0000       0.226454         6.1621 
  37   0.0000       0.399121        10.8606 
  38   0.0000       0.563550        15.3350 
  39   0.0000       0.563550        15.3350 
  40   0.0000       0.574365        15.6293 
  41   0.0000       0.574365        15.6293 
  42   0.0000       0.660583        17.9754 
  43   0.0000       0.841518        22.8989 
  44   0.0000       1.050964        28.5982 
  45   0.0000       1.091967        29.7139 
  46   0.0000       1.091967        29.7139 
  47   0.0000       1.365764        37.1643 
  48   0.0000       1.365764        37.1643 
  49   0.0000       1.367418        37.2093 
  50   0.0000       1.460205        39.7342 
  51   0.0000       1.460205        39.7342 
  52   0.0000       1.460696        39.7476 
  53   0.0000       1.460696        39.7476 
  54   0.0000       1.590443        43.2782 
  55   0.0000       1.590443        43.2782 
  56   0.0000       1.895921        51.5906 
  57   0.0000       2.225670        60.5636 
  58   0.0000       2.225670        60.5636 
  59   0.0000       2.231163        60.7130 
  60   0.0000       2.231163        60.7130 
  61   0.0000       2.260766        61.5186 
  62   0.0000       2.600955        70.7756 
  63   0.0000       3.243411        88.2577 
  64   0.0000       4.492659       122.2515 
  65   0.0000       4.492659       122.2515 
  66   0.0000       4.508926       122.6941 
  67   0.0000       4.508926       122.6941 
  68   0.0000       4.509150       122.7002 
  69   0.0000       4.509150       122.7002 
  70   0.0000       4.517240       122.9203 
  71   0.0000       4.517240       122.9203 
  72   0.0000       4.520510       123.0093 
  73   0.0000       4.678901       127.3194 
  74   0.0000       5.138192       139.8173 
  75   0.0000       5.138192       139.8173 
  76   0.0000       5.138655       139.8299 
  77   0.0000       5.138655       139.8299 
  78   0.0000       5.139013       139.8397 
  79   0.0000       5.139013       139.8397 
  80   0.0000       5.139755       139.8599 
  81   0.0000       5.139755       139.8599 
  82   0.0000       5.174124       140.7951 
  83   0.0000       9.256003       251.8687 
  84   0.0000       9.256003       251.8687 
  85   0.0000       9.258788       251.9444 
  86   0.0000       9.258788       251.9444 
  87   0.0000       9.283619       252.6201 
  88   0.0000      12.125228       329.9442 
  89   0.0000      20.614572       560.9510 
  90   0.0000      20.614572       560.9510 
  91   0.0000      20.646811       561.8283 
  92   0.0000      48.035044      1307.1000 
  93   0.0000      96.686566      2630.9752 
  94   0.0000      96.686566      2630.9752 
  95   0.0000      96.709475      2631.5986 
  96   0.0000     183.568503      4995.1529 
  97   0.0000     458.585824     12478.7547 
  98   0.0000     458.585824     12478.7547 
  99   0.0000     458.602285     12479.2026 
 100   0.0000     624.339125     16989.1313 
 101   0.0000    1924.948579     52380.5138 
 102   0.0000    5477.817324    149058.9874 
 103   0.0000   23352.546863    635455.1061 

                 SPIN DOWN ORBITALS
  NO   OCC          E(Eh)            E(eV) 
   0   1.0000    -900.623520    -24507.2119 
   1   1.0000    -129.947542     -3536.0524 
   2   1.0000    -120.979724     -3292.0257 
   3   1.0000    -120.979724     -3292.0257 
   4   1.0000    -120.979388     -3292.0165 
   5   1.0000     -23.733912      -645.8326 
   6   1.0000     -20.095202      -546.8182 
   7   1.0000     -20.095202      -546.8182 
   8   1.0000     -20.092313      -546.7396 
   9   1.0000     -13.387641      -364.2962 
  10   1.0000     -13.387641      -364.2962 
  11   1.0000     -13.385624      -364.2414 
  12   1.0000     -13.385624      -364.2414 
  13   1.0000     -13.385214      -364.2302 
  14   1.0000      -3.237143       -88.0871 
  15   1.0000      -2.094769       -57.0016 
  16   1.0000      -2.093694       -56.9723 
  17   1.0000      -2.093694       -56.9723 
  18   1.0000      -0.317019        -8.6265 
  19   1.0000      -0.299364        -8.1461 
  20   1.0000      -0.299364        -8.1461 
  21   1.0000      -0.297680        -8.1003 
  22   1.0000      -0.297680        -8.1003 
  23   1.0000      -0.206616        -5.6223 
  24   0.0000      -0.109835        -2.9888 
  25   0.0000      -0.020189        -0.5494 
  26   0.0000      -0.020189        -0.5494 
  27   0.0000       0.061211         1.6656 
  28   0.0000       0.113195         3.0802 
  29   0.0000       0.113195         3.0802 
  30   0.0000       0.121336         3.3017 
  31   0.0000       0.121336         3.3017 
  32   0.0000       0.126753         3.4491 
  33   0.0000       0.162518         4.4223 
  34   0.0000       0.225484         6.1357 
  35   0.0000       0.225484         6.1357 
  36   0.0000       0.226454         6.1621 
  37   0.0000       0.399121        10.8606 
  38   0.0000       0.563550        15.3350 
  39   0.0000       0.563550        15.3350 
  40   0.0000       0.574365        15.6293 
  41   0.0000       0.574365        15.6293 
  42   0.0000       0.660583        17.9754 
  43   0.0000       0.841518        22.8989 
  44   0.0000       1.050964        28.5982 
  45   0.0000       1.091967        29.7139 
  46   0.0000       1.091967        29.7139 
  47   0.0000       1.365764        37.1643 
  48   0.0000       1.365764        37.1643 
  49   0.0000       1.367418        37.2093 
  50   0.0000       1.460205        39.7342 
  51   0.0000       1.460205        39.7342 
  52   0.0000       1.460696        39.7476 
  53   0.0000       1.460696        39.7476 
  54   0.0000       1.590443        43.2782 
  55   0.0000       1.590443        43.2782 
  56   0.0000       1.895921        51.5906 
  57   0.0000       2.225670        60.5636 
  58   0.0000       2.225670        60.5636 
  59   0.0000       2.231163        60.7130 
  60   0.0000       2.231163        60.7130 
  61   0.0000       2.260766        61.5186 
  62   0.0000       2.600955        70.7756 
  63   0.0000       3.243411        88.2577 
  64   0.0000       4.492659       122.2515 
  65   0.0000       4.492659       122.2515 
  66   0.0000       4.508926       122.6941 
  67   0.0000       4.508926       122.6941 
  68   0.0000       4.509150       122.7002 
  69   0.0000       4.509150       122.7002 
  70   0.0000       4.517240       122.9203 
  71   0.0000       4.517240       122.9203 
  72   0.0000       4.520510       123.0093 
  73   0.0000       4.678901       127.3194 
  74   0.0000       5.138192       139.8173 
  75   0.0000       5.138192       139.8173 
  76   0.0000       5.138655       139.8299 
  77   0.0000       5.138655       139.8299 
  78   0.0000       5.139013       139.8397 
  79   0.0000       5.139013       139.8397 
  80   0.0000       5.139755       139.8599 
  81   0.0000       5.139755       139.8599 
  82   0.0000       5.174124       140.7951 
  83   0.0000       9.256003       251.8687 
  84   0.0000       9.256003       251.8687 
  85   0.0000       9.258788       251.9444 
  86   0.0000       9.258788       251.9444 
  87   0.0000       9.283619       252.6201 
  88   0.0000      12.125228       329.9442 
  89   0.0000      20.614572       560.9510 
  90   0.0000      20.614572       560.9510 
  91   0.0000      20.646811       561.8283 
  92   0.0000      48.035044      1307.1000 
  93   0.0000      96.686566      2630.9752 
  94   0.0000      96.686566      2630.9752 
  95   0.0000      96.709475      2631.5986 
  96   0.0000     183.568503      4995.1529 
  97   0.0000     458.585824     12478.7547 
  98   0.0000     458.585824     12478.7547 
  99   0.0000     458.602285     12479.2026 
 100   0.0000     624.339125     16989.1313 
 101   0.0000    1924.948579     52380.5138 
 102   0.0000    5477.817324    149058.9874 
 103   0.0000   23352.546863    635455.1061 

                    ********************************
                    * MULLIKEN POPULATION ANALYSIS *
                    ********************************

--------------------------------------------
MULLIKEN ATOMIC CHARGES AND SPIN POPULATIONS
--------------------------------------------
   0 Ag:    0.152036    0.000000
   1 H :   -0.152036    0.000000
Sum of atomic charges         :   -0.0000000
Sum of atomic spin populations:    0.0000000

-----------------------------------------------------
MULLIKEN REDUCED ORBITAL CHARGES AND SPIN POPULATIONS
-----------------------------------------------------
CHARGE
  0 Ags       :     8.816520  s :     8.816520
      pz      :     6.070584  p :    18.071587
      px      :     6.000502
      py      :     6.000502
      dz2     :     3.961362  d :    19.958645
      dxz     :     3.998724
      dyz     :     3.998724
      dx2y2   :     3.999917
      dxy     :     3.999917
      f0      :     0.000808  f :     0.001204
      f+1     :     0.000115
      f-1     :     0.000115
      f+2     :     0.000083
      f-2     :     0.000083
      f+3     :     0.000000
      f-3     :     0.000000
      g0      :     0.000008  g :     0.000008
      g+1     :     0.000000
      g-1     :     0.000000
      g+2     :     0.000000
      g-2     :     0.000000
      g+3     :     0.000000
      g-3     :     0.000000
      g+4     :     0.000000
      g-4     :     0.000000
  1 H s       :     1.147609  s :     1.147609
      pz      :     0.003110  p :     0.004427
      px      :     0.000659
      py      :     0.000659

SPIN
  0 Ags       :     0.000000  s :     0.000000
      pz      :     0.000000  p :     0.000000
      px      :     0.000000
      py      :     0.000000
      dz2     :     0.000000  d :     0.000000
      dxz     :     0.000000
      dyz     :     0.000000
      dx2y2   :     0.000000
      dxy     :     0.000000
      f0      :     0.000000  f :     0.000000
      f+1     :     0.000000
      f-1     :     0.000000
      f+2     :     0.000000
      f-2     :     0.000000
      f+3     :     0.000000
      f-3     :     0.000000
      g0      :     0.000000  g :     0.000000
      g+1     :     0.000000
      g-1     :     0.000000
      g+2     :     0.000000
      g-2     :     0.000000
      g+3     :     0.000000
      g-3     :     0.000000
      g+4     :     0.000000
      g-4     :     0.000000
  1 H s       :     0.000000  s :     0.000000
      pz      :     0.000000  p :     0.000000
      px      :     0.000000
      py      :     0.000000


                     *******************************
                     * LOEWDIN POPULATION ANALYSIS *
                     *******************************

-------------------------------------------
LOEWDIN ATOMIC CHARGES AND SPIN POPULATIONS
-------------------------------------------
   0 Ag:    0.089854    0.000000
   1 H :   -0.089854    0.000000

----------------------------------------------------
LOEWDIN REDUCED ORBITAL CHARGES AND SPIN POPULATIONS
----------------------------------------------------
CHARGE
  0 Ags       :     8.807082  s :     8.807082
      pz      :     6.114236  p :    18.115265
      px      :     6.000515
      py      :     6.000515
      dz2     :     3.989826  d :    19.986074
      dxz     :     3.998207
      dyz     :     3.998207
      dx2y2   :     3.999917
      dxy     :     3.999917
      f0      :     0.001307  f :     0.001711
      f+1     :     0.000119
      f-1     :     0.000119
      f+2     :     0.000083
      f-2     :     0.000083
      f+3     :     0.000000
      f-3     :     0.000000
      g0      :     0.000014  g :     0.000014
      g+1     :     0.000000
      g-1     :     0.000000
      g+2     :     0.000000
      g-2     :     0.000000
      g+3     :     0.000000
      g-3     :     0.000000
      g+4     :     0.000000
      g-4     :     0.000000
  1 H s       :     1.081273  s :     1.081273
      pz      :     0.006262  p :     0.008581
      px      :     0.001159
      py      :     0.001159

SPIN
  0 Ags       :     0.000000  s :     0.000000
      pz      :     0.000000  p :     0.000000
      px      :     0.000000
      py      :     0.000000
      dz2     :     0.000000  d :     0.000000
      dxz     :     0.000000
      dyz     :     0.000000
      dx2y2   :     0.000000
      dxy     :     0.000000
      f0      :     0.000000  f :     0.000000
      f+1     :     0.000000
      f-1     :     0.000000
      f+2     :     0.000000
      f-2     :     0.000000
      f+3     :     0.000000
      f-3     :     0.000000
      g0      :     0.000000  g :     0.000000
      g+1     :     0.000000
      g-1     :     0.000000
      g+2     :     0.000000
      g-2     :     0.000000
      g+3     :     0.000000
      g-3     :     0.000000
      g+4     :     0.000000
      g-4     :     0.000000
  1 H s       :     0.000000  s :     0.000000
      pz      :     0.000000  p :     0.000000
      px      :     0.000000
      py      :     0.000000


                      *****************************
                      * MAYER POPULATION ANALYSIS *
                      *****************************

  NA   - Mulliken gross atomic population
  ZA   - Total nuclear charge
  QA   - Mulliken gross atomic charge
  VA   - Mayer's total valence
  BVA  - Mayer's bonded valence
  FA   - Mayer's free valence

  ATOM       NA         ZA         QA         VA         BVA        FA
  0 Ag    46.8480    47.0000     0.1520     1.0009     1.0009    -0.0000
  1 H      1.1520     1.0000    -0.1520     1.0009     1.0009    -0.0000

  Mayer bond orders larger than 0.100000
B(  0-Ag,  1-H ) :   1.0009 

-------
TIMINGS
-------

Total SCF time: 0 days 0 hours 0 min 6 sec 

Total time                  ....       6.735 sec
Sum of individual times     ....       6.562 sec  ( 97.4%)

Fock matrix formation       ....       4.205 sec  ( 62.4%)
  XC integration            ....       0.916 sec  ( 21.8% of F)
    Basis function eval.    ....       0.142 sec  ( 15.5% of XC)
    Density eval.           ....       0.153 sec  ( 16.7% of XC)
    XC-Functional eval.     ....       0.070 sec  (  7.6% of XC)
    XC-Potential eval.      ....       0.255 sec  ( 27.8% of XC)
Diagonalization             ....       0.093 sec  (  1.4%)
Density matrix formation    ....       0.004 sec  (  0.1%)
Population analysis         ....       0.005 sec  (  0.1%)
Initial guess               ....       0.012 sec  (  0.2%)
Orbital Transformation      ....       0.000 sec  (  0.0%)
Orbital Orthonormalization  ....       0.000 sec  (  0.0%)
DIIS solution               ....       0.077 sec  (  1.1%)
Grid generation             ....       2.166 sec  ( 32.2%)

Maximum memory used throughout the entire SCF-calculation: 233.4 MB

-------------------------   --------------------
FINAL SINGLE POINT ENERGY     -5197.400836897558
-------------------------   --------------------


                            ***************************************
                            *     ORCA property calculations      *
                            ***************************************

                                    ---------------------
                                    Active property flags
                                    ---------------------
   (+) Dipole Moment


------------------------------------------------------------------------------
                       ORCA ELECTRIC PROPERTIES CALCULATION
------------------------------------------------------------------------------

Dipole Moment Calculation                       ... on
Quadrupole Moment Calculation                   ... off
Polarizability Calculation                      ... off
GBWName                                         ... AgH.gbw
Electron density                                ... AgH.scfp
The origin for moment calculation is the CENTER OF MASS  = ( 0.000000,  0.000000  0.033783)

-------------
DIPOLE MOMENT
-------------
                                X             Y             Z
Electronic contribution:     -0.00000       0.00000      -3.30535
Nuclear contribution   :      0.00000       0.00000       2.02746
                        -----------------------------------------
Total Dipole Moment    :     -0.00000       0.00000      -1.27789
                        -----------------------------------------
Magnitude (a.u.)       :      1.27789
Magnitude (Debye)      :      3.24813



--------------------
Rotational spectrum 
--------------------
 
Rotational constants in cm-1:     0.000000     4.527008     4.527008 
Rotational constants in MHz :     0.000000 135716.290347 135716.290347 

 Dipole components along the rotational axes: 
x,y,z [a.u.] :    -1.277886     0.000000    -0.000000 
x,y,z [Debye]:    -3.248129     0.000000    -0.000000 

 

Timings for individual modules:

Sum of individual times         ...        7.332 sec (=   0.122 min)
GTO integral calculation        ...        0.372 sec (=   0.006 min)   5.1 %
SCF iterations                  ...        6.960 sec (=   0.116 min)  94.9 %
                             ****ORCA TERMINATED NORMALLY****
TOTAL RUN TIME: 0 days 0 hours 0 minutes 7 seconds 631 msec
