
                                 *****************
                                 * O   R   C   A *
                                 *****************

                                            #,                                       
                                            ###                                      
                                            ####                                     
                                            #####                                    
                                            ######                                   
                                           ########,                                 
                                     ,,################,,,,,                         
                               ,,#################################,,                 
                          ,,##########################################,,             
                       ,#########################################, ''#####,          
                    ,#############################################,,   '####,        
                  ,##################################################,,,,####,       
                ,###########''''           ''''###############################       
              ,#####''   ,,,,##########,,,,          '''####'''          '####       
            ,##' ,,,,###########################,,,                        '##       
           ' ,,###''''                  '''############,,,                           
         ,,##''                                '''############,,,,        ,,,,,,###''
      ,#''                                            '''#######################'''  
     '                                                          ''''####''''         
             ,#######,   #######,   ,#######,      ##                                
            ,#'     '#,  ##    ##  ,#'     '#,    #''#        ######   ,####,        
            ##       ##  ##   ,#'  ##            #'  '#       #        #'  '#        
            ##       ##  #######   ##           ,######,      #####,   #    #        
            '#,     ,#'  ##    ##  '#,     ,#' ,#      #,         ##   #,  ,#        
             '#######'   ##     ##  '#######'  #'      '#     #####' # '####'        



                  #######################################################
                  #                        -***-                        #
                  #          Department of theory and spectroscopy      #
                  #    Directorship and core code : Frank Neese         #
                  #        Max Planck Institute fuer Kohlenforschung    #
                  #                Kaiser Wilhelm Platz 1               #
                  #                 D-45470 Muelheim/Ruhr               #
                  #                      Germany                        #
                  #                                                     #
                  #                  All rights reserved                #
                  #                        -***-                        #
                  #######################################################


                         Program Version 5.0.1 -  RELEASE  -


 With contributions from (in alphabetic order):
   Daniel Aravena         : Magnetic Suceptibility
   Michael Atanasov       : Ab Initio Ligand Field Theory (pilot matlab implementation)
   Alexander A. Auer      : GIAO ZORA, VPT2 properties, NMR spectrum
   Ute Becker             : Parallelization
   Giovanni Bistoni       : ED, misc. LED, open-shell LED, HFLD
   Martin Brehm           : Molecular dynamics
   Dmytro Bykov           : SCF Hessian
   Vijay G. Chilkuri      : MRCI spin determinant printing, contributions to CSF-ICE
   Dipayan Datta          : RHF DLPNO-CCSD density
   Achintya Kumar Dutta   : EOM-CC, STEOM-CC
   Dmitry Ganyushin       : Spin-Orbit,Spin-Spin,Magnetic field MRCI
   Miquel Garcia          : C-PCM and meta-GGA Hessian, CC/C-PCM, Gaussian charge scheme
   Yang Guo               : DLPNO-NEVPT2, F12-NEVPT2, CIM, IAO-localization
   Andreas Hansen         : Spin unrestricted coupled pair/coupled cluster methods
   Benjamin Helmich-Paris : MC-RPA, TRAH-SCF, COSX integrals
   Lee Huntington         : MR-EOM, pCC
   Robert Izsak           : Overlap fitted RIJCOSX, COSX-SCS-MP3, EOM
   Marcus Kettner         : VPT2
   Christian Kollmar      : KDIIS, OOCD, Brueckner-CCSD(T), CCSD density, CASPT2, CASPT2-K
   Simone Kossmann        : Meta GGA functionals, TD-DFT gradient, OOMP2, MP2 Hessian
   Martin Krupicka        : Initial AUTO-CI
   Lucas Lang             : DCDCAS
   Marvin Lechner         : AUTO-CI (C++ implementation), FIC-MRCC
   Dagmar Lenk            : GEPOL surface, SMD
   Dimitrios Liakos       : Extrapolation schemes; Compound Job, initial MDCI parallelization
   Dimitrios Manganas     : Further ROCIS development; embedding schemes
   Dimitrios Pantazis     : SARC Basis sets
   Anastasios Papadopoulos: AUTO-CI, single reference methods and gradients
   Taras Petrenko         : DFT Hessian,TD-DFT gradient, ASA, ECA, R-Raman, ABS, FL, XAS/XES, NRVS
   Peter Pinski           : DLPNO-MP2, DLPNO-MP2 Gradient
   Christoph Reimann      : Effective Core Potentials
   Marius Retegan         : Local ZFS, SOC
   Christoph Riplinger    : Optimizer, TS searches, QM/MM, DLPNO-CCSD(T), (RO)-DLPNO pert. Triples
   Tobias Risthaus        : Range-separated hybrids, TD-DFT gradient, RPA, STAB
   Michael Roemelt        : Original ROCIS implementation
   Masaaki Saitow         : Open-shell DLPNO-CCSD energy and density
   Barbara Sandhoefer     : DKH picture change effects
   Avijit Sen             : IP-ROCIS
   Kantharuban Sivalingam : CASSCF convergence, NEVPT2, FIC-MRCI
   Bernardo de Souza      : ESD, SOC TD-DFT
   Georgi Stoychev        : AutoAux, RI-MP2 NMR, DLPNO-MP2 response
   Willem Van den Heuvel  : Paramagnetic NMR
   Boris Wezisla          : Elementary symmetry handling
   Frank Wennmohs         : Technical directorship


 We gratefully acknowledge several colleagues who have allowed us to
 interface, adapt or use parts of their codes:
   Stefan Grimme, W. Hujo, H. Kruse, P. Pracht,  : VdW corrections, initial TS optimization,
                  C. Bannwarth, S. Ehlert          DFT functionals, gCP, sTDA/sTD-DF
   Ed Valeev, F. Pavosevic, A. Kumar             : LibInt (2-el integral package), F12 methods
   Garnet Chan, S. Sharma, J. Yang, R. Olivares  : DMRG
   Ulf Ekstrom                                   : XCFun DFT Library
   Mihaly Kallay                                 : mrcc  (arbitrary order and MRCC methods)
   Jiri Pittner, Ondrej Demel                    : Mk-CCSD
   Frank Weinhold                                : gennbo (NPA and NBO analysis)
   Christopher J. Cramer and Donald G. Truhlar   : smd solvation model
   Lars Goerigk                                  : TD-DFT with DH, B97 family of functionals
   V. Asgeirsson, H. Jonsson                     : NEB implementation
   FAccTs GmbH                                   : IRC, NEB, NEB-TS, DLPNO-Multilevel, CI-OPT
                                                   MM, QMMM, 2- and 3-layer-ONIOM, Crystal-QMMM,
                                                   LR-CPCM, SF, NACMEs, symmetry and pop. for TD-DFT,
                                                   nearIR, NL-DFT gradient (VV10), updates on ESD,
                                                   ML-optimized integration grids
   S Lehtola, MJT Oliveira, MAL Marques          : LibXC Library
   Liviu Ungur et al                             : ANISO software


 Your calculation uses the libint2 library for the computation of 2-el integrals
 For citations please refer to: http://libint.valeyev.net

 Your ORCA version has been built with support for libXC version: 5.1.0
 For citations please refer to: https://tddft.org/programs/libxc/

 This ORCA versions uses:
   CBLAS   interface :  Fast vector & matrix operations
   LAPACKE interface :  Fast linear algebra routines
   SCALAPACK package :  Parallel linear algebra routines
   Shared memory     :  Shared parallel matrices
   BLAS/LAPACK       :  OpenBLAS 0.3.15  USE64BITINT DYNAMIC_ARCH NO_AFFINITY Haswell SINGLE_THREADED
        Core in use  :  Haswell
   Copyright (c) 2011-2014, The OpenBLAS Project


SCAN-COORDS

Reading of a custom basis requested
Basis file         : Ag_sapporo-qzp-2012-diffuse.basis
READING GTO-BASIS: SILVER
Basis successfully read

================================================================================

----- Orbital basis set information -----
================================================================================
                                        WARNINGS
                       Please study these warnings very carefully!
================================================================================


INFO   : the flag for use of the SHARK integral package has been found!

================================================================================
                                       INPUT FILE
================================================================================
NAME = Ag_sapporo-qzp-2012-diffuse_pbe.inp
|  1> !uks pbe nori verytightscf soscf notrah
|  2> 
|  3> %pal
|  4>   nprocs 32
|  5> end
|  6> %coords
|  7>   charge 0
|  8>   mult 2
|  9>   units bohrs
| 10>   coords
| 11>     Ag 0.0 0.0 0.0
| 12>   end
| 13> end
| 14> %basis
| 15>   gtoname "Ag_sapporo-qzp-2012-diffuse.basis"
| 16>   delECP Ag
| 17> end
| 18> %rel
| 19>   method zora
| 20>   modelpot 1, 0, 0, 0
| 21>   c 137.035999084
| 22> endd                         ****END OF INPUT****
================================================================================

                       ****************************
                       * Single Point Calculation *
                       ****************************

---------------------------------
CARTESIAN COORDINATES (ANGSTROEM)
---------------------------------
  Ag     0.000000    0.000000    0.000000

----------------------------
CARTESIAN COORDINATES (A.U.)
----------------------------
  NO LB      ZA    FRAG     MASS         X           Y           Z
   0 Ag   47.0000    0   107.870    0.000000    0.000000    0.000000

--------------------------------
INTERNAL COORDINATES (ANGSTROEM)
--------------------------------
 Ag     0   0   0     0.000000000000     0.00000000     0.00000000

---------------------------
INTERNAL COORDINATES (A.U.)
---------------------------
 Ag     0   0   0     0.000000000000     0.00000000     0.00000000

---------------------
BASIS SET INFORMATION
---------------------
There are 1 groups of distinct atoms

 Group   1 Type Ag  : 22s16p13d4f3g2h contracted to 11s9p7d4f3g2h pattern {74221111111/721111111/7111111/1111/111/11}

Atom   0Ag   basis set group =>   1


           ************************************************************
           *        Program running with 32 parallel MPI-processes    *
           *              working on a common directory               *
           ************************************************************
------------------------------------------------------------------------------
                           ORCA GTO INTEGRAL CALCULATION
------------------------------------------------------------------------------
------------------------------------------------------------------------------
                   ___                                                        
                  /   \      - P O W E R E D   B Y -                         
                 /     \                                                     
                 |  |  |   _    _      __       _____    __    __             
                 |  |  |  | |  | |    /  \     |  _  \  |  |  /  |          
                  \  \/   | |  | |   /    \    | | | |  |  | /  /          
                 / \  \   | |__| |  /  /\  \   | |_| |  |  |/  /          
                |  |  |   |  __  | /  /__\  \  |    /   |      \           
                |  |  |   | |  | | |   __   |  |    \   |  |\   \          
                \     /   | |  | | |  |  |  |  | |\  \  |  | \   \       
                 \___/    |_|  |_| |__|  |__|  |_| \__\ |__|  \__/        
                                                                              
                      - O R C A' S   B I G   F R I E N D -                    
                                      &                                       
                       - I N T E G R A L  F E E D E R -                       
                                                                              
 v1 FN, 2020, v2 2021                                                         
------------------------------------------------------------------------------


Reading SHARK input file Ag_sapporo-qzp-2012-diffuse_pbe.SHARKINP.tmp ... ok
----------------------
SHARK INTEGRAL PACKAGE
----------------------

Number of atoms                             ...      1
Number of basis functions                   ...    150
Number of shells                            ...     36
Maximum angular momentum                    ...      5
Integral batch strategy                     ... SHARK/LIBINT Hybrid
RI-J (if used) integral strategy            ... SPLIT-RIJ (Revised 2003 algorithm where possible)
Printlevel                                  ...      1
Contraction scheme used                     ... SEGMENTED contraction
Coulomb Range Separation                    ... NOT USED
Exchange Range Separation                   ... NOT USED
Finite Nucleus Model                        ... NOT USED
Auxiliary Coulomb fitting basis             ... NOT available
Auxiliary J/K fitting basis                 ... NOT available
Auxiliary Correlation fitting basis         ... NOT available
Auxiliary 'external' fitting basis          ... NOT available
Integral threshold                          ...     1.000000e-12
Primitive cut-off                           ...     1.000000e-14
Primitive pair pre-selection threshold      ...     1.000000e-14

Calculating pre-screening integrals         ... done (  7.9 sec) Dimension = 36
Organizing shell pair data                  ... done (  0.8 sec)
Shell pair information
Total number of shell pairs                 ...       666
Shell pairs after pre-screening             ...       666
Total number of primitive shell pairs       ...      1902
Primitive shell pairs kept                  ...      1902
          la=0 lb=0:     66 shell pairs
          la=1 lb=0:     99 shell pairs
          la=1 lb=1:     45 shell pairs
          la=2 lb=0:     77 shell pairs
          la=2 lb=1:     63 shell pairs
          la=2 lb=2:     28 shell pairs
          la=3 lb=0:     44 shell pairs
          la=3 lb=1:     36 shell pairs
          la=3 lb=2:     28 shell pairs
          la=3 lb=3:     10 shell pairs
          la=4 lb=0:     33 shell pairs
          la=4 lb=1:     27 shell pairs
          la=4 lb=2:     21 shell pairs
          la=4 lb=3:     12 shell pairs
          la=4 lb=4:      6 shell pairs
          la=5 lb=0:     22 shell pairs
          la=5 lb=1:     18 shell pairs
          la=5 lb=2:     14 shell pairs
          la=5 lb=3:      8 shell pairs
          la=5 lb=4:      6 shell pairs
          la=5 lb=5:      3 shell pairs

Calculating one electron integrals          ... done (  0.8 sec)
Calculating Nuclear repulsion               ... done (  0.0 sec) ENN=      0.000000000000 Eh

SHARK setup successfully completed in  11.4 seconds

Maximum memory used throughout the entire GTOINT-calculation: 39.4 MB


           ************************************************************
           *        Program running with 32 parallel MPI-processes    *
           *              working on a common directory               *
           ************************************************************
------------------------------------------------------------------------------
                          ORCA RELATIVISTIC HAMILTONIAN
------------------------------------------------------------------------------

Relativistic Method            ... ZORA(MP)
Treatment of potential         ... Van Wuellen
Nucleus model                  ... Point Nucleus
Speed of light used            ... 137.03599908400000


            *************************************************
            *         ZERO ORDER REGULAR APPROXIMATION      *
            *                     ZORA(MP)                  *
            *            Programmed by FN according to      *
            *                   C. van Wuellen              *
            *       J. Chem. Phys. (1998) vol 109, 392-399  *
            *************************************************

Terms included in model potential: +V(e,N)
Basis function cutoff value   ... 1.000000e-12
Loading the fitted atomic densities  (DKH4)  ... done
Calculating the cutoffs                      ... done
Number of fit functions                      ... 29
Setting up the integration grid ... done

Maximum memory used throughout the entire REL-calculation: 5.6 MB


           ************************************************************
           *        Program running with 32 parallel MPI-processes    *
           *              working on a common directory               *
           ************************************************************
-------------------------------------------------------------------------------
                                 ORCA SCF
-------------------------------------------------------------------------------

------------
SCF SETTINGS
------------
Hamiltonian:
 Density Functional     Method          .... DFT(GTOs)
 Exchange Functional    Exchange        .... PBE
   PBE kappa parameter   XKappa         ....  0.804000
   PBE mue parameter    XMuePBE         ....  0.219520
 Correlation Functional Correlation     .... PBE
   PBE beta parameter  CBetaPBE         ....  0.066725
 LDA part of GGA corr.  LDAOpt          .... PW91-LDA
 Gradients option       PostSCFGGA      .... off
   Density functional embedding theory  .... OFF
   NL short-range parameter             ....  6.400000

Relativistic Settings:
 Scalar relativistic method             .... ZORA
 Speed of light used       Velit        ....       137.035999
Orbital energies will be scaled


General Settings:
 Integral files         IntName         .... Ag_sapporo-qzp-2012-diffuse_pbe
 Hartree-Fock type      HFTyp           .... UHF
 Total Charge           Charge          ....    0
 Multiplicity           Mult            ....    2
 Number of Electrons    NEL             ....   47
 Basis Dimension        Dim             ....  150
 Nuclear Repulsion      ENuc            ....      0.0000000000 Eh

Convergence Acceleration:
 DIIS                   CNVDIIS         .... on
   Start iteration      DIISMaxIt       ....    12
   Startup error        DIISStart       ....  0.200000
   # of expansion vecs  DIISMaxEq       ....     5
   Bias factor          DIISBfac        ....   1.050
   Max. coefficient     DIISMaxC        ....  10.000
 Trust-Rad. Augm. Hess. CNVTRAH         .... off
 SOSCF                  CNVSOSCF        .... on
   Start iteration      SOSCFMaxIt      ....   150
   Startup grad/error   SOSCFStart      ....  0.003300
 Level Shifting         CNVShift        .... on
   Level shift para.    LevelShift      ....    0.2500
   Turn off err/grad.   ShiftErr        ....    0.0010
 Zerner damping         CNVZerner       .... off
 Static damping         CNVDamp         .... on
   Fraction old density DampFac         ....    0.7000
   Max. Damping (<1)    DampMax         ....    0.9800
   Min. Damping (>=0)   DampMin         ....    0.0000
   Turn off err/grad.   DampErr         ....    0.1000
 Fernandez-Rico         CNVRico         .... off

SCF Procedure:
 Maximum # iterations   MaxIter         ....   125
 SCF integral mode      SCFMode         .... Direct
   Integral package                     .... SHARK and LIBINT hybrid scheme
 Reset frequency        DirectResetFreq ....    20
 Integral Threshold     Thresh          ....  1.000e-12 Eh
 Primitive CutOff       TCut            ....  1.000e-14 Eh

Convergence Tolerance:
 Convergence Check Mode ConvCheckMode   .... Total+1el-Energy
 Convergence forced     ConvForced      .... 0
 Energy Change          TolE            ....  1.000e-09 Eh
 1-El. energy change                    ....  1.000e-06 Eh
 Orbital Gradient       TolG            ....  2.000e-06
 Orbital Rotation angle TolX            ....  2.000e-06
 DIIS Error             TolErr          ....  1.000e-08


Diagonalization of the overlap matrix:
Smallest eigenvalue                        ... 9.431e-05
Time for diagonalization                   ...    0.140 sec
Threshold for overlap eigenvalues          ... 1.000e-08
Number of eigenvalues below threshold      ... 0
Time for construction of square roots      ...    0.542 sec
Total time needed                          ...    0.684 sec

Time for model grid setup =    0.071 sec

------------------------------
INITIAL GUESS: MODEL POTENTIAL
------------------------------
Loading ZORA relativistic densities                ... done
Calculating cut-offs                               ... done
Initializing the effective Hamiltonian             ... done
Setting up the integral package (SHARK)            ... done
Starting the Coulomb interaction                   ... done (   1.3 sec)
Reading the grid                                   ... done
Mapping shells                                     ... done
Starting the XC term evaluation                    ... done (   0.6 sec)
  promolecular density results
     # of electrons  =     47.001485462
     EX              =   -151.959814722
     EC              =     -2.465292440
     EX+EC           =   -154.425107162
Transforming the Hamiltonian                       ... done (   0.1 sec)
Diagonalizing the Hamiltonian                      ... done (   0.1 sec)
Back transforming the eigenvectors                 ... done (   0.1 sec)
Now organizing SCF variables                       ... done
                      ------------------
                      INITIAL GUESS DONE (   3.1 sec)
                      ------------------
-------------------
DFT GRID GENERATION
-------------------

General Integration Accuracy     IntAcc      ... 4.388
Radial Grid Type                 RadialGrid  ... OptM3 with GC (2021)
Angular Grid (max. ang.)         AngularGrid ... 4 (Lebedev-302)
Angular grid pruning method      GridPruning ... 4 (adaptive)
Weight generation scheme         WeightScheme... Becke
Basis function cutoff            BFCut       ... 1.0000e-12
Integration weight cutoff        WCut        ... 1.0000e-14
Angular grids for H and He will be reduced by one unit
Partially contracted basis set               ... off
Rotationally invariant grid construction     ... off

Total number of grid points                  ...    13826
Total number of batches                      ...      217
Average number of points per batch           ...       63
Average number of grid points per atom       ...    13826
Time for grid setup =    0.460 sec

--------------
SCF ITERATIONS
--------------
ITER       Energy         Delta-E        Max-DP      RMS-DP      [F,P]     Damp
               ***  Starting incremental Fock matrix formation  ***
  0  -5378.8584236888   0.000000000000 0.06434947  0.00121773  0.4050821 0.7000
  1  -5378.8818998122  -0.023476123359 0.03866767  0.00070263  0.2697569 0.7000
                               ***Turning on DIIS***
  2  -5378.8931629190  -0.011263106807 0.02357598  0.00041827  0.1812600 0.7000
  3  -5378.9008323976  -0.007669478667 0.01248835  0.00022061  0.1228457 0.7000
  4  -5378.9061191793  -0.005286781685 0.02916720  0.00052054  0.0856716 0.0000
  5  -5378.9182711055  -0.012151926222 0.00239774  0.00003627  0.0034274 0.0000
  6  -5378.9182648430   0.000006262528 0.00084996  0.00001628  0.0041052 0.0000
                      *** Initiating the SOSCF procedure ***
                           *** Shutting down DIIS ***
                      *** Re-Reading the Fockian *** 
                      *** Removing any level shift *** 
ITER      Energy       Delta-E        Grad      Rot      Max-DP    RMS-DP
  7  -5378.91829126  -0.0000264207  0.000100  0.000100  0.000593  0.000006
               *** Restarting incremental Fock matrix formation ***
  8  -5378.91829189  -0.0000006255  0.000095  0.000165  0.000324  0.000004
  9  -5378.91829169   0.0000001990  0.000184  0.000073  0.000126  0.000002
 10  -5378.91829197  -0.0000002842  0.000018  0.000016  0.000037  0.000000
 11  -5378.91829197  -0.0000000006  0.000009  0.000004  0.000010  0.000000
                  ***Gradient check signals convergence***
              ***Rediagonalizing the Fockian in SOSCF/NRSCF***

               *****************************************************
               *                     SUCCESS                       *
               *           SCF CONVERGED AFTER  12 CYCLES          *
               *****************************************************


----------------
TOTAL SCF ENERGY
----------------

Total Energy       :        -5378.91829198 Eh         -146367.80792 eV

Components:
Nuclear Repulsion  :            0.00000000 Eh               0.00000 eV
Electronic Energy  :        -5378.91829198 Eh         -146367.80792 eV
One Electron Energy:        -7388.37893532 Eh         -201048.01191 eV
Two Electron Energy:         2009.46064334 Eh           54680.20399 eV

Virial components:
Potential Energy   :       -10491.59833027 Eh         -285490.90464 eV
Kinetic Energy     :         5112.68003830 Eh          139123.09672 eV
Virial Ratio       :            2.05207411


DFT components:
N(Alpha)           :       23.999999366104 electrons
N(Beta)            :       22.999999366167 electrons
N(Total)           :       46.999998732271 electrons
E(X)               :     -144.936828602287 Eh       
E(C)               :       -2.475880934450 Eh       
E(XC)              :     -147.412709536737 Eh       
DFET-embed. en.    :        0.000000000000 Eh       

---------------
SCF CONVERGENCE
---------------

  Last Energy change         ...   -1.8008e-10  Tolerance :   1.0000e-09
  Last MAX-Density change    ...    2.5313e-07  Tolerance :   1.0000e-08
  Last RMS-Density change    ...    3.6852e-09  Tolerance :   1.0000e-09
  Last Orbital Gradient      ...    1.7059e-07  Tolerance :   2.0000e-06
  Last Orbital Rotation      ...    8.8655e-08  Tolerance :   2.0000e-06

             **** THE GBW FILE WAS UPDATED (Ag_sapporo-qzp-2012-diffuse_pbe.gbw) ****
             **** DENSITY Ag_sapporo-qzp-2012-diffuse_pbe.scfp WAS UPDATED ****
             **** ENERGY FILE WAS UPDATED (Ag_sapporo-qzp-2012-diffuse_pbe.en.tmp) ****
----------------------
UHF SPIN CONTAMINATION
----------------------

Warning: in a DFT calculation there is little theoretical justification to 
         calculate <S**2> as in Hartree-Fock theory. We will do it anyways
         but you should keep in mind that the values have only limited relevance

Expectation value of <S**2>     :     0.751304
Ideal value S*(S+1) for S=0.5   :     0.750000
Deviation                       :     0.001304

             **** THE GBW FILE WAS UPDATED (Ag_sapporo-qzp-2012-diffuse_pbe.gbw) ****
             **** DENSITY Ag_sapporo-qzp-2012-diffuse_pbe.scfp WAS UPDATED ****
----------------
ORBITAL ENERGIES
----------------
                 SPIN UP ORBITALS
  NO   OCC          E(Eh)            E(eV) 
   0   1.0000    -957.628251    -26058.3895 
   1   1.0000    -137.488478     -3741.2517 
   2   1.0000    -124.644210     -3391.7414 
   3   1.0000    -124.644210     -3391.7414 
   4   1.0000    -124.644210     -3391.7414 
   5   1.0000     -25.000751      -680.3050 
   6   1.0000     -20.623372      -561.1905 
   7   1.0000     -20.623372      -561.1905 
   8   1.0000     -20.623372      -561.1905 
   9   1.0000     -13.236942      -360.1955 
  10   1.0000     -13.236942      -360.1955 
  11   1.0000     -13.236942      -360.1955 
  12   1.0000     -13.236942      -360.1955 
  13   1.0000     -13.236942      -360.1955 
  14   1.0000      -3.464620       -94.2771 
  15   1.0000      -2.164953       -58.9114 
  16   1.0000      -2.164953       -58.9114 
  17   1.0000      -2.164953       -58.9114 
  18   1.0000      -0.277318        -7.5462 
  19   1.0000      -0.277318        -7.5462 
  20   1.0000      -0.277318        -7.5462 
  21   1.0000      -0.277318        -7.5462 
  22   1.0000      -0.277318        -7.5462 
  23   1.0000      -0.172182        -4.6853 
  24   0.0000      -0.031833        -0.8662 
  25   0.0000      -0.031833        -0.8662 
  26   0.0000      -0.031833        -0.8662 
  27   0.0000       0.003716         0.1011 
  28   0.0000       0.069941         1.9032 
  29   0.0000       0.069941         1.9032 
  30   0.0000       0.069941         1.9032 
  31   0.0000       0.069941         1.9032 
  32   0.0000       0.069941         1.9032 
  33   0.0000       0.144553         3.9335 
  34   0.0000       0.201523         5.4837 
  35   0.0000       0.201523         5.4837 
  36   0.0000       0.201523         5.4837 
  37   0.0000       0.352790         9.5999 
  38   0.0000       0.352790         9.5999 
  39   0.0000       0.352790         9.5999 
  40   0.0000       0.352790         9.5999 
  41   0.0000       0.352790         9.5999 
  42   0.0000       0.497179        13.5289 
  43   0.0000       0.497179        13.5289 
  44   0.0000       0.497179        13.5289 
  45   0.0000       0.497179        13.5289 
  46   0.0000       0.497179        13.5289 
  47   0.0000       0.497179        13.5289 
  48   0.0000       0.497179        13.5289 
  49   0.0000       0.776047        21.1173 
  50   0.0000       1.081632        29.4327 
  51   0.0000       1.081632        29.4327 
  52   0.0000       1.081632        29.4327 
  53   0.0000       1.081632        29.4327 
  54   0.0000       1.081632        29.4327 
  55   0.0000       1.081632        29.4327 
  56   0.0000       1.081632        29.4327 
  57   0.0000       1.081632        29.4327 
  58   0.0000       1.081632        29.4327 
  59   0.0000       1.142100        31.0781 
  60   0.0000       1.142100        31.0781 
  61   0.0000       1.142100        31.0781 
  62   0.0000       1.363585        37.1050 
  63   0.0000       1.363585        37.1050 
  64   0.0000       1.363585        37.1050 
  65   0.0000       1.363585        37.1050 
  66   0.0000       1.363585        37.1050 
  67   0.0000       1.442479        39.2518 
  68   0.0000       1.442479        39.2518 
  69   0.0000       1.442479        39.2518 
  70   0.0000       1.442479        39.2518 
  71   0.0000       1.442479        39.2518 
  72   0.0000       1.442479        39.2518 
  73   0.0000       1.442479        39.2518 
  74   0.0000       3.028832        82.4187 
  75   0.0000       3.028832        82.4187 
  76   0.0000       3.028832        82.4187 
  77   0.0000       3.028832        82.4187 
  78   0.0000       3.028832        82.4187 
  79   0.0000       3.028832        82.4187 
  80   0.0000       3.028832        82.4187 
  81   0.0000       3.028832        82.4187 
  82   0.0000       3.028832        82.4187 
  83   0.0000       3.028832        82.4187 
  84   0.0000       3.028832        82.4187 
  85   0.0000       3.340090        90.8885 
  86   0.0000       3.340090        90.8885 
  87   0.0000       3.340090        90.8885 
  88   0.0000       3.340090        90.8885 
  89   0.0000       3.340090        90.8885 
  90   0.0000       3.340090        90.8885 
  91   0.0000       3.340090        90.8885 
  92   0.0000       3.340090        90.8885 
  93   0.0000       3.340090        90.8885 
  94   0.0000       3.380161        91.9789 
  95   0.0000       3.380161        91.9789 
  96   0.0000       3.380161        91.9789 
  97   0.0000       3.380161        91.9789 
  98   0.0000       3.380161        91.9789 
  99   0.0000       3.380161        91.9789 
 100   0.0000       3.380161        91.9789 
 101   0.0000       3.436616        93.5151 
 102   0.0000       4.459523       121.3498 
 103   0.0000       4.459523       121.3498 
 104   0.0000       4.459523       121.3498 
 105   0.0000       4.776440       129.9735 
 106   0.0000       4.776440       129.9735 
 107   0.0000       4.776440       129.9735 
 108   0.0000       4.776440       129.9735 
 109   0.0000       4.776440       129.9735 
 110   0.0000       8.427120       229.3136 
 111   0.0000       8.427120       229.3136 
 112   0.0000       8.427120       229.3136 
 113   0.0000       8.427120       229.3136 
 114   0.0000       8.427120       229.3136 
 115   0.0000       8.427120       229.3136 
 116   0.0000       8.427120       229.3136 
 117   0.0000       8.427120       229.3136 
 118   0.0000       8.427120       229.3136 
 119   0.0000       8.921903       242.7773 
 120   0.0000       8.921903       242.7773 
 121   0.0000       8.921903       242.7773 
 122   0.0000       8.921903       242.7773 
 123   0.0000       8.921903       242.7773 
 124   0.0000       8.921903       242.7773 
 125   0.0000       8.921903       242.7773 
 126   0.0000       9.036315       245.8906 
 127   0.0000       9.036315       245.8906 
 128   0.0000       9.036315       245.8906 
 129   0.0000       9.036315       245.8906 
 130   0.0000       9.036315       245.8906 
 131   0.0000       9.036315       245.8906 
 132   0.0000       9.036315       245.8906 
 133   0.0000       9.036315       245.8906 
 134   0.0000       9.036315       245.8906 
 135   0.0000       9.036315       245.8906 
 136   0.0000       9.036315       245.8906 
 137   0.0000      14.155319       385.1858 
 138   0.0000      14.954963       406.9452 
 139   0.0000      14.954963       406.9452 
 140   0.0000      14.954963       406.9452 
 141   0.0000      16.481048       448.4721 
 142   0.0000      16.481048       448.4721 
 143   0.0000      16.481048       448.4721 
 144   0.0000      16.481048       448.4721 
 145   0.0000      16.481048       448.4721 
 146   0.0000      21.249100       578.2174 
 147   0.0000      49.702623      1352.4771 
 148   0.0000      49.702623      1352.4771 
 149   0.0000      49.702623      1352.4771 

                 SPIN DOWN ORBITALS
  NO   OCC          E(Eh)            E(eV) 
   0   1.0000    -957.627766    -26058.3763 
   1   1.0000    -137.488748     -3741.2590 
   2   1.0000    -124.644291     -3391.7436 
   3   1.0000    -124.644291     -3391.7436 
   4   1.0000    -124.644291     -3391.7436 
   5   1.0000     -25.000361      -680.2944 
   6   1.0000     -20.622993      -561.1802 
   7   1.0000     -20.622993      -561.1802 
   8   1.0000     -20.622993      -561.1802 
   9   1.0000     -13.236790      -360.1914 
  10   1.0000     -13.236790      -360.1914 
  11   1.0000     -13.236790      -360.1914 
  12   1.0000     -13.236790      -360.1914 
  13   1.0000     -13.236790      -360.1914 
  14   1.0000      -3.464786       -94.2816 
  15   1.0000      -2.164602       -58.9018 
  16   1.0000      -2.164602       -58.9018 
  17   1.0000      -2.164602       -58.9018 
  18   1.0000      -0.269891        -7.3441 
  19   1.0000      -0.269891        -7.3441 
  20   1.0000      -0.269891        -7.3441 
  21   1.0000      -0.269891        -7.3441 
  22   1.0000      -0.269891        -7.3441 
  23   0.0000      -0.143518        -3.9053 
  24   0.0000      -0.003680        -0.1001 
  25   0.0000      -0.003680        -0.1001 
  26   0.0000      -0.003680        -0.1001 
  27   0.0000       0.021568         0.5869 
  28   0.0000       0.097631         2.6567 
  29   0.0000       0.097631         2.6567 
  30   0.0000       0.097631         2.6567 
  31   0.0000       0.097631         2.6567 
  32   0.0000       0.097631         2.6567 
  33   0.0000       0.166547         4.5320 
  34   0.0000       0.232599         6.3294 
  35   0.0000       0.232599         6.3294 
  36   0.0000       0.232599         6.3294 
  37   0.0000       0.378499        10.2995 
  38   0.0000       0.378499        10.2995 
  39   0.0000       0.378499        10.2995 
  40   0.0000       0.378499        10.2995 
  41   0.0000       0.378499        10.2995 
  42   0.0000       0.525555        14.3011 
  43   0.0000       0.525555        14.3011 
  44   0.0000       0.525555        14.3011 
  45   0.0000       0.525555        14.3011 
  46   0.0000       0.525555        14.3011 
  47   0.0000       0.525555        14.3011 
  48   0.0000       0.525555        14.3011 
  49   0.0000       0.798535        21.7292 
  50   0.0000       1.112832        30.2817 
  51   0.0000       1.112832        30.2817 
  52   0.0000       1.112832        30.2817 
  53   0.0000       1.112832        30.2817 
  54   0.0000       1.112832        30.2817 
  55   0.0000       1.112832        30.2817 
  56   0.0000       1.112832        30.2817 
  57   0.0000       1.112832        30.2817 
  58   0.0000       1.112832        30.2817 
  59   0.0000       1.163920        31.6719 
  60   0.0000       1.163920        31.6719 
  61   0.0000       1.163920        31.6719 
  62   0.0000       1.387090        37.7446 
  63   0.0000       1.387090        37.7446 
  64   0.0000       1.387090        37.7446 
  65   0.0000       1.387090        37.7446 
  66   0.0000       1.387090        37.7446 
  67   0.0000       1.458709        39.6935 
  68   0.0000       1.458709        39.6935 
  69   0.0000       1.458709        39.6935 
  70   0.0000       1.458709        39.6935 
  71   0.0000       1.458709        39.6935 
  72   0.0000       1.458709        39.6935 
  73   0.0000       1.458709        39.6935 
  74   0.0000       3.061448        83.3062 
  75   0.0000       3.061448        83.3062 
  76   0.0000       3.061448        83.3062 
  77   0.0000       3.061448        83.3062 
  78   0.0000       3.061448        83.3062 
  79   0.0000       3.061448        83.3062 
  80   0.0000       3.061448        83.3062 
  81   0.0000       3.061448        83.3062 
  82   0.0000       3.061448        83.3062 
  83   0.0000       3.061448        83.3062 
  84   0.0000       3.061448        83.3062 
  85   0.0000       3.356976        91.3480 
  86   0.0000       3.356976        91.3480 
  87   0.0000       3.356976        91.3480 
  88   0.0000       3.356976        91.3480 
  89   0.0000       3.356976        91.3480 
  90   0.0000       3.356976        91.3480 
  91   0.0000       3.356976        91.3480 
  92   0.0000       3.356976        91.3480 
  93   0.0000       3.356976        91.3480 
  94   0.0000       3.389112        92.2224 
  95   0.0000       3.389112        92.2224 
  96   0.0000       3.389112        92.2224 
  97   0.0000       3.389112        92.2224 
  98   0.0000       3.389112        92.2224 
  99   0.0000       3.389112        92.2224 
 100   0.0000       3.389112        92.2224 
 101   0.0000       3.450110        93.8823 
 102   0.0000       4.469994       121.6347 
 103   0.0000       4.469994       121.6347 
 104   0.0000       4.469994       121.6347 
 105   0.0000       4.785251       130.2133 
 106   0.0000       4.785251       130.2133 
 107   0.0000       4.785251       130.2133 
 108   0.0000       4.785251       130.2133 
 109   0.0000       4.785251       130.2133 
 110   0.0000       8.429401       229.3757 
 111   0.0000       8.429401       229.3757 
 112   0.0000       8.429401       229.3757 
 113   0.0000       8.429401       229.3757 
 114   0.0000       8.429401       229.3757 
 115   0.0000       8.429401       229.3757 
 116   0.0000       8.429401       229.3757 
 117   0.0000       8.429401       229.3757 
 118   0.0000       8.429401       229.3757 
 119   0.0000       8.925474       242.8745 
 120   0.0000       8.925474       242.8745 
 121   0.0000       8.925474       242.8745 
 122   0.0000       8.925474       242.8745 
 123   0.0000       8.925474       242.8745 
 124   0.0000       8.925474       242.8745 
 125   0.0000       8.925474       242.8745 
 126   0.0000       9.039230       245.9699 
 127   0.0000       9.039230       245.9699 
 128   0.0000       9.039230       245.9699 
 129   0.0000       9.039230       245.9699 
 130   0.0000       9.039230       245.9699 
 131   0.0000       9.039230       245.9699 
 132   0.0000       9.039230       245.9699 
 133   0.0000       9.039230       245.9699 
 134   0.0000       9.039230       245.9699 
 135   0.0000       9.039230       245.9699 
 136   0.0000       9.039230       245.9699 
 137   0.0000      14.168229       385.5371 
 138   0.0000      14.957489       407.0140 
 139   0.0000      14.957489       407.0140 
 140   0.0000      14.957489       407.0140 
 141   0.0000      16.482416       448.5093 
 142   0.0000      16.482416       448.5093 
 143   0.0000      16.482416       448.5093 
 144   0.0000      16.482416       448.5093 
 145   0.0000      16.482416       448.5093 
 146   0.0000      21.251883       578.2931 
 147   0.0000      49.703303      1352.4956 
 148   0.0000      49.703303      1352.4956 
 149   0.0000      49.703303      1352.4956 

                    ********************************
                    * MULLIKEN POPULATION ANALYSIS *
                    ********************************

--------------------------------------------
MULLIKEN ATOMIC CHARGES AND SPIN POPULATIONS
--------------------------------------------
   0 Ag:   -0.000000    1.000000
Sum of atomic charges         :   -0.0000000
Sum of atomic spin populations:    1.0000000

-----------------------------------------------------
MULLIKEN REDUCED ORBITAL CHARGES AND SPIN POPULATIONS
-----------------------------------------------------
CHARGE
  0 Ags       :     9.000000  s :     9.000000
      pz      :     6.000000  p :    18.000000
      px      :     6.000000
      py      :     6.000000
      dz2     :     4.000000  d :    20.000000
      dxz     :     4.000000
      dyz     :     4.000000
      dx2y2   :     4.000000
      dxy     :     4.000000
      f0      :     0.000000  f :     0.000000
      f+1     :     0.000000
      f-1     :     0.000000
      f+2     :     0.000000
      f-2     :     0.000000
      f+3     :     0.000000
      f-3     :     0.000000
      g0      :     0.000000  g :     0.000000
      g+1     :     0.000000
      g-1     :     0.000000
      g+2     :     0.000000
      g-2     :     0.000000
      g+3     :     0.000000
      g-3     :     0.000000
      g+4     :     0.000000
      g-4     :     0.000000
      h0      :     0.000000  h :     0.000000
      h+1     :     0.000000
      h-1     :     0.000000
      h+2     :     0.000000
      h-2     :     0.000000
      h+3     :     0.000000
      h-3     :     0.000000
      h+4     :     0.000000
      h-4     :     0.000000
      h+5     :     0.000000
      h-5     :     0.000000

SPIN
  0 Ags       :     1.000000  s :     1.000000
      pz      :     0.000000  p :     0.000000
      px      :     0.000000
      py      :    -0.000000
      dz2     :    -0.000000  d :    -0.000000
      dxz     :     0.000000
      dyz     :    -0.000000
      dx2y2   :    -0.000000
      dxy     :    -0.000000
      f0      :     0.000000  f :     0.000000
      f+1     :     0.000000
      f-1     :     0.000000
      f+2     :     0.000000
      f-2     :    -0.000000
      f+3     :    -0.000000
      f-3     :    -0.000000
      g0      :     0.000000  g :     0.000000
      g+1     :     0.000000
      g-1     :     0.000000
      g+2     :     0.000000
      g-2     :     0.000000
      g+3     :     0.000000
      g-3     :     0.000000
      g+4     :     0.000000
      g-4     :     0.000000
      h0      :     0.000000  h :     0.000000
      h+1     :     0.000000
      h-1     :     0.000000
      h+2     :     0.000000
      h-2     :     0.000000
      h+3     :     0.000000
      h-3     :     0.000000
      h+4     :     0.000000
      h-4     :     0.000000
      h+5     :     0.000000
      h-5     :     0.000000


                     *******************************
                     * LOEWDIN POPULATION ANALYSIS *
                     *******************************

-------------------------------------------
LOEWDIN ATOMIC CHARGES AND SPIN POPULATIONS
-------------------------------------------
   0 Ag:   -0.000000    1.000000

----------------------------------------------------
LOEWDIN REDUCED ORBITAL CHARGES AND SPIN POPULATIONS
----------------------------------------------------
CHARGE
  0 Ags       :     9.000000  s :     9.000000
      pz      :     6.000000  p :    18.000000
      px      :     6.000000
      py      :     6.000000
      dz2     :     4.000000  d :    20.000000
      dxz     :     4.000000
      dyz     :     4.000000
      dx2y2   :     4.000000
      dxy     :     4.000000
      f0      :     0.000000  f :     0.000000
      f+1     :     0.000000
      f-1     :     0.000000
      f+2     :     0.000000
      f-2     :     0.000000
      f+3     :     0.000000
      f-3     :     0.000000
      g0      :     0.000000  g :     0.000000
      g+1     :     0.000000
      g-1     :     0.000000
      g+2     :     0.000000
      g-2     :     0.000000
      g+3     :     0.000000
      g-3     :     0.000000
      g+4     :     0.000000
      g-4     :     0.000000
      h0      :     0.000000  h :     0.000000
      h+1     :     0.000000
      h-1     :     0.000000
      h+2     :     0.000000
      h-2     :     0.000000
      h+3     :     0.000000
      h-3     :     0.000000
      h+4     :     0.000000
      h-4     :     0.000000
      h+5     :     0.000000
      h-5     :     0.000000

SPIN
  0 Ags       :     1.000000  s :     1.000000
      pz      :     0.000000  p :     0.000000
      px      :     0.000000
      py      :    -0.000000
      dz2     :    -0.000000  d :    -0.000000
      dxz     :     0.000000
      dyz     :    -0.000000
      dx2y2   :    -0.000000
      dxy     :    -0.000000
      f0      :     0.000000  f :     0.000000
      f+1     :     0.000000
      f-1     :     0.000000
      f+2     :     0.000000
      f-2     :    -0.000000
      f+3     :    -0.000000
      f-3     :    -0.000000
      g0      :     0.000000  g :     0.000000
      g+1     :     0.000000
      g-1     :     0.000000
      g+2     :     0.000000
      g-2     :     0.000000
      g+3     :     0.000000
      g-3     :     0.000000
      g+4     :     0.000000
      g-4     :     0.000000
      h0      :     0.000000  h :     0.000000
      h+1     :     0.000000
      h-1     :     0.000000
      h+2     :     0.000000
      h-2     :     0.000000
      h+3     :     0.000000
      h-3     :     0.000000
      h+4     :     0.000000
      h-4     :     0.000000
      h+5     :     0.000000
      h-5     :     0.000000


                      *****************************
                      * MAYER POPULATION ANALYSIS *
                      *****************************

  NA   - Mulliken gross atomic population
  ZA   - Total nuclear charge
  QA   - Mulliken gross atomic charge
  VA   - Mayer's total valence
  BVA  - Mayer's bonded valence
  FA   - Mayer's free valence

  ATOM       NA         ZA         QA         VA         BVA        FA
  0 Ag    47.0000    47.0000    -0.0000     1.0026     0.0000     1.0026

  Mayer bond orders larger than 0.100000


-------
TIMINGS
-------

Total SCF time: 0 days 0 hours 2 min 16 sec 

Total time                  ....     136.534 sec
Sum of individual times     ....      62.325 sec  ( 45.6%)

Fock matrix formation       ....      56.033 sec  ( 41.0%)
  XC integration            ....      21.162 sec  ( 37.8% of F)
    Basis function eval.    ....       0.022 sec  (  0.1% of XC)
    Density eval.           ....       0.267 sec  (  1.3% of XC)
    XC-Functional eval.     ....       0.053 sec  (  0.3% of XC)
    XC-Potential eval.      ....       0.053 sec  (  0.3% of XC)
Diagonalization             ....       1.484 sec  (  1.1%)
Density matrix formation    ....       0.011 sec  (  0.0%)
Population analysis         ....       0.308 sec  (  0.2%)
Initial guess               ....       3.014 sec  (  2.2%)
Orbital Transformation      ....       0.000 sec  (  0.0%)
Orbital Orthonormalization  ....       0.000 sec  (  0.0%)
DIIS solution               ....       0.571 sec  (  0.4%)
SOSCF solution              ....       0.373 sec  (  0.3%)
Grid generation             ....       0.531 sec  (  0.4%)

Maximum memory used throughout the entire SCF-calculation: 232.7 MB

-------------------------   --------------------
FINAL SINGLE POINT ENERGY     -5378.918291975102
-------------------------   --------------------


                            ***************************************
                            *     ORCA property calculations      *
                            ***************************************

                                    ---------------------
                                    Active property flags
                                    ---------------------
   (+) Dipole Moment


------------------------------------------------------------------------------
                       ORCA ELECTRIC PROPERTIES CALCULATION
------------------------------------------------------------------------------

Dipole Moment Calculation                       ... on
Quadrupole Moment Calculation                   ... off
Polarizability Calculation                      ... off
GBWName                                         ... Ag_sapporo-qzp-2012-diffuse_pbe.gbw
Electron density                                ... Ag_sapporo-qzp-2012-diffuse_pbe.scfp
The origin for moment calculation is the CENTER OF MASS  = ( 0.000000,  0.000000  0.000000)

-------------
DIPOLE MOMENT
-------------
                                X             Y             Z
Electronic contribution:     -0.00000      -0.00000       0.00000
Nuclear contribution   :      0.00000       0.00000       0.00000
                        -----------------------------------------
Total Dipole Moment    :     -0.00000      -0.00000       0.00000
                        -----------------------------------------
Magnitude (a.u.)       :      0.00000
Magnitude (Debye)      :      0.00000



--------------------
Rotational spectrum 
--------------------
 
Rotational constants in cm-1:     0.000000     0.000000     0.000000 
Rotational constants in MHz :     0.000000     0.000000     0.000000 

 Dipole components along the rotational axes: 
x,y,z [a.u.] :    -0.000000    -0.000000     0.000000 
x,y,z [Debye]:    -0.000000    -0.000000     0.000000 

 

Timings for individual modules:

Sum of individual times         ...      271.994 sec (=   4.533 min)
GTO integral calculation        ...      109.669 sec (=   1.828 min)  40.3 %
Relativistic integrals          ...       22.416 sec (=   0.374 min)   8.2 %
SCF iterations                  ...      139.909 sec (=   2.332 min)  51.4 %
                             ****ORCA TERMINATED NORMALLY****
TOTAL RUN TIME: 0 days 0 hours 4 minutes 39 seconds 295 msec
