
                                 *****************
                                 * O   R   C   A *
                                 *****************

                                            #,                                       
                                            ###                                      
                                            ####                                     
                                            #####                                    
                                            ######                                   
                                           ########,                                 
                                     ,,################,,,,,                         
                               ,,#################################,,                 
                          ,,##########################################,,             
                       ,#########################################, ''#####,          
                    ,#############################################,,   '####,        
                  ,##################################################,,,,####,       
                ,###########''''           ''''###############################       
              ,#####''   ,,,,##########,,,,          '''####'''          '####       
            ,##' ,,,,###########################,,,                        '##       
           ' ,,###''''                  '''############,,,                           
         ,,##''                                '''############,,,,        ,,,,,,###''
      ,#''                                            '''#######################'''  
     '                                                          ''''####''''         
             ,#######,   #######,   ,#######,      ##                                
            ,#'     '#,  ##    ##  ,#'     '#,    #''#        ######   ,####,        
            ##       ##  ##   ,#'  ##            #'  '#       #        #'  '#        
            ##       ##  #######   ##           ,######,      #####,   #    #        
            '#,     ,#'  ##    ##  '#,     ,#' ,#      #,         ##   #,  ,#        
             '#######'   ##     ##  '#######'  #'      '#     #####' # '####'        



                  #######################################################
                  #                        -***-                        #
                  #          Department of theory and spectroscopy      #
                  #    Directorship and core code : Frank Neese         #
                  #        Max Planck Institute fuer Kohlenforschung    #
                  #                Kaiser Wilhelm Platz 1               #
                  #                 D-45470 Muelheim/Ruhr               #
                  #                      Germany                        #
                  #                                                     #
                  #                  All rights reserved                #
                  #                        -***-                        #
                  #######################################################


                         Program Version 5.0.1 -  RELEASE  -


 With contributions from (in alphabetic order):
   Daniel Aravena         : Magnetic Suceptibility
   Michael Atanasov       : Ab Initio Ligand Field Theory (pilot matlab implementation)
   Alexander A. Auer      : GIAO ZORA, VPT2 properties, NMR spectrum
   Ute Becker             : Parallelization
   Giovanni Bistoni       : ED, misc. LED, open-shell LED, HFLD
   Martin Brehm           : Molecular dynamics
   Dmytro Bykov           : SCF Hessian
   Vijay G. Chilkuri      : MRCI spin determinant printing, contributions to CSF-ICE
   Dipayan Datta          : RHF DLPNO-CCSD density
   Achintya Kumar Dutta   : EOM-CC, STEOM-CC
   Dmitry Ganyushin       : Spin-Orbit,Spin-Spin,Magnetic field MRCI
   Miquel Garcia          : C-PCM and meta-GGA Hessian, CC/C-PCM, Gaussian charge scheme
   Yang Guo               : DLPNO-NEVPT2, F12-NEVPT2, CIM, IAO-localization
   Andreas Hansen         : Spin unrestricted coupled pair/coupled cluster methods
   Benjamin Helmich-Paris : MC-RPA, TRAH-SCF, COSX integrals
   Lee Huntington         : MR-EOM, pCC
   Robert Izsak           : Overlap fitted RIJCOSX, COSX-SCS-MP3, EOM
   Marcus Kettner         : VPT2
   Christian Kollmar      : KDIIS, OOCD, Brueckner-CCSD(T), CCSD density, CASPT2, CASPT2-K
   Simone Kossmann        : Meta GGA functionals, TD-DFT gradient, OOMP2, MP2 Hessian
   Martin Krupicka        : Initial AUTO-CI
   Lucas Lang             : DCDCAS
   Marvin Lechner         : AUTO-CI (C++ implementation), FIC-MRCC
   Dagmar Lenk            : GEPOL surface, SMD
   Dimitrios Liakos       : Extrapolation schemes; Compound Job, initial MDCI parallelization
   Dimitrios Manganas     : Further ROCIS development; embedding schemes
   Dimitrios Pantazis     : SARC Basis sets
   Anastasios Papadopoulos: AUTO-CI, single reference methods and gradients
   Taras Petrenko         : DFT Hessian,TD-DFT gradient, ASA, ECA, R-Raman, ABS, FL, XAS/XES, NRVS
   Peter Pinski           : DLPNO-MP2, DLPNO-MP2 Gradient
   Christoph Reimann      : Effective Core Potentials
   Marius Retegan         : Local ZFS, SOC
   Christoph Riplinger    : Optimizer, TS searches, QM/MM, DLPNO-CCSD(T), (RO)-DLPNO pert. Triples
   Tobias Risthaus        : Range-separated hybrids, TD-DFT gradient, RPA, STAB
   Michael Roemelt        : Original ROCIS implementation
   Masaaki Saitow         : Open-shell DLPNO-CCSD energy and density
   Barbara Sandhoefer     : DKH picture change effects
   Avijit Sen             : IP-ROCIS
   Kantharuban Sivalingam : CASSCF convergence, NEVPT2, FIC-MRCI
   Bernardo de Souza      : ESD, SOC TD-DFT
   Georgi Stoychev        : AutoAux, RI-MP2 NMR, DLPNO-MP2 response
   Willem Van den Heuvel  : Paramagnetic NMR
   Boris Wezisla          : Elementary symmetry handling
   Frank Wennmohs         : Technical directorship


 We gratefully acknowledge several colleagues who have allowed us to
 interface, adapt or use parts of their codes:
   Stefan Grimme, W. Hujo, H. Kruse, P. Pracht,  : VdW corrections, initial TS optimization,
                  C. Bannwarth, S. Ehlert          DFT functionals, gCP, sTDA/sTD-DF
   Ed Valeev, F. Pavosevic, A. Kumar             : LibInt (2-el integral package), F12 methods
   Garnet Chan, S. Sharma, J. Yang, R. Olivares  : DMRG
   Ulf Ekstrom                                   : XCFun DFT Library
   Mihaly Kallay                                 : mrcc  (arbitrary order and MRCC methods)
   Jiri Pittner, Ondrej Demel                    : Mk-CCSD
   Frank Weinhold                                : gennbo (NPA and NBO analysis)
   Christopher J. Cramer and Donald G. Truhlar   : smd solvation model
   Lars Goerigk                                  : TD-DFT with DH, B97 family of functionals
   V. Asgeirsson, H. Jonsson                     : NEB implementation
   FAccTs GmbH                                   : IRC, NEB, NEB-TS, DLPNO-Multilevel, CI-OPT
                                                   MM, QMMM, 2- and 3-layer-ONIOM, Crystal-QMMM,
                                                   LR-CPCM, SF, NACMEs, symmetry and pop. for TD-DFT,
                                                   nearIR, NL-DFT gradient (VV10), updates on ESD,
                                                   ML-optimized integration grids
   S Lehtola, MJT Oliveira, MAL Marques          : LibXC Library
   Liviu Ungur et al                             : ANISO software


 Your calculation uses the libint2 library for the computation of 2-el integrals
 For citations please refer to: http://libint.valeyev.net

 Your ORCA version has been built with support for libXC version: 5.1.0
 For citations please refer to: https://tddft.org/programs/libxc/

 This ORCA versions uses:
   CBLAS   interface :  Fast vector & matrix operations
   LAPACKE interface :  Fast linear algebra routines
   SCALAPACK package :  Parallel linear algebra routines
   Shared memory     :  Shared parallel matrices
   BLAS/LAPACK       :  OpenBLAS 0.3.15  USE64BITINT DYNAMIC_ARCH NO_AFFINITY Haswell SINGLE_THREADED
        Core in use  :  Haswell
   Copyright (c) 2011-2014, The OpenBLAS Project


SCAN-COORDS

Reading of a custom basis requested
Basis file         : Ag_ugbs.basis
READING GTO-BASIS: SILVER
Basis successfully read

================================================================================

----- Orbital basis set information -----
================================================================================
                                        WARNINGS
                       Please study these warnings very carefully!
================================================================================


INFO   : the flag for use of the SHARK integral package has been found!

================================================================================
                                       INPUT FILE
================================================================================
NAME = Ag_ugbs_pbe.inp
|  1> !uks pbe nori verytightscf soscf notrah
|  2> 
|  3> %pal
|  4>   nprocs 32
|  5> end
|  6> %coords
|  7>   charge 0
|  8>   mult 2
|  9>   units bohrs
| 10>   coords
| 11>     Ag 0.0 0.0 0.0
| 12>   end
| 13> end
| 14> %basis
| 15>   gtoname "Ag_ugbs.basis"
| 16>   delECP Ag
| 17> end
| 18> %rel
| 19>   method zora
| 20>   modelpot 1, 0, 0, 0
| 21>   c 137.035999084
| 22> endd                         ****END OF INPUT****
================================================================================

                       ****************************
                       * Single Point Calculation *
                       ****************************

---------------------------------
CARTESIAN COORDINATES (ANGSTROEM)
---------------------------------
  Ag     0.000000    0.000000    0.000000

----------------------------
CARTESIAN COORDINATES (A.U.)
----------------------------
  NO LB      ZA    FRAG     MASS         X           Y           Z
   0 Ag   47.0000    0   107.870    0.000000    0.000000    0.000000

--------------------------------
INTERNAL COORDINATES (ANGSTROEM)
--------------------------------
 Ag     0   0   0     0.000000000000     0.00000000     0.00000000

---------------------------
INTERNAL COORDINATES (A.U.)
---------------------------
 Ag     0   0   0     0.000000000000     0.00000000     0.00000000

---------------------
BASIS SET INFORMATION
---------------------
There are 1 groups of distinct atoms

 Group   1 Type Ag  : 31s21p17d contracted to 31s21p17d pattern {1111111111111111111111111111111/111111111111111111111/11111111111111111}

Atom   0Ag   basis set group =>   1


           ************************************************************
           *        Program running with 32 parallel MPI-processes    *
           *              working on a common directory               *
           ************************************************************
------------------------------------------------------------------------------
                           ORCA GTO INTEGRAL CALCULATION
------------------------------------------------------------------------------
------------------------------------------------------------------------------
                   ___                                                        
                  /   \      - P O W E R E D   B Y -                         
                 /     \                                                     
                 |  |  |   _    _      __       _____    __    __             
                 |  |  |  | |  | |    /  \     |  _  \  |  |  /  |          
                  \  \/   | |  | |   /    \    | | | |  |  | /  /          
                 / \  \   | |__| |  /  /\  \   | |_| |  |  |/  /          
                |  |  |   |  __  | /  /__\  \  |    /   |      \           
                |  |  |   | |  | | |   __   |  |    \   |  |\   \          
                \     /   | |  | | |  |  |  |  | |\  \  |  | \   \       
                 \___/    |_|  |_| |__|  |__|  |_| \__\ |__|  \__/        
                                                                              
                      - O R C A' S   B I G   F R I E N D -                    
                                      &                                       
                       - I N T E G R A L  F E E D E R -                       
                                                                              
 v1 FN, 2020, v2 2021                                                         
------------------------------------------------------------------------------


Reading SHARK input file Ag_ugbs_pbe.SHARKINP.tmp ... ok
----------------------
SHARK INTEGRAL PACKAGE
----------------------

Number of atoms                             ...      1
Number of basis functions                   ...    179
Number of shells                            ...     69
Maximum angular momentum                    ...      2
Integral batch strategy                     ... SHARK/LIBINT Hybrid
RI-J (if used) integral strategy            ... SPLIT-RIJ (Revised 2003 algorithm where possible)
Printlevel                                  ...      1
Contraction scheme used                     ... SEGMENTED contraction
Coulomb Range Separation                    ... NOT USED
Exchange Range Separation                   ... NOT USED
Finite Nucleus Model                        ... NOT USED
Auxiliary Coulomb fitting basis             ... NOT available
Auxiliary J/K fitting basis                 ... NOT available
Auxiliary Correlation fitting basis         ... NOT available
Auxiliary 'external' fitting basis          ... NOT available
Integral threshold                          ...     1.000000e-12
Primitive cut-off                           ...     1.000000e-14
Primitive pair pre-selection threshold      ...     1.000000e-14

Calculating pre-screening integrals         ... done (  0.1 sec) Dimension = 69
Organizing shell pair data                  ... done (  0.1 sec)
Shell pair information
Total number of shell pairs                 ...      2415
Shell pairs after pre-screening             ...      2415
Total number of primitive shell pairs       ...      2415
Primitive shell pairs kept                  ...      2415
          la=0 lb=0:    496 shell pairs
          la=1 lb=0:    651 shell pairs
          la=1 lb=1:    231 shell pairs
          la=2 lb=0:    527 shell pairs
          la=2 lb=1:    357 shell pairs
          la=2 lb=2:    153 shell pairs

Calculating one electron integrals          ... done (  0.0 sec)
Calculating Nuclear repulsion               ... done (  0.0 sec) ENN=      0.000000000000 Eh

SHARK setup successfully completed in  19.2 seconds

Maximum memory used throughout the entire GTOINT-calculation: 6.0 MB


           ************************************************************
           *        Program running with 32 parallel MPI-processes    *
           *              working on a common directory               *
           ************************************************************
------------------------------------------------------------------------------
                          ORCA RELATIVISTIC HAMILTONIAN
------------------------------------------------------------------------------

Relativistic Method            ... ZORA(MP)
Treatment of potential         ... Van Wuellen
Nucleus model                  ... Point Nucleus
Speed of light used            ... 137.03599908400000


            *************************************************
            *         ZERO ORDER REGULAR APPROXIMATION      *
            *                     ZORA(MP)                  *
            *            Programmed by FN according to      *
            *                   C. van Wuellen              *
            *       J. Chem. Phys. (1998) vol 109, 392-399  *
            *************************************************

Terms included in model potential: +V(e,N)
Basis function cutoff value   ... 1.000000e-12
Loading the fitted atomic densities  (DKH4)  ... done
Calculating the cutoffs                      ... done
Number of fit functions                      ... 29
Setting up the integration grid ... done

Maximum memory used throughout the entire REL-calculation: 10.5 MB


           ************************************************************
           *        Program running with 32 parallel MPI-processes    *
           *              working on a common directory               *
           ************************************************************
-------------------------------------------------------------------------------
                                 ORCA SCF
-------------------------------------------------------------------------------

------------
SCF SETTINGS
------------
Hamiltonian:
 Density Functional     Method          .... DFT(GTOs)
 Exchange Functional    Exchange        .... PBE
   PBE kappa parameter   XKappa         ....  0.804000
   PBE mue parameter    XMuePBE         ....  0.219520
 Correlation Functional Correlation     .... PBE
   PBE beta parameter  CBetaPBE         ....  0.066725
 LDA part of GGA corr.  LDAOpt          .... PW91-LDA
 Gradients option       PostSCFGGA      .... off
   Density functional embedding theory  .... OFF
   NL short-range parameter             ....  6.400000

Relativistic Settings:
 Scalar relativistic method             .... ZORA
 Speed of light used       Velit        ....       137.035999
Orbital energies will be scaled


General Settings:
 Integral files         IntName         .... Ag_ugbs_pbe
 Hartree-Fock type      HFTyp           .... UHF
 Total Charge           Charge          ....    0
 Multiplicity           Mult            ....    2
 Number of Electrons    NEL             ....   47
 Basis Dimension        Dim             ....  179
 Nuclear Repulsion      ENuc            ....      0.0000000000 Eh

Convergence Acceleration:
 DIIS                   CNVDIIS         .... on
   Start iteration      DIISMaxIt       ....    12
   Startup error        DIISStart       ....  0.200000
   # of expansion vecs  DIISMaxEq       ....     5
   Bias factor          DIISBfac        ....   1.050
   Max. coefficient     DIISMaxC        ....  10.000
 Trust-Rad. Augm. Hess. CNVTRAH         .... off
 SOSCF                  CNVSOSCF        .... on
   Start iteration      SOSCFMaxIt      ....   150
   Startup grad/error   SOSCFStart      ....  0.003300
 Level Shifting         CNVShift        .... on
   Level shift para.    LevelShift      ....    0.2500
   Turn off err/grad.   ShiftErr        ....    0.0010
 Zerner damping         CNVZerner       .... off
 Static damping         CNVDamp         .... on
   Fraction old density DampFac         ....    0.7000
   Max. Damping (<1)    DampMax         ....    0.9800
   Min. Damping (>=0)   DampMin         ....    0.0000
   Turn off err/grad.   DampErr         ....    0.1000
 Fernandez-Rico         CNVRico         .... off

SCF Procedure:
 Maximum # iterations   MaxIter         ....   125
 SCF integral mode      SCFMode         .... Direct
   Integral package                     .... SHARK and LIBINT hybrid scheme
 Reset frequency        DirectResetFreq ....    20
 Integral Threshold     Thresh          ....  1.000e-12 Eh
 Primitive CutOff       TCut            ....  1.000e-14 Eh

Convergence Tolerance:
 Convergence Check Mode ConvCheckMode   .... Total+1el-Energy
 Convergence forced     ConvForced      .... 0
 Energy Change          TolE            ....  1.000e-09 Eh
 1-El. energy change                    ....  1.000e-06 Eh
 Orbital Gradient       TolG            ....  2.000e-06
 Orbital Rotation angle TolX            ....  2.000e-06
 DIIS Error             TolErr          ....  1.000e-08


Diagonalization of the overlap matrix:
Smallest eigenvalue                        ... 6.074e-05
Time for diagonalization                   ...    1.843 sec
Threshold for overlap eigenvalues          ... 1.000e-08
Number of eigenvalues below threshold      ... 0
Time for construction of square roots      ...    3.579 sec
Total time needed                          ...    5.423 sec

Time for model grid setup =    0.398 sec

------------------------------
INITIAL GUESS: MODEL POTENTIAL
------------------------------
Loading ZORA relativistic densities                ... done
Calculating cut-offs                               ... done
Initializing the effective Hamiltonian             ... done
Setting up the integral package (SHARK)            ... done
Starting the Coulomb interaction                   ... done (   2.0 sec)
Reading the grid                                   ... done
Mapping shells                                     ... done
Starting the XC term evaluation                    ... done (   0.9 sec)
  promolecular density results
     # of electrons  =     47.001474205
     EX              =   -151.960917757
     EC              =     -2.465372120
     EX+EC           =   -154.426289876
Transforming the Hamiltonian                       ... done (   0.1 sec)
Diagonalizing the Hamiltonian                      ... done (   0.0 sec)
Back transforming the eigenvectors                 ... done (   0.0 sec)
Now organizing SCF variables                       ... done
                      ------------------
                      INITIAL GUESS DONE (  17.1 sec)
                      ------------------
-------------------
DFT GRID GENERATION
-------------------

General Integration Accuracy     IntAcc      ... 4.388
Radial Grid Type                 RadialGrid  ... OptM3 with GC (2021)
Angular Grid (max. ang.)         AngularGrid ... 4 (Lebedev-302)
Angular grid pruning method      GridPruning ... 4 (adaptive)
Weight generation scheme         WeightScheme... Becke
Basis function cutoff            BFCut       ... 1.0000e-12
Integration weight cutoff        WCut        ... 1.0000e-14
Angular grids for H and He will be reduced by one unit
Partially contracted basis set               ... off
Rotationally invariant grid construction     ... off

Total number of grid points                  ...    27544
Total number of batches                      ...      431
Average number of points per batch           ...       63
Average number of grid points per atom       ...    27544
Time for grid setup =    1.693 sec

--------------
SCF ITERATIONS
--------------
ITER       Energy         Delta-E        Max-DP      RMS-DP      [F,P]     Damp
               ***  Starting incremental Fock matrix formation  ***
  0  -5405.3259742242   0.000000000000 0.01399494  0.00015332  3.0547025 0.7000
  1  -5405.3397932723  -0.013819048075 0.01239645  0.00008928  2.1132506 0.7000
  2  -5405.3465037078  -0.006710435504 0.00743075  0.00005355  1.4630781 0.7000
  3  -5405.3510849910  -0.004581283145 0.00425669  0.00003449  1.0135731 0.7000
                      *** Initiating the SOSCF procedure ***
                      *** Re-Reading the Fockian *** 
                      *** Removing any level shift *** 
ITER      Energy       Delta-E        Grad      Rot      Max-DP    RMS-DP
  4  -5405.35426525  -0.0031802558  0.002778  0.002778  0.009464  0.000075
               *** Restarting incremental Fock matrix formation ***
  5  -5405.36149286  -0.0072276166  0.006087  0.002071  0.003147  0.000033
  6  -5405.36147185   0.0000210123  0.002099  0.001121  0.001161  0.000018
  7  -5405.36153140  -0.0000595495  0.001459  0.000064  0.000461  0.000005
  8  -5405.36153384  -0.0000024400  0.000817  0.000136  0.000223  0.000002
  9  -5405.36153501  -0.0000011673  0.000013  0.000017  0.000022  0.000000
 10  -5405.36153501  -0.0000000009  0.000004  0.000004  0.000005  0.000000
                  ***Gradient check signals convergence***
              ***Rediagonalizing the Fockian in SOSCF/NRSCF***

               *****************************************************
               *                     SUCCESS                       *
               *           SCF CONVERGED AFTER  11 CYCLES          *
               *****************************************************


----------------
TOTAL SCF ENERGY
----------------

Total Energy       :        -5405.36153501 Eh         -147087.36514 eV

Components:
Nuclear Repulsion  :            0.00000000 Eh               0.00000 eV
Electronic Energy  :        -5405.36153501 Eh         -147087.36514 eV
One Electron Energy:        -7426.89676351 Eh         -202096.13530 eV
Two Electron Energy:         2021.53522850 Eh           55008.77016 eV

Virial components:
Potential Energy   :       -11027.87077705 Eh         -300083.61980 eV
Kinetic Energy     :         5622.50924204 Eh          152996.25466 eV
Virial Ratio       :            1.96137886


DFT components:
N(Alpha)           :       23.999999999929 electrons
N(Beta)            :       22.999999999967 electrons
N(Total)           :       46.999999999896 electrons
E(X)               :     -148.120757316867 Eh       
E(C)               :       -2.465466322697 Eh       
E(XC)              :     -150.586223639564 Eh       
DFET-embed. en.    :        0.000000000000 Eh       

---------------
SCF CONVERGENCE
---------------

  Last Energy change         ...    9.0949e-13  Tolerance :   1.0000e-09
  Last MAX-Density change    ...    1.6879e-07  Tolerance :   1.0000e-08
  Last RMS-Density change    ...    2.4551e-09  Tolerance :   1.0000e-09
  Last Orbital Gradient      ...    1.6866e-07  Tolerance :   2.0000e-06
  Last Orbital Rotation      ...    9.6538e-08  Tolerance :   2.0000e-06

             **** THE GBW FILE WAS UPDATED (Ag_ugbs_pbe.gbw) ****
             **** DENSITY Ag_ugbs_pbe.scfp WAS UPDATED ****
             **** ENERGY FILE WAS UPDATED (Ag_ugbs_pbe.en.tmp) ****
----------------------
UHF SPIN CONTAMINATION
----------------------

Warning: in a DFT calculation there is little theoretical justification to 
         calculate <S**2> as in Hartree-Fock theory. We will do it anyways
         but you should keep in mind that the values have only limited relevance

Expectation value of <S**2>     :     0.751323
Ideal value S*(S+1) for S=0.5   :     0.750000
Deviation                       :     0.001323

             **** THE GBW FILE WAS UPDATED (Ag_ugbs_pbe.gbw) ****
             **** DENSITY Ag_ugbs_pbe.scfp WAS UPDATED ****
----------------
ORBITAL ENERGIES
----------------
                 SPIN UP ORBITALS
  NO   OCC          E(Eh)            E(eV) 
   0   1.0000    -963.933558    -26229.9656 
   1   1.0000    -138.580043     -3770.9547 
   2   1.0000    -124.143577     -3378.1185 
   3   1.0000    -124.143577     -3378.1185 
   4   1.0000    -124.143577     -3378.1185 
   5   1.0000     -25.297827      -688.3889 
   6   1.0000     -20.598672      -560.5184 
   7   1.0000     -20.598672      -560.5184 
   8   1.0000     -20.598672      -560.5184 
   9   1.0000     -13.208468      -359.4207 
  10   1.0000     -13.208468      -359.4207 
  11   1.0000     -13.208468      -359.4207 
  12   1.0000     -13.208468      -359.4207 
  13   1.0000     -13.208468      -359.4207 
  14   1.0000      -3.515403       -95.6590 
  15   1.0000      -2.162088       -58.8334 
  16   1.0000      -2.162088       -58.8334 
  17   1.0000      -2.162088       -58.8334 
  18   1.0000      -0.274405        -7.4669 
  19   1.0000      -0.274405        -7.4669 
  20   1.0000      -0.274405        -7.4669 
  21   1.0000      -0.274405        -7.4669 
  22   1.0000      -0.274405        -7.4669 
  23   1.0000      -0.175211        -4.7677 
  24   0.0000       0.007772         0.2115 
  25   0.0000       0.028889         0.7861 
  26   0.0000       0.028889         0.7861 
  27   0.0000       0.028889         0.7861 
  28   0.0000       0.123357         3.3567 
  29   0.0000       0.123357         3.3567 
  30   0.0000       0.123357         3.3567 
  31   0.0000       0.123357         3.3567 
  32   0.0000       0.123357         3.3567 
  33   0.0000       0.126378         3.4389 
  34   0.0000       0.432931        11.7807 
  35   0.0000       0.483995        13.1702 
  36   0.0000       0.483995        13.1702 
  37   0.0000       0.483995        13.1702 
  38   0.0000       0.483995        13.1702 
  39   0.0000       0.483995        13.1702 
  40   0.0000       0.713628        19.4188 
  41   0.0000       0.713628        19.4188 
  42   0.0000       0.713628        19.4188 
  43   0.0000       1.195667        32.5357 
  44   0.0000       1.299065        35.3494 
  45   0.0000       1.299065        35.3494 
  46   0.0000       1.299065        35.3494 
  47   0.0000       1.299065        35.3494 
  48   0.0000       1.299065        35.3494 
  49   0.0000       2.490650        67.7740 
  50   0.0000       2.490650        67.7740 
  51   0.0000       2.490650        67.7740 
  52   0.0000       3.097247        84.2804 
  53   0.0000       3.097247        84.2804 
  54   0.0000       3.097247        84.2804 
  55   0.0000       3.097247        84.2804 
  56   0.0000       3.097247        84.2804 
  57   0.0000       3.143253        85.5323 
  58   0.0000       6.913288       188.1201 
  59   0.0000       6.913288       188.1201 
  60   0.0000       6.913288       188.1201 
  61   0.0000       7.132790       194.0931 
  62   0.0000       7.132790       194.0931 
  63   0.0000       7.132790       194.0931 
  64   0.0000       7.132790       194.0931 
  65   0.0000       7.132790       194.0931 
  66   0.0000       8.230751       223.9701 
  67   0.0000      16.401354       446.3035 
  68   0.0000      16.401354       446.3035 
  69   0.0000      16.401354       446.3035 
  70   0.0000      16.401354       446.3035 
  71   0.0000      16.401354       446.3035 
  72   0.0000      18.215828       495.6779 
  73   0.0000      18.215828       495.6779 
  74   0.0000      18.215828       495.6779 
  75   0.0000      22.090688       601.1182 
  76   0.0000      37.951138      1032.7030 
  77   0.0000      37.951138      1032.7030 
  78   0.0000      37.951138      1032.7030 
  79   0.0000      37.951138      1032.7030 
  80   0.0000      37.951138      1032.7030 
  81   0.0000      47.584703      1294.8456 
  82   0.0000      47.584703      1294.8456 
  83   0.0000      47.584703      1294.8456 
  84   0.0000      60.483398      1645.8369 
  85   0.0000      87.414477      2378.6688 
  86   0.0000      87.414477      2378.6688 
  87   0.0000      87.414477      2378.6688 
  88   0.0000      87.414477      2378.6688 
  89   0.0000      87.414477      2378.6688 
  90   0.0000     121.575532      3308.2384 
  91   0.0000     121.575532      3308.2384 
  92   0.0000     121.575532      3308.2384 
  93   0.0000     162.962849      4434.4446 
  94   0.0000     197.678226      5379.0980 
  95   0.0000     197.678226      5379.0980 
  96   0.0000     197.678226      5379.0980 
  97   0.0000     197.678226      5379.0980 
  98   0.0000     197.678226      5379.0980 
  99   0.0000     297.134886      8085.4513 
 100   0.0000     297.134886      8085.4513 
 101   0.0000     297.134886      8085.4513 
 102   0.0000     419.778885     11422.7642 
 103   0.0000     437.110525     11894.3821 
 104   0.0000     437.110525     11894.3821 
 105   0.0000     437.110525     11894.3821 
 106   0.0000     437.110525     11894.3821 
 107   0.0000     437.110525     11894.3821 
 108   0.0000     690.301681     18784.0637 
 109   0.0000     690.301681     18784.0637 
 110   0.0000     690.301681     18784.0637 
 111   0.0000     944.274331     25695.0109 
 112   0.0000     944.274331     25695.0109 
 113   0.0000     944.274331     25695.0109 
 114   0.0000     944.274331     25695.0109 
 115   0.0000     944.274331     25695.0109 
 116   0.0000    1022.368557     27820.0628 
 117   0.0000    1531.788966     41682.0968 
 118   0.0000    1531.788966     41682.0968 
 119   0.0000    1531.788966     41682.0968 
 120   0.0000    1999.784354     54416.8988 
 121   0.0000    1999.784354     54416.8988 
 122   0.0000    1999.784354     54416.8988 
 123   0.0000    1999.784354     54416.8988 
 124   0.0000    1999.784354     54416.8988 
 125   0.0000    2353.978119     64055.0011 
 126   0.0000    3275.997908     89144.4351 
 127   0.0000    3275.997908     89144.4351 
 128   0.0000    3275.997908     89144.4351 
 129   0.0000    4168.136096    113420.7494 
 130   0.0000    4168.136096    113420.7494 
 131   0.0000    4168.136096    113420.7494 
 132   0.0000    4168.136096    113420.7494 
 133   0.0000    4168.136096    113420.7494 
 134   0.0000    5158.381121    140366.6864 
 135   0.0000    6803.464301    185131.6755 
 136   0.0000    6803.464301    185131.6755 
 137   0.0000    6803.464301    185131.6755 
 138   0.0000    8692.399306    236532.2102 
 139   0.0000    8692.399306    236532.2102 
 140   0.0000    8692.399306    236532.2102 
 141   0.0000    8692.399306    236532.2102 
 142   0.0000    8692.399306    236532.2102 
 143   0.0000   10859.295959    295496.4658 
 144   0.0000   13809.246492    375768.7008 
 145   0.0000   13809.246492    375768.7008 
 146   0.0000   13809.246492    375768.7008 
 147   0.0000   18261.956172    496933.0910 
 148   0.0000   18261.956172    496933.0910 
 149   0.0000   18261.956172    496933.0910 
 150   0.0000   18261.956172    496933.0910 
 151   0.0000   18261.956172    496933.0910 
 152   0.0000   22144.508070    602582.6993 
 153   0.0000   27479.826143    747764.0849 
 154   0.0000   27479.826143    747764.0849 
 155   0.0000   27479.826143    747764.0849 
 156   0.0000   43985.713833   1196912.1232 
 157   0.0000   53935.162848   1467650.3950 
 158   0.0000   53935.162848   1467650.3950 
 159   0.0000   53935.162848   1467650.3950 
 160   0.0000   85359.994482   2322763.5369 
 161   0.0000   104018.254178   2830480.5950 
 162   0.0000   104018.254178   2830480.5950 
 163   0.0000   104018.254178   2830480.5950 
 164   0.0000   161966.549592   4407333.8789 
 165   0.0000   202359.777998   5506489.5038 
 166   0.0000   202359.777998   5506489.5038 
 167   0.0000   202359.777998   5506489.5038 
 168   0.0000   300401.294402   8174334.7958 
 169   0.0000   379672.944825   10331426.0683 
 170   0.0000   379672.944825   10331426.0683 
 171   0.0000   379672.944825   10331426.0683 
 172   0.0000   543635.005020   14793060.5513 
 173   0.0000   959775.105627   26116808.3770 
 174   0.0000   1648064.682414   44846119.9412 
 175   0.0000   2776271.912394   75546199.4308 
 176   0.0000   4549977.093300   123811171.1470 
 177   0.0000   7637620.139695   207830209.8848 
 178   0.0000   12190599.897508   331723087.6871 

                 SPIN DOWN ORBITALS
  NO   OCC          E(Eh)            E(eV) 
   0   1.0000    -963.932889    -26229.9474 
   1   1.0000    -138.580228     -3770.9597 
   2   1.0000    -124.143604     -3378.1192 
   3   1.0000    -124.143604     -3378.1192 
   4   1.0000    -124.143604     -3378.1192 
   5   1.0000     -25.297430      -688.3781 
   6   1.0000     -20.598294      -560.5081 
   7   1.0000     -20.598294      -560.5081 
   8   1.0000     -20.598294      -560.5081 
   9   1.0000     -13.208313      -359.4165 
  10   1.0000     -13.208313      -359.4165 
  11   1.0000     -13.208313      -359.4165 
  12   1.0000     -13.208313      -359.4165 
  13   1.0000     -13.208313      -359.4165 
  14   1.0000      -3.515656       -95.6659 
  15   1.0000      -2.161693       -58.8227 
  16   1.0000      -2.161693       -58.8227 
  17   1.0000      -2.161693       -58.8227 
  18   1.0000      -0.266767        -7.2591 
  19   1.0000      -0.266767        -7.2591 
  20   1.0000      -0.266767        -7.2591 
  21   1.0000      -0.266767        -7.2591 
  22   1.0000      -0.266767        -7.2591 
  23   0.0000      -0.146649        -3.9905 
  24   0.0000       0.028395         0.7727 
  25   0.0000       0.057740         1.5712 
  26   0.0000       0.057740         1.5712 
  27   0.0000       0.057740         1.5712 
  28   0.0000       0.148264         4.0345 
  29   0.0000       0.150683         4.1003 
  30   0.0000       0.150683         4.1003 
  31   0.0000       0.150683         4.1003 
  32   0.0000       0.150683         4.1003 
  33   0.0000       0.150683         4.1003 
  34   0.0000       0.455409        12.3923 
  35   0.0000       0.511730        13.9249 
  36   0.0000       0.511730        13.9249 
  37   0.0000       0.511730        13.9249 
  38   0.0000       0.511730        13.9249 
  39   0.0000       0.511730        13.9249 
  40   0.0000       0.738254        20.0889 
  41   0.0000       0.738254        20.0889 
  42   0.0000       0.738254        20.0889 
  43   0.0000       1.219732        33.1906 
  44   0.0000       1.325439        36.0670 
  45   0.0000       1.325439        36.0670 
  46   0.0000       1.325439        36.0670 
  47   0.0000       1.325439        36.0670 
  48   0.0000       1.325439        36.0670 
  49   0.0000       2.510695        68.3195 
  50   0.0000       2.510695        68.3195 
  51   0.0000       2.510695        68.3195 
  52   0.0000       3.117211        84.8236 
  53   0.0000       3.117211        84.8236 
  54   0.0000       3.117211        84.8236 
  55   0.0000       3.117211        84.8236 
  56   0.0000       3.117211        84.8236 
  57   0.0000       3.162823        86.0648 
  58   0.0000       6.922937       188.3827 
  59   0.0000       6.922937       188.3827 
  60   0.0000       6.922937       188.3827 
  61   0.0000       7.142889       194.3679 
  62   0.0000       7.142889       194.3679 
  63   0.0000       7.142889       194.3679 
  64   0.0000       7.142889       194.3679 
  65   0.0000       7.142889       194.3679 
  66   0.0000       8.239430       224.2063 
  67   0.0000      16.404357       446.3852 
  68   0.0000      16.404357       446.3852 
  69   0.0000      16.404357       446.3852 
  70   0.0000      16.404357       446.3852 
  71   0.0000      16.404357       446.3852 
  72   0.0000      18.218474       495.7499 
  73   0.0000      18.218474       495.7499 
  74   0.0000      18.218474       495.7499 
  75   0.0000      22.092940       601.1795 
  76   0.0000      37.952104      1032.7293 
  77   0.0000      37.952104      1032.7293 
  78   0.0000      37.952104      1032.7293 
  79   0.0000      37.952104      1032.7293 
  80   0.0000      37.952104      1032.7293 
  81   0.0000      47.585753      1294.8742 
  82   0.0000      47.585753      1294.8742 
  83   0.0000      47.585753      1294.8742 
  84   0.0000      60.484490      1645.8666 
  85   0.0000      87.414875      2378.6797 
  86   0.0000      87.414875      2378.6797 
  87   0.0000      87.414875      2378.6797 
  88   0.0000      87.414875      2378.6797 
  89   0.0000      87.414875      2378.6797 
  90   0.0000     121.575737      3308.2440 
  91   0.0000     121.575737      3308.2440 
  92   0.0000     121.575737      3308.2440 
  93   0.0000     162.963083      4434.4509 
  94   0.0000     197.678561      5379.1071 
  95   0.0000     197.678561      5379.1071 
  96   0.0000     197.678561      5379.1071 
  97   0.0000     197.678561      5379.1071 
  98   0.0000     197.678561      5379.1071 
  99   0.0000     297.134808      8085.4492 
 100   0.0000     297.134808      8085.4492 
 101   0.0000     297.134808      8085.4492 
 102   0.0000     419.778878     11422.7640 
 103   0.0000     437.110443     11894.3799 
 104   0.0000     437.110443     11894.3799 
 105   0.0000     437.110443     11894.3799 
 106   0.0000     437.110443     11894.3799 
 107   0.0000     437.110443     11894.3799 
 108   0.0000     690.301492     18784.0586 
 109   0.0000     690.301492     18784.0586 
 110   0.0000     690.301492     18784.0586 
 111   0.0000     944.274322     25695.0106 
 112   0.0000     944.274322     25695.0106 
 113   0.0000     944.274322     25695.0106 
 114   0.0000     944.274322     25695.0106 
 115   0.0000     944.274322     25695.0106 
 116   0.0000    1022.368683     27820.0662 
 117   0.0000    1531.789206     41682.1034 
 118   0.0000    1531.789206     41682.1034 
 119   0.0000    1531.789206     41682.1034 
 120   0.0000    1999.784457     54416.9016 
 121   0.0000    1999.784457     54416.9016 
 122   0.0000    1999.784457     54416.9016 
 123   0.0000    1999.784457     54416.9016 
 124   0.0000    1999.784457     54416.9016 
 125   0.0000    2353.978549     64055.0128 
 126   0.0000    3275.998386     89144.4481 
 127   0.0000    3275.998386     89144.4481 
 128   0.0000    3275.998386     89144.4481 
 129   0.0000    4168.136346    113420.7562 
 130   0.0000    4168.136346    113420.7562 
 131   0.0000    4168.136346    113420.7562 
 132   0.0000    4168.136346    113420.7562 
 133   0.0000    4168.136346    113420.7562 
 134   0.0000    5158.381701    140366.7022 
 135   0.0000    6803.464791    185131.6889 
 136   0.0000    6803.464791    185131.6889 
 137   0.0000    6803.464791    185131.6889 
 138   0.0000    8692.399646    236532.2194 
 139   0.0000    8692.399646    236532.2194 
 140   0.0000    8692.399646    236532.2194 
 141   0.0000    8692.399646    236532.2194 
 142   0.0000    8692.399646    236532.2194 
 143   0.0000   10859.296641    295496.4844 
 144   0.0000   13809.247216    375768.7205 
 145   0.0000   13809.247216    375768.7205 
 146   0.0000   13809.247216    375768.7205 
 147   0.0000   18261.957087    496933.1159 
 148   0.0000   18261.957087    496933.1159 
 149   0.0000   18261.957087    496933.1159 
 150   0.0000   18261.957087    496933.1159 
 151   0.0000   18261.957087    496933.1159 
 152   0.0000   22144.509092    602582.7271 
 153   0.0000   27479.827260    747764.1153 
 154   0.0000   27479.827260    747764.1153 
 155   0.0000   27479.827260    747764.1153 
 156   0.0000   43985.715241   1196912.1615 
 157   0.0000   53935.164388   1467650.4369 
 158   0.0000   53935.164388   1467650.4369 
 159   0.0000   53935.164388   1467650.4369 
 160   0.0000   85359.996195   2322763.5835 
 161   0.0000   104018.256058   2830480.6462 
 162   0.0000   104018.256058   2830480.6462 
 163   0.0000   104018.256058   2830480.6462 
 164   0.0000   161966.551477   4407333.9302 
 165   0.0000   202359.780116   5506489.5615 
 166   0.0000   202359.780116   5506489.5615 
 167   0.0000   202359.780116   5506489.5615 
 168   0.0000   300401.296325   8174334.8482 
 169   0.0000   379672.946949   10331426.1260 
 170   0.0000   379672.946949   10331426.1260 
 171   0.0000   379672.946949   10331426.1260 
 172   0.0000   543635.006926   14793060.6031 
 173   0.0000   959775.107682   26116808.4329 
 174   0.0000   1648064.685330   44846120.0205 
 175   0.0000   2776271.917116   75546199.5593 
 176   0.0000   4549977.100565   123811171.3447 
 177   0.0000   7637620.145449   207830210.0414 
 178   0.0000   12190599.903489   331723087.8498 

                    ********************************
                    * MULLIKEN POPULATION ANALYSIS *
                    ********************************

--------------------------------------------
MULLIKEN ATOMIC CHARGES AND SPIN POPULATIONS
--------------------------------------------
   0 Ag:    0.000000    1.000000
Sum of atomic charges         :    0.0000000
Sum of atomic spin populations:    1.0000000

-----------------------------------------------------
MULLIKEN REDUCED ORBITAL CHARGES AND SPIN POPULATIONS
-----------------------------------------------------
CHARGE
  0 Ags       :     9.000000  s :     9.000000
      pz      :     6.000000  p :    18.000000
      px      :     6.000000
      py      :     6.000000
      dz2     :     4.000000  d :    20.000000
      dxz     :     4.000000
      dyz     :     4.000000
      dx2y2   :     4.000000
      dxy     :     4.000000

SPIN
  0 Ags       :     1.000000  s :     1.000000
      pz      :    -0.000000  p :    -0.000000
      px      :     0.000000
      py      :    -0.000000
      dz2     :    -0.000000  d :     0.000000
      dxz     :    -0.000000
      dyz     :     0.000000
      dx2y2   :     0.000000
      dxy     :     0.000000


                     *******************************
                     * LOEWDIN POPULATION ANALYSIS *
                     *******************************

-------------------------------------------
LOEWDIN ATOMIC CHARGES AND SPIN POPULATIONS
-------------------------------------------
   0 Ag:    0.000000    1.000000

----------------------------------------------------
LOEWDIN REDUCED ORBITAL CHARGES AND SPIN POPULATIONS
----------------------------------------------------
CHARGE
  0 Ags       :     9.000000  s :     9.000000
      pz      :     6.000000  p :    18.000000
      px      :     6.000000
      py      :     6.000000
      dz2     :     4.000000  d :    20.000000
      dxz     :     4.000000
      dyz     :     4.000000
      dx2y2   :     4.000000
      dxy     :     4.000000

SPIN
  0 Ags       :     1.000000  s :     1.000000
      pz      :    -0.000000  p :    -0.000000
      px      :     0.000000
      py      :    -0.000000
      dz2     :    -0.000000  d :     0.000000
      dxz     :    -0.000000
      dyz     :     0.000000
      dx2y2   :     0.000000
      dxy     :     0.000000


                      *****************************
                      * MAYER POPULATION ANALYSIS *
                      *****************************

  NA   - Mulliken gross atomic population
  ZA   - Total nuclear charge
  QA   - Mulliken gross atomic charge
  VA   - Mayer's total valence
  BVA  - Mayer's bonded valence
  FA   - Mayer's free valence

  ATOM       NA         ZA         QA         VA         BVA        FA
  0 Ag    47.0000    47.0000     0.0000     1.0026     0.0000     1.0026

  Mayer bond orders larger than 0.100000


-------
TIMINGS
-------

Total SCF time: 0 days 0 hours 2 min 50 sec 

Total time                  ....     170.769 sec
Sum of individual times     ....     129.190 sec  ( 75.7%)

Fock matrix formation       ....     104.086 sec  ( 61.0%)
  XC integration            ....      13.392 sec  ( 12.9% of F)
    Basis function eval.    ....       0.027 sec  (  0.2% of XC)
    Density eval.           ....       1.624 sec  ( 12.1% of XC)
    XC-Functional eval.     ....       0.054 sec  (  0.4% of XC)
    XC-Potential eval.      ....       0.063 sec  (  0.5% of XC)
Diagonalization             ....       0.632 sec  (  0.4%)
Density matrix formation    ....       0.013 sec  (  0.0%)
Population analysis         ....       0.148 sec  (  0.1%)
Initial guess               ....      16.653 sec  (  9.8%)
Orbital Transformation      ....       0.000 sec  (  0.0%)
Orbital Orthonormalization  ....       0.000 sec  (  0.0%)
DIIS solution               ....       0.038 sec  (  0.0%)
SOSCF solution              ....       5.528 sec  (  3.2%)
Grid generation             ....       2.091 sec  (  1.2%)

Maximum memory used throughout the entire SCF-calculation: 229.4 MB

-------------------------   --------------------
FINAL SINGLE POINT ENERGY     -5405.361535008768
-------------------------   --------------------


                            ***************************************
                            *     ORCA property calculations      *
                            ***************************************

                                    ---------------------
                                    Active property flags
                                    ---------------------
   (+) Dipole Moment


------------------------------------------------------------------------------
                       ORCA ELECTRIC PROPERTIES CALCULATION
------------------------------------------------------------------------------

Dipole Moment Calculation                       ... on
Quadrupole Moment Calculation                   ... off
Polarizability Calculation                      ... off
GBWName                                         ... Ag_ugbs_pbe.gbw
Electron density                                ... Ag_ugbs_pbe.scfp
The origin for moment calculation is the CENTER OF MASS  = ( 0.000000,  0.000000  0.000000)

-------------
DIPOLE MOMENT
-------------
                                X             Y             Z
Electronic contribution:      0.00000      -0.00000      -0.00000
Nuclear contribution   :      0.00000       0.00000       0.00000
                        -----------------------------------------
Total Dipole Moment    :      0.00000      -0.00000      -0.00000
                        -----------------------------------------
Magnitude (a.u.)       :      0.00000
Magnitude (Debye)      :      0.00000



--------------------
Rotational spectrum 
--------------------
 
Rotational constants in cm-1:     0.000000     0.000000     0.000000 
Rotational constants in MHz :     0.000000     0.000000     0.000000 

 Dipole components along the rotational axes: 
x,y,z [a.u.] :     0.000000    -0.000000    -0.000000 
x,y,z [Debye]:     0.000000    -0.000000    -0.000000 

 

Timings for individual modules:

Sum of individual times         ...      315.449 sec (=   5.257 min)
GTO integral calculation        ...      117.528 sec (=   1.959 min)  37.3 %
Relativistic integrals          ...       23.288 sec (=   0.388 min)   7.4 %
SCF iterations                  ...      174.633 sec (=   2.911 min)  55.4 %
                             ****ORCA TERMINATED NORMALLY****
TOTAL RUN TIME: 0 days 0 hours 5 minutes 31 seconds 355 msec
