
                                 *****************
                                 * O   R   C   A *
                                 *****************

                                            #,                                       
                                            ###                                      
                                            ####                                     
                                            #####                                    
                                            ######                                   
                                           ########,                                 
                                     ,,################,,,,,                         
                               ,,#################################,,                 
                          ,,##########################################,,             
                       ,#########################################, ''#####,          
                    ,#############################################,,   '####,        
                  ,##################################################,,,,####,       
                ,###########''''           ''''###############################       
              ,#####''   ,,,,##########,,,,          '''####'''          '####       
            ,##' ,,,,###########################,,,                        '##       
           ' ,,###''''                  '''############,,,                           
         ,,##''                                '''############,,,,        ,,,,,,###''
      ,#''                                            '''#######################'''  
     '                                                          ''''####''''         
             ,#######,   #######,   ,#######,      ##                                
            ,#'     '#,  ##    ##  ,#'     '#,    #''#        ######   ,####,        
            ##       ##  ##   ,#'  ##            #'  '#       #        #'  '#        
            ##       ##  #######   ##           ,######,      #####,   #    #        
            '#,     ,#'  ##    ##  '#,     ,#' ,#      #,         ##   #,  ,#        
             '#######'   ##     ##  '#######'  #'      '#     #####' # '####'        



                  #######################################################
                  #                        -***-                        #
                  #          Department of theory and spectroscopy      #
                  #    Directorship and core code : Frank Neese         #
                  #        Max Planck Institute fuer Kohlenforschung    #
                  #                Kaiser Wilhelm Platz 1               #
                  #                 D-45470 Muelheim/Ruhr               #
                  #                      Germany                        #
                  #                                                     #
                  #                  All rights reserved                #
                  #                        -***-                        #
                  #######################################################


                         Program Version 5.0.1 -  RELEASE  -


 With contributions from (in alphabetic order):
   Daniel Aravena         : Magnetic Suceptibility
   Michael Atanasov       : Ab Initio Ligand Field Theory (pilot matlab implementation)
   Alexander A. Auer      : GIAO ZORA, VPT2 properties, NMR spectrum
   Ute Becker             : Parallelization
   Giovanni Bistoni       : ED, misc. LED, open-shell LED, HFLD
   Martin Brehm           : Molecular dynamics
   Dmytro Bykov           : SCF Hessian
   Vijay G. Chilkuri      : MRCI spin determinant printing, contributions to CSF-ICE
   Dipayan Datta          : RHF DLPNO-CCSD density
   Achintya Kumar Dutta   : EOM-CC, STEOM-CC
   Dmitry Ganyushin       : Spin-Orbit,Spin-Spin,Magnetic field MRCI
   Miquel Garcia          : C-PCM and meta-GGA Hessian, CC/C-PCM, Gaussian charge scheme
   Yang Guo               : DLPNO-NEVPT2, F12-NEVPT2, CIM, IAO-localization
   Andreas Hansen         : Spin unrestricted coupled pair/coupled cluster methods
   Benjamin Helmich-Paris : MC-RPA, TRAH-SCF, COSX integrals
   Lee Huntington         : MR-EOM, pCC
   Robert Izsak           : Overlap fitted RIJCOSX, COSX-SCS-MP3, EOM
   Marcus Kettner         : VPT2
   Christian Kollmar      : KDIIS, OOCD, Brueckner-CCSD(T), CCSD density, CASPT2, CASPT2-K
   Simone Kossmann        : Meta GGA functionals, TD-DFT gradient, OOMP2, MP2 Hessian
   Martin Krupicka        : Initial AUTO-CI
   Lucas Lang             : DCDCAS
   Marvin Lechner         : AUTO-CI (C++ implementation), FIC-MRCC
   Dagmar Lenk            : GEPOL surface, SMD
   Dimitrios Liakos       : Extrapolation schemes; Compound Job, initial MDCI parallelization
   Dimitrios Manganas     : Further ROCIS development; embedding schemes
   Dimitrios Pantazis     : SARC Basis sets
   Anastasios Papadopoulos: AUTO-CI, single reference methods and gradients
   Taras Petrenko         : DFT Hessian,TD-DFT gradient, ASA, ECA, R-Raman, ABS, FL, XAS/XES, NRVS
   Peter Pinski           : DLPNO-MP2, DLPNO-MP2 Gradient
   Christoph Reimann      : Effective Core Potentials
   Marius Retegan         : Local ZFS, SOC
   Christoph Riplinger    : Optimizer, TS searches, QM/MM, DLPNO-CCSD(T), (RO)-DLPNO pert. Triples
   Tobias Risthaus        : Range-separated hybrids, TD-DFT gradient, RPA, STAB
   Michael Roemelt        : Original ROCIS implementation
   Masaaki Saitow         : Open-shell DLPNO-CCSD energy and density
   Barbara Sandhoefer     : DKH picture change effects
   Avijit Sen             : IP-ROCIS
   Kantharuban Sivalingam : CASSCF convergence, NEVPT2, FIC-MRCI
   Bernardo de Souza      : ESD, SOC TD-DFT
   Georgi Stoychev        : AutoAux, RI-MP2 NMR, DLPNO-MP2 response
   Willem Van den Heuvel  : Paramagnetic NMR
   Boris Wezisla          : Elementary symmetry handling
   Frank Wennmohs         : Technical directorship


 We gratefully acknowledge several colleagues who have allowed us to
 interface, adapt or use parts of their codes:
   Stefan Grimme, W. Hujo, H. Kruse, P. Pracht,  : VdW corrections, initial TS optimization,
                  C. Bannwarth, S. Ehlert          DFT functionals, gCP, sTDA/sTD-DF
   Ed Valeev, F. Pavosevic, A. Kumar             : LibInt (2-el integral package), F12 methods
   Garnet Chan, S. Sharma, J. Yang, R. Olivares  : DMRG
   Ulf Ekstrom                                   : XCFun DFT Library
   Mihaly Kallay                                 : mrcc  (arbitrary order and MRCC methods)
   Jiri Pittner, Ondrej Demel                    : Mk-CCSD
   Frank Weinhold                                : gennbo (NPA and NBO analysis)
   Christopher J. Cramer and Donald G. Truhlar   : smd solvation model
   Lars Goerigk                                  : TD-DFT with DH, B97 family of functionals
   V. Asgeirsson, H. Jonsson                     : NEB implementation
   FAccTs GmbH                                   : IRC, NEB, NEB-TS, DLPNO-Multilevel, CI-OPT
                                                   MM, QMMM, 2- and 3-layer-ONIOM, Crystal-QMMM,
                                                   LR-CPCM, SF, NACMEs, symmetry and pop. for TD-DFT,
                                                   nearIR, NL-DFT gradient (VV10), updates on ESD,
                                                   ML-optimized integration grids
   S Lehtola, MJT Oliveira, MAL Marques          : LibXC Library
   Liviu Ungur et al                             : ANISO software


 Your calculation uses the libint2 library for the computation of 2-el integrals
 For citations please refer to: http://libint.valeyev.net

 Your ORCA version has been built with support for libXC version: 5.1.0
 For citations please refer to: https://tddft.org/programs/libxc/

 This ORCA versions uses:
   CBLAS   interface :  Fast vector & matrix operations
   LAPACKE interface :  Fast linear algebra routines
   SCALAPACK package :  Parallel linear algebra routines
   Shared memory     :  Shared parallel matrices
   BLAS/LAPACK       :  OpenBLAS 0.3.15  USE64BITINT DYNAMIC_ARCH NO_AFFINITY Haswell SINGLE_THREADED
        Core in use  :  Haswell
   Copyright (c) 2011-2014, The OpenBLAS Project


SCAN-COORDS

Reading of a custom basis requested
Basis file         : Cd_ano-r3.basis
READING GTO-BASIS: CADMIUM
Basis successfully read

================================================================================

----- Orbital basis set information -----
================================================================================
                                        WARNINGS
                       Please study these warnings very carefully!
================================================================================


INFO   : the flag for use of the SHARK integral package has been found!

================================================================================
                                       INPUT FILE
================================================================================
NAME = Cd_ano-r3_pbe.inp
|  1> !uks pbe nori verytightscf soscf notrah
|  2> 
|  3> %pal
|  4>   nprocs 32
|  5> end
|  6> %coords
|  7>   charge 0
|  8>   mult 1
|  9>   units bohrs
| 10>   coords
| 11>     Cd 0.0 0.0 0.0
| 12>   end
| 13> end
| 14> %basis
| 15>   gtoname "Cd_ano-r3.basis"
| 16>   delECP Cd
| 17> end
| 18> %rel
| 19>   method zora
| 20>   modelpot 1, 0, 0, 0
| 21>   c 137.035999084
| 22> endd                         ****END OF INPUT****
================================================================================

                       ****************************
                       * Single Point Calculation *
                       ****************************

---------------------------------
CARTESIAN COORDINATES (ANGSTROEM)
---------------------------------
  Cd     0.000000    0.000000    0.000000

----------------------------
CARTESIAN COORDINATES (A.U.)
----------------------------
  NO LB      ZA    FRAG     MASS         X           Y           Z
   0 Cd   48.0000    0   112.410    0.000000    0.000000    0.000000

--------------------------------
INTERNAL COORDINATES (ANGSTROEM)
--------------------------------
 Cd     0   0   0     0.000000000000     0.00000000     0.00000000

---------------------------
INTERNAL COORDINATES (A.U.)
---------------------------
 Cd     0   0   0     0.000000000000     0.00000000     0.00000000

---------------------
BASIS SET INFORMATION
---------------------
There are 1 groups of distinct atoms

 Group   1 Type Cd  : 184s96p60d18f10g3h contracted to 8s6p5d3f2g1h pattern {2323232323232323/161616161616/1212121212/666/55/3}

Atom   0Cd   basis set group =>   1


           ************************************************************
           *        Program running with 32 parallel MPI-processes    *
           *              working on a common directory               *
           ************************************************************
------------------------------------------------------------------------------
                           ORCA GTO INTEGRAL CALCULATION
------------------------------------------------------------------------------
------------------------------------------------------------------------------
                   ___                                                        
                  /   \      - P O W E R E D   B Y -                         
                 /     \                                                     
                 |  |  |   _    _      __       _____    __    __             
                 |  |  |  | |  | |    /  \     |  _  \  |  |  /  |          
                  \  \/   | |  | |   /    \    | | | |  |  | /  /          
                 / \  \   | |__| |  /  /\  \   | |_| |  |  |/  /          
                |  |  |   |  __  | /  /__\  \  |    /   |      \           
                |  |  |   | |  | | |   __   |  |    \   |  |\   \          
                \     /   | |  | | |  |  |  |  | |\  \  |  | \   \       
                 \___/    |_|  |_| |__|  |__|  |_| \__\ |__|  \__/        
                                                                              
                      - O R C A' S   B I G   F R I E N D -                    
                                      &                                       
                       - I N T E G R A L  F E E D E R -                       
                                                                              
 v1 FN, 2020, v2 2021                                                         
------------------------------------------------------------------------------


Reading SHARK input file Cd_ano-r3_pbe.SHARKINP.tmp ... ok
----------------------
SHARK INTEGRAL PACKAGE
----------------------

Number of atoms                             ...      1
Number of basis functions                   ...    101
Number of shells                            ...     25
Maximum angular momentum                    ...      5
Integral batch strategy                     ... SHARK/LIBINT Hybrid
RI-J (if used) integral strategy            ... SPLIT-RIJ (Revised 2003 algorithm where possible)
Printlevel                                  ...      1
Contraction scheme used                     ... SEGMENTED contraction
Coulomb Range Separation                    ... NOT USED
Exchange Range Separation                   ... NOT USED
Finite Nucleus Model                        ... NOT USED
Auxiliary Coulomb fitting basis             ... NOT available
Auxiliary J/K fitting basis                 ... NOT available
Auxiliary Correlation fitting basis         ... NOT available
Auxiliary 'external' fitting basis          ... NOT available
Integral threshold                          ...     1.000000e-12
Primitive cut-off                           ...     1.000000e-14
Primitive pair pre-selection threshold      ...     1.000000e-14

Calculating pre-screening integrals         ... done ( 36.1 sec) Dimension = 25
Organizing shell pair data                  ... done (  1.2 sec)
Shell pair information
Total number of shell pairs                 ...       325
Shell pairs after pre-screening             ...       325
Total number of primitive shell pairs       ...     72148
Primitive shell pairs kept                  ...     72148
          la=0 lb=0:     36 shell pairs
          la=1 lb=0:     48 shell pairs
          la=1 lb=1:     21 shell pairs
          la=2 lb=0:     40 shell pairs
          la=2 lb=1:     30 shell pairs
          la=2 lb=2:     15 shell pairs
          la=3 lb=0:     24 shell pairs
          la=3 lb=1:     18 shell pairs
          la=3 lb=2:     15 shell pairs
          la=3 lb=3:      6 shell pairs
          la=4 lb=0:     16 shell pairs
          la=4 lb=1:     12 shell pairs
          la=4 lb=2:     10 shell pairs
          la=4 lb=3:      6 shell pairs
          la=4 lb=4:      3 shell pairs
          la=5 lb=0:      8 shell pairs
          la=5 lb=1:      6 shell pairs
          la=5 lb=2:      5 shell pairs
          la=5 lb=3:      3 shell pairs
          la=5 lb=4:      2 shell pairs
          la=5 lb=5:      1 shell pairs

Calculating one electron integrals          ... done (  0.8 sec)
Calculating Nuclear repulsion               ... done (  0.0 sec) ENN=      0.000000000000 Eh

SHARK setup successfully completed in  40.6 seconds

Maximum memory used throughout the entire GTOINT-calculation: 386.5 MB


           ************************************************************
           *        Program running with 32 parallel MPI-processes    *
           *              working on a common directory               *
           ************************************************************
------------------------------------------------------------------------------
                          ORCA RELATIVISTIC HAMILTONIAN
------------------------------------------------------------------------------

Relativistic Method            ... ZORA(MP)
Treatment of potential         ... Van Wuellen
Nucleus model                  ... Point Nucleus
Speed of light used            ... 137.03599908400000


            *************************************************
            *         ZERO ORDER REGULAR APPROXIMATION      *
            *                     ZORA(MP)                  *
            *            Programmed by FN according to      *
            *                   C. van Wuellen              *
            *       J. Chem. Phys. (1998) vol 109, 392-399  *
            *************************************************

Terms included in model potential: +V(e,N)
Basis function cutoff value   ... 1.000000e-12
Loading the fitted atomic densities  (DKH4)  ... done
Calculating the cutoffs                      ... done
Number of fit functions                      ... 29
Setting up the integration grid ... done

Maximum memory used throughout the entire REL-calculation: 5.5 MB


           ************************************************************
           *        Program running with 32 parallel MPI-processes    *
           *              working on a common directory               *
           ************************************************************
-------------------------------------------------------------------------------
                                 ORCA SCF
-------------------------------------------------------------------------------

------------
SCF SETTINGS
------------
Hamiltonian:
 Density Functional     Method          .... DFT(GTOs)
 Exchange Functional    Exchange        .... PBE
   PBE kappa parameter   XKappa         ....  0.804000
   PBE mue parameter    XMuePBE         ....  0.219520
 Correlation Functional Correlation     .... PBE
   PBE beta parameter  CBetaPBE         ....  0.066725
 LDA part of GGA corr.  LDAOpt          .... PW91-LDA
 Gradients option       PostSCFGGA      .... off
   Density functional embedding theory  .... OFF
   NL short-range parameter             ....  6.400000

Relativistic Settings:
 Scalar relativistic method             .... ZORA
 Speed of light used       Velit        ....       137.035999
Orbital energies will be scaled


General Settings:
 Integral files         IntName         .... Cd_ano-r3_pbe
 Hartree-Fock type      HFTyp           .... UHF
 Total Charge           Charge          ....    0
 Multiplicity           Mult            ....    1
 Number of Electrons    NEL             ....   48
 Basis Dimension        Dim             ....  101
 Nuclear Repulsion      ENuc            ....      0.0000000000 Eh

Convergence Acceleration:
 DIIS                   CNVDIIS         .... on
   Start iteration      DIISMaxIt       ....    12
   Startup error        DIISStart       ....  0.200000
   # of expansion vecs  DIISMaxEq       ....     5
   Bias factor          DIISBfac        ....   1.050
   Max. coefficient     DIISMaxC        ....  10.000
 Trust-Rad. Augm. Hess. CNVTRAH         .... off
 SOSCF                  CNVSOSCF        .... on
   Start iteration      SOSCFMaxIt      ....   150
   Startup grad/error   SOSCFStart      ....  0.003300
 Level Shifting         CNVShift        .... on
   Level shift para.    LevelShift      ....    0.2500
   Turn off err/grad.   ShiftErr        ....    0.0010
 Zerner damping         CNVZerner       .... off
 Static damping         CNVDamp         .... on
   Fraction old density DampFac         ....    0.7000
   Max. Damping (<1)    DampMax         ....    0.9800
   Min. Damping (>=0)   DampMin         ....    0.0000
   Turn off err/grad.   DampErr         ....    0.1000
 Fernandez-Rico         CNVRico         .... off

SCF Procedure:
 Maximum # iterations   MaxIter         ....   125
 SCF integral mode      SCFMode         .... Direct
   Integral package                     .... SHARK and LIBINT hybrid scheme
 Reset frequency        DirectResetFreq ....    20
 Integral Threshold     Thresh          ....  1.000e-12 Eh
 Primitive CutOff       TCut            ....  1.000e-14 Eh

Convergence Tolerance:
 Convergence Check Mode ConvCheckMode   .... Total+1el-Energy
 Convergence forced     ConvForced      .... 0
 Energy Change          TolE            ....  1.000e-09 Eh
 1-El. energy change                    ....  1.000e-06 Eh
 Orbital Gradient       TolG            ....  2.000e-06
 Orbital Rotation angle TolX            ....  2.000e-06
 DIIS Error             TolErr          ....  1.000e-08


Diagonalization of the overlap matrix:
Smallest eigenvalue                        ... 1.000e+00
Time for diagonalization                   ...    0.059 sec
Threshold for overlap eigenvalues          ... 1.000e-08
Number of eigenvalues below threshold      ... 0
Time for construction of square roots      ...    0.288 sec
Total time needed                          ...    0.349 sec

Time for model grid setup =    0.111 sec

------------------------------
INITIAL GUESS: MODEL POTENTIAL
------------------------------
Loading ZORA relativistic densities                ... done
Calculating cut-offs                               ... done
Initializing the effective Hamiltonian             ... done
Setting up the integral package (SHARK)            ... done
Starting the Coulomb interaction                   ... done (   3.1 sec)
Reading the grid                                   ... done
Mapping shells                                     ... done
Starting the XC term evaluation                    ... done (   1.1 sec)
  promolecular density results
     # of electrons  =     48.000831960
     EX              =   -157.736450747
     EC              =     -2.524991771
     EX+EC           =   -160.261442518
Transforming the Hamiltonian                       ... done (   0.1 sec)
Diagonalizing the Hamiltonian                      ... done (   0.0 sec)
Back transforming the eigenvectors                 ... done (   0.0 sec)
Now organizing SCF variables                       ... done
                      ------------------
                      INITIAL GUESS DONE (   4.8 sec)
                      ------------------
-------------------
DFT GRID GENERATION
-------------------

General Integration Accuracy     IntAcc      ... 4.388
Radial Grid Type                 RadialGrid  ... OptM3 with GC (2021)
Angular Grid (max. ang.)         AngularGrid ... 4 (Lebedev-302)
Angular grid pruning method      GridPruning ... 4 (adaptive)
Weight generation scheme         WeightScheme... Becke
Basis function cutoff            BFCut       ... 1.0000e-12
Integration weight cutoff        WCut        ... 1.0000e-14
Angular grids for H and He will be reduced by one unit
Partially contracted basis set               ... off
Rotationally invariant grid construction     ... off

Total number of grid points                  ...    13826
Total number of batches                      ...      217
Average number of points per batch           ...       63
Average number of grid points per atom       ...    13826
Time for grid setup =    0.457 sec

--------------
SCF ITERATIONS
--------------
ITER       Energy         Delta-E        Max-DP      RMS-DP      [F,P]     Damp
               ***  Starting incremental Fock matrix formation  ***
  0  -5681.0112025867   0.000000000000 0.00867990  0.00022750  0.2853950 0.7000
  1  -5681.0202492061  -0.009046619439 0.00477790  0.00010543  0.1929081 0.7000
                               ***Turning on DIIS***
  2  -5681.0242436905  -0.003994484406 0.00208617  0.00003179  0.1314267 0.7000
  3  -5681.0268949761  -0.002651285572 0.00339361  0.00008499  0.0902494 0.0000
  4  -5681.0328251428  -0.005930166723 0.00348193  0.00008415  0.0125222 0.0000
  5  -5681.0328064749   0.000018667941 0.00136893  0.00003338  0.0132515 0.0000
                      *** Initiating the SOSCF procedure ***
                           *** Shutting down DIIS ***
                      *** Re-Reading the Fockian *** 
                      *** Removing any level shift *** 
ITER      Energy       Delta-E        Grad      Rot      Max-DP    RMS-DP
  6  -5681.03295358  -0.0001471084  0.000442  0.000442  0.000490  0.000011
               *** Restarting incremental Fock matrix formation ***
  7  -5681.03295923  -0.0000056476  0.000088  0.000118  0.000096  0.000002
  8  -5681.03295924  -0.0000000066  0.000082  0.000042  0.000042  0.000001
  9  -5681.03295927  -0.0000000359  0.000017  0.000055  0.000052  0.000001
 10  -5681.03295928  -0.0000000022  0.000006  0.000015  0.000015  0.000000
 11  -5681.03295928  -0.0000000004  0.000001  0.000000  0.000000  0.000000
                  ***Gradient check signals convergence***
              ***Rediagonalizing the Fockian in SOSCF/NRSCF***

               *****************************************************
               *                     SUCCESS                       *
               *           SCF CONVERGED AFTER  12 CYCLES          *
               *****************************************************


----------------
TOTAL SCF ENERGY
----------------

Total Energy       :        -5681.03295928 Eh         -154588.76596 eV

Components:
Nuclear Repulsion  :            0.00000000 Eh               0.00000 eV
Electronic Energy  :        -5681.03295928 Eh         -154588.76596 eV
One Electron Energy:        -7799.67898854 Eh         -212240.05535 eV
Two Electron Energy:         2118.64602927 Eh           57651.28939 eV

Virial components:
Potential Energy   :       -11694.39594876 Eh         -318220.69179 eV
Kinetic Energy     :         6013.36298949 Eh          163631.92583 eV
Virial Ratio       :            1.94473475


DFT components:
N(Alpha)           :       23.999999463848 electrons
N(Beta)            :       23.999999463848 electrons
N(Total)           :       47.999998927696 electrons
E(X)               :     -153.273873763883 Eh       
E(C)               :       -2.527952575373 Eh       
E(XC)              :     -155.801826339256 Eh       
DFET-embed. en.    :        0.000000000000 Eh       

---------------
SCF CONVERGENCE
---------------

  Last Energy change         ...    1.8190e-12  Tolerance :   1.0000e-09
  Last MAX-Density change    ...    4.8199e-08  Tolerance :   1.0000e-08
  Last RMS-Density change    ...    7.0362e-10  Tolerance :   1.0000e-09
  Last Orbital Gradient      ...    1.5886e-07  Tolerance :   2.0000e-06
  Last Orbital Rotation      ...    5.8237e-08  Tolerance :   2.0000e-06

             **** THE GBW FILE WAS UPDATED (Cd_ano-r3_pbe.gbw) ****
             **** DENSITY Cd_ano-r3_pbe.scfp WAS UPDATED ****
             **** ENERGY FILE WAS UPDATED (Cd_ano-r3_pbe.en.tmp) ****
----------------------
UHF SPIN CONTAMINATION
----------------------

Warning: in a DFT calculation there is little theoretical justification to 
         calculate <S**2> as in Hartree-Fock theory. We will do it anyways
         but you should keep in mind that the values have only limited relevance

Expectation value of <S**2>     :    -0.000000
Ideal value S*(S+1) for S=0.0   :     0.000000
Deviation                       :    -0.000000

             **** THE GBW FILE WAS UPDATED (Cd_ano-r3_pbe.gbw) ****
             **** DENSITY Cd_ano-r3_pbe.scfp WAS UPDATED ****
----------------
ORBITAL ENERGIES
----------------
                 SPIN UP ORBITALS
  NO   OCC          E(Eh)            E(eV) 
   0   1.0000   -1006.520588    -27388.8176 
   1   1.0000    -145.988661     -3972.5534 
   2   1.0000    -131.410929     -3575.8732 
   3   1.0000    -131.410929     -3575.8732 
   4   1.0000    -131.410929     -3575.8732 
   5   1.0000     -27.079568      -736.8725 
   6   1.0000     -22.254299      -605.5703 
   7   1.0000     -22.254299      -605.5703 
   8   1.0000     -22.254299      -605.5703 
   9   1.0000     -14.543666      -395.7533 
  10   1.0000     -14.543666      -395.7533 
  11   1.0000     -14.543666      -395.7533 
  12   1.0000     -14.543666      -395.7533 
  13   1.0000     -14.543666      -395.7533 
  14   1.0000      -3.897014      -106.0432 
  15   1.0000      -2.473664       -67.3118 
  16   1.0000      -2.473664       -67.3118 
  17   1.0000      -2.473664       -67.3118 
  18   1.0000      -0.429512       -11.6876 
  19   1.0000      -0.429512       -11.6876 
  20   1.0000      -0.429512       -11.6876 
  21   1.0000      -0.429512       -11.6876 
  22   1.0000      -0.429512       -11.6876 
  23   1.0000      -0.207736        -5.6528 
  24   0.0000       0.058198         1.5836 
  25   0.0000       0.058198         1.5836 
  26   0.0000       0.058198         1.5836 
  27   0.0000       0.089739         2.4419 
  28   0.0000       0.360306         9.8044 
  29   0.0000       0.360306         9.8044 
  30   0.0000       0.360306         9.8044 
  31   0.0000       0.360306         9.8044 
  32   0.0000       0.360306         9.8044 
  33   0.0000       0.874492        23.7961 
  34   0.0000       0.874492        23.7961 
  35   0.0000       0.874492        23.7961 
  36   0.0000       0.874492        23.7961 
  37   0.0000       0.874492        23.7961 
  38   0.0000       0.874492        23.7961 
  39   0.0000       0.874492        23.7961 
  40   0.0000       0.902601        24.5610 
  41   0.0000       1.334753        36.3205 
  42   0.0000       1.334753        36.3205 
  43   0.0000       1.334753        36.3205 
  44   0.0000       1.880257        51.1644 
  45   0.0000       1.880257        51.1644 
  46   0.0000       1.880257        51.1644 
  47   0.0000       1.880257        51.1644 
  48   0.0000       1.880257        51.1644 
  49   0.0000       2.312038        62.9138 
  50   0.0000       2.312038        62.9138 
  51   0.0000       2.312038        62.9138 
  52   0.0000       2.312038        62.9138 
  53   0.0000       2.312038        62.9138 
  54   0.0000       2.312038        62.9138 
  55   0.0000       2.312038        62.9138 
  56   0.0000       2.633152        71.6517 
  57   0.0000       2.633152        71.6517 
  58   0.0000       2.633152        71.6517 
  59   0.0000       2.633152        71.6517 
  60   0.0000       2.633152        71.6517 
  61   0.0000       2.633152        71.6517 
  62   0.0000       2.633152        71.6517 
  63   0.0000       2.633152        71.6517 
  64   0.0000       2.633152        71.6517 
  65   0.0000       4.074983       110.8859 
  66   0.0000       5.532255       150.5403 
  67   0.0000       5.532255       150.5403 
  68   0.0000       5.532255       150.5403 
  69   0.0000       5.532255       150.5403 
  70   0.0000       5.532255       150.5403 
  71   0.0000       5.532255       150.5403 
  72   0.0000       5.532255       150.5403 
  73   0.0000       6.253859       170.1762 
  74   0.0000       6.253859       170.1762 
  75   0.0000       6.253859       170.1762 
  76   0.0000       7.081716       192.7033 
  77   0.0000       7.081716       192.7033 
  78   0.0000       7.081716       192.7033 
  79   0.0000       7.081716       192.7033 
  80   0.0000       7.081716       192.7033 
  81   0.0000       7.081716       192.7033 
  82   0.0000       7.081716       192.7033 
  83   0.0000       7.081716       192.7033 
  84   0.0000       7.081716       192.7033 
  85   0.0000       7.081716       192.7033 
  86   0.0000       7.081716       192.7033 
  87   0.0000       7.156460       194.7372 
  88   0.0000       7.156460       194.7372 
  89   0.0000       7.156460       194.7372 
  90   0.0000       7.156460       194.7372 
  91   0.0000       7.156460       194.7372 
  92   0.0000       7.440812       202.4748 
  93   0.0000       7.440812       202.4748 
  94   0.0000       7.440812       202.4748 
  95   0.0000       7.440812       202.4748 
  96   0.0000       7.440812       202.4748 
  97   0.0000       7.440812       202.4748 
  98   0.0000       7.440812       202.4748 
  99   0.0000       7.440812       202.4748 
 100   0.0000       7.440812       202.4748 

                 SPIN DOWN ORBITALS
  NO   OCC          E(Eh)            E(eV) 
   0   1.0000   -1006.520588    -27388.8176 
   1   1.0000    -145.988661     -3972.5534 
   2   1.0000    -131.410929     -3575.8732 
   3   1.0000    -131.410929     -3575.8732 
   4   1.0000    -131.410929     -3575.8732 
   5   1.0000     -27.079568      -736.8725 
   6   1.0000     -22.254299      -605.5703 
   7   1.0000     -22.254299      -605.5703 
   8   1.0000     -22.254299      -605.5703 
   9   1.0000     -14.543666      -395.7533 
  10   1.0000     -14.543666      -395.7533 
  11   1.0000     -14.543666      -395.7533 
  12   1.0000     -14.543666      -395.7533 
  13   1.0000     -14.543666      -395.7533 
  14   1.0000      -3.897014      -106.0432 
  15   1.0000      -2.473664       -67.3118 
  16   1.0000      -2.473664       -67.3118 
  17   1.0000      -2.473664       -67.3118 
  18   1.0000      -0.429512       -11.6876 
  19   1.0000      -0.429512       -11.6876 
  20   1.0000      -0.429512       -11.6876 
  21   1.0000      -0.429512       -11.6876 
  22   1.0000      -0.429512       -11.6876 
  23   1.0000      -0.207736        -5.6528 
  24   0.0000       0.058198         1.5836 
  25   0.0000       0.058198         1.5836 
  26   0.0000       0.058198         1.5836 
  27   0.0000       0.089739         2.4419 
  28   0.0000       0.360306         9.8044 
  29   0.0000       0.360306         9.8044 
  30   0.0000       0.360306         9.8044 
  31   0.0000       0.360306         9.8044 
  32   0.0000       0.360306         9.8044 
  33   0.0000       0.874492        23.7961 
  34   0.0000       0.874492        23.7961 
  35   0.0000       0.874492        23.7961 
  36   0.0000       0.874492        23.7961 
  37   0.0000       0.874492        23.7961 
  38   0.0000       0.874492        23.7961 
  39   0.0000       0.874492        23.7961 
  40   0.0000       0.902601        24.5610 
  41   0.0000       1.334753        36.3205 
  42   0.0000       1.334753        36.3205 
  43   0.0000       1.334753        36.3205 
  44   0.0000       1.880257        51.1644 
  45   0.0000       1.880257        51.1644 
  46   0.0000       1.880257        51.1644 
  47   0.0000       1.880257        51.1644 
  48   0.0000       1.880257        51.1644 
  49   0.0000       2.312038        62.9138 
  50   0.0000       2.312038        62.9138 
  51   0.0000       2.312038        62.9138 
  52   0.0000       2.312038        62.9138 
  53   0.0000       2.312038        62.9138 
  54   0.0000       2.312038        62.9138 
  55   0.0000       2.312038        62.9138 
  56   0.0000       2.633152        71.6517 
  57   0.0000       2.633152        71.6517 
  58   0.0000       2.633152        71.6517 
  59   0.0000       2.633152        71.6517 
  60   0.0000       2.633152        71.6517 
  61   0.0000       2.633152        71.6517 
  62   0.0000       2.633152        71.6517 
  63   0.0000       2.633152        71.6517 
  64   0.0000       2.633152        71.6517 
  65   0.0000       4.074983       110.8859 
  66   0.0000       5.532255       150.5403 
  67   0.0000       5.532255       150.5403 
  68   0.0000       5.532255       150.5403 
  69   0.0000       5.532255       150.5403 
  70   0.0000       5.532255       150.5403 
  71   0.0000       5.532255       150.5403 
  72   0.0000       5.532255       150.5403 
  73   0.0000       6.253859       170.1762 
  74   0.0000       6.253859       170.1762 
  75   0.0000       6.253859       170.1762 
  76   0.0000       7.081716       192.7033 
  77   0.0000       7.081716       192.7033 
  78   0.0000       7.081716       192.7033 
  79   0.0000       7.081716       192.7033 
  80   0.0000       7.081716       192.7033 
  81   0.0000       7.081716       192.7033 
  82   0.0000       7.081716       192.7033 
  83   0.0000       7.081716       192.7033 
  84   0.0000       7.081716       192.7033 
  85   0.0000       7.081716       192.7033 
  86   0.0000       7.081716       192.7033 
  87   0.0000       7.156460       194.7372 
  88   0.0000       7.156460       194.7372 
  89   0.0000       7.156460       194.7372 
  90   0.0000       7.156460       194.7372 
  91   0.0000       7.156460       194.7372 
  92   0.0000       7.440812       202.4748 
  93   0.0000       7.440812       202.4748 
  94   0.0000       7.440812       202.4748 
  95   0.0000       7.440812       202.4748 
  96   0.0000       7.440812       202.4748 
  97   0.0000       7.440812       202.4748 
  98   0.0000       7.440812       202.4748 
  99   0.0000       7.440812       202.4748 
 100   0.0000       7.440812       202.4748 

                    ********************************
                    * MULLIKEN POPULATION ANALYSIS *
                    ********************************

--------------------------------------------
MULLIKEN ATOMIC CHARGES AND SPIN POPULATIONS
--------------------------------------------
   0 Cd:   -0.000000    0.000000
Sum of atomic charges         :   -0.0000000
Sum of atomic spin populations:    0.0000000

-----------------------------------------------------
MULLIKEN REDUCED ORBITAL CHARGES AND SPIN POPULATIONS
-----------------------------------------------------
CHARGE
  0 Cds       :    10.000000  s :    10.000000
      pz      :     6.000000  p :    18.000000
      px      :     6.000000
      py      :     6.000000
      dz2     :     4.000000  d :    20.000000
      dxz     :     4.000000
      dyz     :     4.000000
      dx2y2   :     4.000000
      dxy     :     4.000000
      f0      :     0.000000  f :     0.000000
      f+1     :     0.000000
      f-1     :     0.000000
      f+2     :     0.000000
      f-2     :     0.000000
      f+3     :     0.000000
      f-3     :     0.000000
      g0      :     0.000000  g :     0.000000
      g+1     :     0.000000
      g-1     :     0.000000
      g+2     :     0.000000
      g-2     :     0.000000
      g+3     :     0.000000
      g-3     :     0.000000
      g+4     :     0.000000
      g-4     :     0.000000
      h0      :     0.000000  h :     0.000000
      h+1     :     0.000000
      h-1     :     0.000000
      h+2     :     0.000000
      h-2     :     0.000000
      h+3     :     0.000000
      h-3     :     0.000000
      h+4     :     0.000000
      h-4     :     0.000000
      h+5     :     0.000000
      h-5     :     0.000000

SPIN
  0 Cds       :     0.000000  s :     0.000000
      pz      :     0.000000  p :     0.000000
      px      :     0.000000
      py      :     0.000000
      dz2     :     0.000000  d :     0.000000
      dxz     :     0.000000
      dyz     :     0.000000
      dx2y2   :     0.000000
      dxy     :     0.000000
      f0      :     0.000000  f :     0.000000
      f+1     :     0.000000
      f-1     :     0.000000
      f+2     :     0.000000
      f-2     :     0.000000
      f+3     :     0.000000
      f-3     :     0.000000
      g0      :     0.000000  g :     0.000000
      g+1     :     0.000000
      g-1     :     0.000000
      g+2     :     0.000000
      g-2     :     0.000000
      g+3     :     0.000000
      g-3     :     0.000000
      g+4     :     0.000000
      g-4     :     0.000000
      h0      :     0.000000  h :     0.000000
      h+1     :     0.000000
      h-1     :     0.000000
      h+2     :     0.000000
      h-2     :     0.000000
      h+3     :     0.000000
      h-3     :     0.000000
      h+4     :     0.000000
      h-4     :     0.000000
      h+5     :     0.000000
      h-5     :     0.000000


                     *******************************
                     * LOEWDIN POPULATION ANALYSIS *
                     *******************************

-------------------------------------------
LOEWDIN ATOMIC CHARGES AND SPIN POPULATIONS
-------------------------------------------
   0 Cd:    0.000000    0.000000

----------------------------------------------------
LOEWDIN REDUCED ORBITAL CHARGES AND SPIN POPULATIONS
----------------------------------------------------
CHARGE
  0 Cds       :    10.000000  s :    10.000000
      pz      :     6.000000  p :    18.000000
      px      :     6.000000
      py      :     6.000000
      dz2     :     4.000000  d :    20.000000
      dxz     :     4.000000
      dyz     :     4.000000
      dx2y2   :     4.000000
      dxy     :     4.000000
      f0      :     0.000000  f :     0.000000
      f+1     :     0.000000
      f-1     :     0.000000
      f+2     :     0.000000
      f-2     :     0.000000
      f+3     :     0.000000
      f-3     :     0.000000
      g0      :     0.000000  g :     0.000000
      g+1     :     0.000000
      g-1     :     0.000000
      g+2     :     0.000000
      g-2     :     0.000000
      g+3     :     0.000000
      g-3     :     0.000000
      g+4     :     0.000000
      g-4     :     0.000000
      h0      :     0.000000  h :     0.000000
      h+1     :     0.000000
      h-1     :     0.000000
      h+2     :     0.000000
      h-2     :     0.000000
      h+3     :     0.000000
      h-3     :     0.000000
      h+4     :     0.000000
      h-4     :     0.000000
      h+5     :     0.000000
      h-5     :     0.000000

SPIN
  0 Cds       :     0.000000  s :     0.000000
      pz      :     0.000000  p :     0.000000
      px      :     0.000000
      py      :     0.000000
      dz2     :     0.000000  d :     0.000000
      dxz     :     0.000000
      dyz     :     0.000000
      dx2y2   :     0.000000
      dxy     :     0.000000
      f0      :     0.000000  f :     0.000000
      f+1     :     0.000000
      f-1     :     0.000000
      f+2     :     0.000000
      f-2     :     0.000000
      f+3     :     0.000000
      f-3     :     0.000000
      g0      :     0.000000  g :     0.000000
      g+1     :     0.000000
      g-1     :     0.000000
      g+2     :     0.000000
      g-2     :     0.000000
      g+3     :     0.000000
      g-3     :     0.000000
      g+4     :     0.000000
      g-4     :     0.000000
      h0      :     0.000000  h :     0.000000
      h+1     :     0.000000
      h-1     :     0.000000
      h+2     :     0.000000
      h-2     :     0.000000
      h+3     :     0.000000
      h-3     :     0.000000
      h+4     :     0.000000
      h-4     :     0.000000
      h+5     :     0.000000
      h-5     :     0.000000


                      *****************************
                      * MAYER POPULATION ANALYSIS *
                      *****************************

  NA   - Mulliken gross atomic population
  ZA   - Total nuclear charge
  QA   - Mulliken gross atomic charge
  VA   - Mayer's total valence
  BVA  - Mayer's bonded valence
  FA   - Mayer's free valence

  ATOM       NA         ZA         QA         VA         BVA        FA
  0 Cd    48.0000    48.0000     0.0000     0.0000     0.0000     0.0000

  Mayer bond orders larger than 0.100000


-------
TIMINGS
-------

Total SCF time: 0 days 0 hours 15 min 37 sec 

Total time                  ....     937.936 sec
Sum of individual times     ....     934.781 sec  ( 99.7%)

Fock matrix formation       ....     927.352 sec  ( 98.9%)
  XC integration            ....       8.666 sec  (  0.9% of F)
    Basis function eval.    ....       0.049 sec  (  0.6% of XC)
    Density eval.           ....       0.260 sec  (  3.0% of XC)
    XC-Functional eval.     ....       0.018 sec  (  0.2% of XC)
    XC-Potential eval.      ....       0.036 sec  (  0.4% of XC)
Diagonalization             ....       0.154 sec  (  0.0%)
Density matrix formation    ....       0.006 sec  (  0.0%)
Population analysis         ....       0.067 sec  (  0.0%)
Initial guess               ....       4.664 sec  (  0.5%)
Orbital Transformation      ....       0.000 sec  (  0.0%)
Orbital Orthonormalization  ....       0.000 sec  (  0.0%)
DIIS solution               ....       1.909 sec  (  0.2%)
SOSCF solution              ....       0.061 sec  (  0.0%)
Grid generation             ....       0.568 sec  (  0.1%)

Maximum memory used throughout the entire SCF-calculation: 263.1 MB

-------------------------   --------------------
FINAL SINGLE POINT ENERGY     -5681.032959275920
-------------------------   --------------------


                            ***************************************
                            *     ORCA property calculations      *
                            ***************************************

                                    ---------------------
                                    Active property flags
                                    ---------------------
   (+) Dipole Moment


------------------------------------------------------------------------------
                       ORCA ELECTRIC PROPERTIES CALCULATION
------------------------------------------------------------------------------

Dipole Moment Calculation                       ... on
Quadrupole Moment Calculation                   ... off
Polarizability Calculation                      ... off
GBWName                                         ... Cd_ano-r3_pbe.gbw
Electron density                                ... Cd_ano-r3_pbe.scfp
The origin for moment calculation is the CENTER OF MASS  = ( 0.000000,  0.000000  0.000000)

-------------
DIPOLE MOMENT
-------------
                                X             Y             Z
Electronic contribution:      0.00000       0.00000      -0.00000
Nuclear contribution   :      0.00000       0.00000       0.00000
                        -----------------------------------------
Total Dipole Moment    :      0.00000       0.00000      -0.00000
                        -----------------------------------------
Magnitude (a.u.)       :      0.00000
Magnitude (Debye)      :      0.00000



--------------------
Rotational spectrum 
--------------------
 
Rotational constants in cm-1:     0.000000     0.000000     0.000000 
Rotational constants in MHz :     0.000000     0.000000     0.000000 

 Dipole components along the rotational axes: 
x,y,z [a.u.] :     0.000000     0.000000    -0.000000 
x,y,z [Debye]:     0.000000     0.000000    -0.000000 

 

Timings for individual modules:

Sum of individual times         ...     1061.559 sec (=  17.693 min)
GTO integral calculation        ...       90.939 sec (=   1.516 min)   8.6 %
Relativistic integrals          ...       29.008 sec (=   0.483 min)   2.7 %
SCF iterations                  ...      941.612 sec (=  15.694 min)  88.7 %
                             ****ORCA TERMINATED NORMALLY****
TOTAL RUN TIME: 0 days 0 hours 17 minutes 52 seconds 749 msec
