
                                 *****************
                                 * O   R   C   A *
                                 *****************

                                            #,                                       
                                            ###                                      
                                            ####                                     
                                            #####                                    
                                            ######                                   
                                           ########,                                 
                                     ,,################,,,,,                         
                               ,,#################################,,                 
                          ,,##########################################,,             
                       ,#########################################, ''#####,          
                    ,#############################################,,   '####,        
                  ,##################################################,,,,####,       
                ,###########''''           ''''###############################       
              ,#####''   ,,,,##########,,,,          '''####'''          '####       
            ,##' ,,,,###########################,,,                        '##       
           ' ,,###''''                  '''############,,,                           
         ,,##''                                '''############,,,,        ,,,,,,###''
      ,#''                                            '''#######################'''  
     '                                                          ''''####''''         
             ,#######,   #######,   ,#######,      ##                                
            ,#'     '#,  ##    ##  ,#'     '#,    #''#        ######   ,####,        
            ##       ##  ##   ,#'  ##            #'  '#       #        #'  '#        
            ##       ##  #######   ##           ,######,      #####,   #    #        
            '#,     ,#'  ##    ##  '#,     ,#' ,#      #,         ##   #,  ,#        
             '#######'   ##     ##  '#######'  #'      '#     #####' # '####'        



                  #######################################################
                  #                        -***-                        #
                  #          Department of theory and spectroscopy      #
                  #    Directorship and core code : Frank Neese         #
                  #        Max Planck Institute fuer Kohlenforschung    #
                  #                Kaiser Wilhelm Platz 1               #
                  #                 D-45470 Muelheim/Ruhr               #
                  #                      Germany                        #
                  #                                                     #
                  #                  All rights reserved                #
                  #                        -***-                        #
                  #######################################################


                         Program Version 5.0.1 -  RELEASE  -


 With contributions from (in alphabetic order):
   Daniel Aravena         : Magnetic Suceptibility
   Michael Atanasov       : Ab Initio Ligand Field Theory (pilot matlab implementation)
   Alexander A. Auer      : GIAO ZORA, VPT2 properties, NMR spectrum
   Ute Becker             : Parallelization
   Giovanni Bistoni       : ED, misc. LED, open-shell LED, HFLD
   Martin Brehm           : Molecular dynamics
   Dmytro Bykov           : SCF Hessian
   Vijay G. Chilkuri      : MRCI spin determinant printing, contributions to CSF-ICE
   Dipayan Datta          : RHF DLPNO-CCSD density
   Achintya Kumar Dutta   : EOM-CC, STEOM-CC
   Dmitry Ganyushin       : Spin-Orbit,Spin-Spin,Magnetic field MRCI
   Miquel Garcia          : C-PCM and meta-GGA Hessian, CC/C-PCM, Gaussian charge scheme
   Yang Guo               : DLPNO-NEVPT2, F12-NEVPT2, CIM, IAO-localization
   Andreas Hansen         : Spin unrestricted coupled pair/coupled cluster methods
   Benjamin Helmich-Paris : MC-RPA, TRAH-SCF, COSX integrals
   Lee Huntington         : MR-EOM, pCC
   Robert Izsak           : Overlap fitted RIJCOSX, COSX-SCS-MP3, EOM
   Marcus Kettner         : VPT2
   Christian Kollmar      : KDIIS, OOCD, Brueckner-CCSD(T), CCSD density, CASPT2, CASPT2-K
   Simone Kossmann        : Meta GGA functionals, TD-DFT gradient, OOMP2, MP2 Hessian
   Martin Krupicka        : Initial AUTO-CI
   Lucas Lang             : DCDCAS
   Marvin Lechner         : AUTO-CI (C++ implementation), FIC-MRCC
   Dagmar Lenk            : GEPOL surface, SMD
   Dimitrios Liakos       : Extrapolation schemes; Compound Job, initial MDCI parallelization
   Dimitrios Manganas     : Further ROCIS development; embedding schemes
   Dimitrios Pantazis     : SARC Basis sets
   Anastasios Papadopoulos: AUTO-CI, single reference methods and gradients
   Taras Petrenko         : DFT Hessian,TD-DFT gradient, ASA, ECA, R-Raman, ABS, FL, XAS/XES, NRVS
   Peter Pinski           : DLPNO-MP2, DLPNO-MP2 Gradient
   Christoph Reimann      : Effective Core Potentials
   Marius Retegan         : Local ZFS, SOC
   Christoph Riplinger    : Optimizer, TS searches, QM/MM, DLPNO-CCSD(T), (RO)-DLPNO pert. Triples
   Tobias Risthaus        : Range-separated hybrids, TD-DFT gradient, RPA, STAB
   Michael Roemelt        : Original ROCIS implementation
   Masaaki Saitow         : Open-shell DLPNO-CCSD energy and density
   Barbara Sandhoefer     : DKH picture change effects
   Avijit Sen             : IP-ROCIS
   Kantharuban Sivalingam : CASSCF convergence, NEVPT2, FIC-MRCI
   Bernardo de Souza      : ESD, SOC TD-DFT
   Georgi Stoychev        : AutoAux, RI-MP2 NMR, DLPNO-MP2 response
   Willem Van den Heuvel  : Paramagnetic NMR
   Boris Wezisla          : Elementary symmetry handling
   Frank Wennmohs         : Technical directorship


 We gratefully acknowledge several colleagues who have allowed us to
 interface, adapt or use parts of their codes:
   Stefan Grimme, W. Hujo, H. Kruse, P. Pracht,  : VdW corrections, initial TS optimization,
                  C. Bannwarth, S. Ehlert          DFT functionals, gCP, sTDA/sTD-DF
   Ed Valeev, F. Pavosevic, A. Kumar             : LibInt (2-el integral package), F12 methods
   Garnet Chan, S. Sharma, J. Yang, R. Olivares  : DMRG
   Ulf Ekstrom                                   : XCFun DFT Library
   Mihaly Kallay                                 : mrcc  (arbitrary order and MRCC methods)
   Jiri Pittner, Ondrej Demel                    : Mk-CCSD
   Frank Weinhold                                : gennbo (NPA and NBO analysis)
   Christopher J. Cramer and Donald G. Truhlar   : smd solvation model
   Lars Goerigk                                  : TD-DFT with DH, B97 family of functionals
   V. Asgeirsson, H. Jonsson                     : NEB implementation
   FAccTs GmbH                                   : IRC, NEB, NEB-TS, DLPNO-Multilevel, CI-OPT
                                                   MM, QMMM, 2- and 3-layer-ONIOM, Crystal-QMMM,
                                                   LR-CPCM, SF, NACMEs, symmetry and pop. for TD-DFT,
                                                   nearIR, NL-DFT gradient (VV10), updates on ESD,
                                                   ML-optimized integration grids
   S Lehtola, MJT Oliveira, MAL Marques          : LibXC Library
   Liviu Ungur et al                             : ANISO software


 Your calculation uses the libint2 library for the computation of 2-el integrals
 For citations please refer to: http://libint.valeyev.net

 Your ORCA version has been built with support for libXC version: 5.1.0
 For citations please refer to: https://tddft.org/programs/libxc/

 This ORCA versions uses:
   CBLAS   interface :  Fast vector & matrix operations
   LAPACKE interface :  Fast linear algebra routines
   SCALAPACK package :  Parallel linear algebra routines
   Shared memory     :  Shared parallel matrices
   BLAS/LAPACK       :  OpenBLAS 0.3.15  USE64BITINT DYNAMIC_ARCH NO_AFFINITY Haswell SINGLE_THREADED
        Core in use  :  Haswell
   Copyright (c) 2011-2014, The OpenBLAS Project


SCAN-COORDS

Reading of a custom basis requested
Basis file         : Cd_ugbs.basis
READING GTO-BASIS: CADMIUM
Basis successfully read

================================================================================

----- Orbital basis set information -----
================================================================================
                                        WARNINGS
                       Please study these warnings very carefully!
================================================================================


INFO   : the flag for use of the SHARK integral package has been found!

================================================================================
                                       INPUT FILE
================================================================================
NAME = Cd_ugbs_pbe.inp
|  1> !uks pbe nori verytightscf soscf notrah
|  2> 
|  3> %pal
|  4>   nprocs 32
|  5> end
|  6> %coords
|  7>   charge 0
|  8>   mult 1
|  9>   units bohrs
| 10>   coords
| 11>     Cd 0.0 0.0 0.0
| 12>   end
| 13> end
| 14> %basis
| 15>   gtoname "Cd_ugbs.basis"
| 16>   delECP Cd
| 17> end
| 18> %rel
| 19>   method zora
| 20>   modelpot 1, 0, 0, 0
| 21>   c 137.035999084
| 22> endd                         ****END OF INPUT****
================================================================================

                       ****************************
                       * Single Point Calculation *
                       ****************************

---------------------------------
CARTESIAN COORDINATES (ANGSTROEM)
---------------------------------
  Cd     0.000000    0.000000    0.000000

----------------------------
CARTESIAN COORDINATES (A.U.)
----------------------------
  NO LB      ZA    FRAG     MASS         X           Y           Z
   0 Cd   48.0000    0   112.410    0.000000    0.000000    0.000000

--------------------------------
INTERNAL COORDINATES (ANGSTROEM)
--------------------------------
 Cd     0   0   0     0.000000000000     0.00000000     0.00000000

---------------------------
INTERNAL COORDINATES (A.U.)
---------------------------
 Cd     0   0   0     0.000000000000     0.00000000     0.00000000

---------------------
BASIS SET INFORMATION
---------------------
There are 1 groups of distinct atoms

 Group   1 Type Cd  : 31s20p16d contracted to 31s20p16d pattern {1111111111111111111111111111111/11111111111111111111/1111111111111111}

Atom   0Cd   basis set group =>   1


           ************************************************************
           *        Program running with 32 parallel MPI-processes    *
           *              working on a common directory               *
           ************************************************************
------------------------------------------------------------------------------
                           ORCA GTO INTEGRAL CALCULATION
------------------------------------------------------------------------------
------------------------------------------------------------------------------
                   ___                                                        
                  /   \      - P O W E R E D   B Y -                         
                 /     \                                                     
                 |  |  |   _    _      __       _____    __    __             
                 |  |  |  | |  | |    /  \     |  _  \  |  |  /  |          
                  \  \/   | |  | |   /    \    | | | |  |  | /  /          
                 / \  \   | |__| |  /  /\  \   | |_| |  |  |/  /          
                |  |  |   |  __  | /  /__\  \  |    /   |      \           
                |  |  |   | |  | | |   __   |  |    \   |  |\   \          
                \     /   | |  | | |  |  |  |  | |\  \  |  | \   \       
                 \___/    |_|  |_| |__|  |__|  |_| \__\ |__|  \__/        
                                                                              
                      - O R C A' S   B I G   F R I E N D -                    
                                      &                                       
                       - I N T E G R A L  F E E D E R -                       
                                                                              
 v1 FN, 2020, v2 2021                                                         
------------------------------------------------------------------------------


Reading SHARK input file Cd_ugbs_pbe.SHARKINP.tmp ... ok
----------------------
SHARK INTEGRAL PACKAGE
----------------------

Number of atoms                             ...      1
Number of basis functions                   ...    171
Number of shells                            ...     67
Maximum angular momentum                    ...      2
Integral batch strategy                     ... SHARK/LIBINT Hybrid
RI-J (if used) integral strategy            ... SPLIT-RIJ (Revised 2003 algorithm where possible)
Printlevel                                  ...      1
Contraction scheme used                     ... SEGMENTED contraction
Coulomb Range Separation                    ... NOT USED
Exchange Range Separation                   ... NOT USED
Finite Nucleus Model                        ... NOT USED
Auxiliary Coulomb fitting basis             ... NOT available
Auxiliary J/K fitting basis                 ... NOT available
Auxiliary Correlation fitting basis         ... NOT available
Auxiliary 'external' fitting basis          ... NOT available
Integral threshold                          ...     1.000000e-12
Primitive cut-off                           ...     1.000000e-14
Primitive pair pre-selection threshold      ...     1.000000e-14

Calculating pre-screening integrals         ... done (  0.2 sec) Dimension = 67
Organizing shell pair data                  ... done (  0.1 sec)
Shell pair information
Total number of shell pairs                 ...      2278
Shell pairs after pre-screening             ...      2278
Total number of primitive shell pairs       ...      2278
Primitive shell pairs kept                  ...      2278
          la=0 lb=0:    496 shell pairs
          la=1 lb=0:    620 shell pairs
          la=1 lb=1:    210 shell pairs
          la=2 lb=0:    496 shell pairs
          la=2 lb=1:    320 shell pairs
          la=2 lb=2:    136 shell pairs

Calculating one electron integrals          ... done (  0.1 sec)
Calculating Nuclear repulsion               ... done (  0.0 sec) ENN=      0.000000000000 Eh

SHARK setup successfully completed in   0.7 seconds

Maximum memory used throughout the entire GTOINT-calculation: 6.0 MB


           ************************************************************
           *        Program running with 32 parallel MPI-processes    *
           *              working on a common directory               *
           ************************************************************
------------------------------------------------------------------------------
                          ORCA RELATIVISTIC HAMILTONIAN
------------------------------------------------------------------------------

Relativistic Method            ... ZORA(MP)
Treatment of potential         ... Van Wuellen
Nucleus model                  ... Point Nucleus
Speed of light used            ... 137.03599908400000


            *************************************************
            *         ZERO ORDER REGULAR APPROXIMATION      *
            *                     ZORA(MP)                  *
            *            Programmed by FN according to      *
            *                   C. van Wuellen              *
            *       J. Chem. Phys. (1998) vol 109, 392-399  *
            *************************************************

Terms included in model potential: +V(e,N)
Basis function cutoff value   ... 1.000000e-12
Loading the fitted atomic densities  (DKH4)  ... done
Calculating the cutoffs                      ... done
Number of fit functions                      ... 29
Setting up the integration grid ... done

Maximum memory used throughout the entire REL-calculation: 10.5 MB


           ************************************************************
           *        Program running with 32 parallel MPI-processes    *
           *              working on a common directory               *
           ************************************************************
-------------------------------------------------------------------------------
                                 ORCA SCF
-------------------------------------------------------------------------------

------------
SCF SETTINGS
------------
Hamiltonian:
 Density Functional     Method          .... DFT(GTOs)
 Exchange Functional    Exchange        .... PBE
   PBE kappa parameter   XKappa         ....  0.804000
   PBE mue parameter    XMuePBE         ....  0.219520
 Correlation Functional Correlation     .... PBE
   PBE beta parameter  CBetaPBE         ....  0.066725
 LDA part of GGA corr.  LDAOpt          .... PW91-LDA
 Gradients option       PostSCFGGA      .... off
   Density functional embedding theory  .... OFF
   NL short-range parameter             ....  6.400000

Relativistic Settings:
 Scalar relativistic method             .... ZORA
 Speed of light used       Velit        ....       137.035999
Orbital energies will be scaled


General Settings:
 Integral files         IntName         .... Cd_ugbs_pbe
 Hartree-Fock type      HFTyp           .... UHF
 Total Charge           Charge          ....    0
 Multiplicity           Mult            ....    1
 Number of Electrons    NEL             ....   48
 Basis Dimension        Dim             ....  171
 Nuclear Repulsion      ENuc            ....      0.0000000000 Eh

Convergence Acceleration:
 DIIS                   CNVDIIS         .... on
   Start iteration      DIISMaxIt       ....    12
   Startup error        DIISStart       ....  0.200000
   # of expansion vecs  DIISMaxEq       ....     5
   Bias factor          DIISBfac        ....   1.050
   Max. coefficient     DIISMaxC        ....  10.000
 Trust-Rad. Augm. Hess. CNVTRAH         .... off
 SOSCF                  CNVSOSCF        .... on
   Start iteration      SOSCFMaxIt      ....   150
   Startup grad/error   SOSCFStart      ....  0.003300
 Level Shifting         CNVShift        .... on
   Level shift para.    LevelShift      ....    0.2500
   Turn off err/grad.   ShiftErr        ....    0.0010
 Zerner damping         CNVZerner       .... off
 Static damping         CNVDamp         .... on
   Fraction old density DampFac         ....    0.7000
   Max. Damping (<1)    DampMax         ....    0.9800
   Min. Damping (>=0)   DampMin         ....    0.0000
   Turn off err/grad.   DampErr         ....    0.1000
 Fernandez-Rico         CNVRico         .... off

SCF Procedure:
 Maximum # iterations   MaxIter         ....   125
 SCF integral mode      SCFMode         .... Direct
   Integral package                     .... SHARK and LIBINT hybrid scheme
 Reset frequency        DirectResetFreq ....    20
 Integral Threshold     Thresh          ....  1.000e-12 Eh
 Primitive CutOff       TCut            ....  1.000e-14 Eh

Convergence Tolerance:
 Convergence Check Mode ConvCheckMode   .... Total+1el-Energy
 Convergence forced     ConvForced      .... 0
 Energy Change          TolE            ....  1.000e-09 Eh
 1-El. energy change                    ....  1.000e-06 Eh
 Orbital Gradient       TolG            ....  2.000e-06
 Orbital Rotation angle TolX            ....  2.000e-06
 DIIS Error             TolErr          ....  1.000e-08


Diagonalization of the overlap matrix:
Smallest eigenvalue                        ... 6.074e-05
Time for diagonalization                   ...    0.093 sec
Threshold for overlap eigenvalues          ... 1.000e-08
Number of eigenvalues below threshold      ... 0
Time for construction of square roots      ...    0.230 sec
Total time needed                          ...    0.324 sec

Time for model grid setup =    0.276 sec

------------------------------
INITIAL GUESS: MODEL POTENTIAL
------------------------------
Loading ZORA relativistic densities                ... done
Calculating cut-offs                               ... done
Initializing the effective Hamiltonian             ... done
Setting up the integral package (SHARK)            ... done
Starting the Coulomb interaction                   ... done (   1.5 sec)
Reading the grid                                   ... done
Mapping shells                                     ... done
Starting the XC term evaluation                    ... done (   0.3 sec)
  promolecular density results
     # of electrons  =     48.000880748
     EX              =   -157.738217254
     EC              =     -2.525028102
     EX+EC           =   -160.263245357
Transforming the Hamiltonian                       ... done (   0.0 sec)
Diagonalizing the Hamiltonian                      ... done (   0.0 sec)
Back transforming the eigenvectors                 ... done (   0.0 sec)
Now organizing SCF variables                       ... done
                      ------------------
                      INITIAL GUESS DONE (   2.3 sec)
                      ------------------
-------------------
DFT GRID GENERATION
-------------------

General Integration Accuracy     IntAcc      ... 4.388
Radial Grid Type                 RadialGrid  ... OptM3 with GC (2021)
Angular Grid (max. ang.)         AngularGrid ... 4 (Lebedev-302)
Angular grid pruning method      GridPruning ... 4 (adaptive)
Weight generation scheme         WeightScheme... Becke
Basis function cutoff            BFCut       ... 1.0000e-12
Integration weight cutoff        WCut        ... 1.0000e-14
Angular grids for H and He will be reduced by one unit
Partially contracted basis set               ... off
Rotationally invariant grid construction     ... off

Total number of grid points                  ...    27544
Total number of batches                      ...      431
Average number of points per batch           ...       63
Average number of grid points per atom       ...    27544
Time for grid setup =    0.685 sec

--------------
SCF ITERATIONS
--------------
ITER       Energy         Delta-E        Max-DP      RMS-DP      [F,P]     Damp
               ***  Starting incremental Fock matrix formation  ***
  0  -5692.3524721448   0.000000000000 0.00910184  0.00015101  3.4858227 0.7000
  1  -5692.3674117018  -0.014939556998 0.00378449  0.00007298  2.4120696 0.7000
  2  -5692.3752563697  -0.007844667875 0.00169518  0.00003556  1.6702083 0.7000
  3  -5692.3804728127  -0.005216443020 0.00114072  0.00002270  1.1571870 0.7000
                      *** Initiating the SOSCF procedure ***
                      *** Re-Reading the Fockian *** 
                      *** Removing any level shift *** 
ITER      Energy       Delta-E        Grad      Rot      Max-DP    RMS-DP
  4  -5692.38405689  -0.0035840759  0.003228  0.003228  0.002590  0.000048
               *** Restarting incremental Fock matrix formation ***
  5  -5692.39219810  -0.0081412132  0.006718  0.000830  0.001136  0.000024
  6  -5692.39221860  -0.0000204992  0.001222  0.000947  0.000712  0.000016
  7  -5692.39222890  -0.0000102988  0.001087  0.000182  0.000210  0.000004
  8  -5692.39223141  -0.0000025069  0.000683  0.000090  0.000116  0.000002
  9  -5692.39223221  -0.0000008040  0.000028  0.000036  0.000035  0.000001
 10  -5692.39223222  -0.0000000063  0.000005  0.000007  0.000007  0.000000
 11  -5692.39223222  -0.0000000001  0.000001  0.000001  0.000001  0.000000
                  ***Gradient check signals convergence***
              ***Rediagonalizing the Fockian in SOSCF/NRSCF***

               *****************************************************
               *                     SUCCESS                       *
               *           SCF CONVERGED AFTER  12 CYCLES          *
               *****************************************************


----------------
TOTAL SCF ENERGY
----------------

Total Energy       :        -5692.39223222 Eh         -154897.86749 eV

Components:
Nuclear Repulsion  :            0.00000000 Eh               0.00000 eV
Electronic Energy  :        -5692.39223222 Eh         -154897.86749 eV
One Electron Energy:        -7814.37367921 Eh         -212639.91822 eV
Two Electron Energy:         2121.98144699 Eh           57742.05072 eV

Virial components:
Potential Energy   :       -11623.45287487 Eh         -316290.23261 eV
Kinetic Energy     :         5931.06064265 Eh          161392.36512 eV
Virial Ratio       :            1.95975957


DFT components:
N(Alpha)           :       24.000000000004 electrons
N(Beta)            :       24.000000000004 electrons
N(Total)           :       48.000000000009 electrons
E(X)               :     -153.375134950863 Eh       
E(C)               :       -2.528357093989 Eh       
E(XC)              :     -155.903492044852 Eh       
DFET-embed. en.    :        0.000000000000 Eh       

---------------
SCF CONVERGENCE
---------------

  Last Energy change         ...    8.1855e-12  Tolerance :   1.0000e-09
  Last MAX-Density change    ...    7.3721e-08  Tolerance :   1.0000e-08
  Last RMS-Density change    ...    1.0390e-09  Tolerance :   1.0000e-09
  Last Orbital Gradient      ...    5.4313e-08  Tolerance :   2.0000e-06
  Last Orbital Rotation      ...    5.4754e-08  Tolerance :   2.0000e-06

             **** THE GBW FILE WAS UPDATED (Cd_ugbs_pbe.gbw) ****
             **** DENSITY Cd_ugbs_pbe.scfp WAS UPDATED ****
             **** ENERGY FILE WAS UPDATED (Cd_ugbs_pbe.en.tmp) ****
----------------------
UHF SPIN CONTAMINATION
----------------------

Warning: in a DFT calculation there is little theoretical justification to 
         calculate <S**2> as in Hartree-Fock theory. We will do it anyways
         but you should keep in mind that the values have only limited relevance

Expectation value of <S**2>     :    -0.000000
Ideal value S*(S+1) for S=0.0   :     0.000000
Deviation                       :    -0.000000

             **** THE GBW FILE WAS UPDATED (Cd_ugbs_pbe.gbw) ****
             **** DENSITY Cd_ugbs_pbe.scfp WAS UPDATED ****
----------------
ORBITAL ENERGIES
----------------
                 SPIN UP ORBITALS
  NO   OCC          E(Eh)            E(eV) 
   0   1.0000   -1010.972664    -27509.9648 
   1   1.0000    -146.395373     -3983.6206 
   2   1.0000    -131.185907     -3569.7500 
   3   1.0000    -131.185907     -3569.7500 
   4   1.0000    -131.185907     -3569.7500 
   5   1.0000     -27.163797      -739.1645 
   6   1.0000     -22.221005      -604.6643 
   7   1.0000     -22.221005      -604.6643 
   8   1.0000     -22.221005      -604.6643 
   9   1.0000     -14.507276      -394.7631 
  10   1.0000     -14.507276      -394.7631 
  11   1.0000     -14.507276      -394.7631 
  12   1.0000     -14.507276      -394.7631 
  13   1.0000     -14.507276      -394.7631 
  14   1.0000      -3.918112      -106.6172 
  15   1.0000      -2.472466       -67.2792 
  16   1.0000      -2.472466       -67.2792 
  17   1.0000      -2.472466       -67.2792 
  18   1.0000      -0.428534       -11.6610 
  19   1.0000      -0.428534       -11.6610 
  20   1.0000      -0.428534       -11.6610 
  21   1.0000      -0.428534       -11.6610 
  22   1.0000      -0.428534       -11.6610 
  23   1.0000      -0.208934        -5.6854 
  24   0.0000       0.037857         1.0301 
  25   0.0000       0.162538         4.4229 
  26   0.0000       0.162538         4.4229 
  27   0.0000       0.162538         4.4229 
  28   0.0000       0.258140         7.0244 
  29   0.0000       0.258140         7.0244 
  30   0.0000       0.258140         7.0244 
  31   0.0000       0.258140         7.0244 
  32   0.0000       0.258140         7.0244 
  33   0.0000       0.322329         8.7710 
  34   0.0000       1.024286        27.8722 
  35   0.0000       1.024286        27.8722 
  36   0.0000       1.024286        27.8722 
  37   0.0000       1.024286        27.8722 
  38   0.0000       1.024286        27.8722 
  39   0.0000       1.050470        28.5847 
  40   0.0000       1.799811        48.9754 
  41   0.0000       1.799811        48.9754 
  42   0.0000       1.799811        48.9754 
  43   0.0000       2.777509        75.5799 
  44   0.0000       2.777509        75.5799 
  45   0.0000       2.777509        75.5799 
  46   0.0000       2.777509        75.5799 
  47   0.0000       2.777509        75.5799 
  48   0.0000       2.918412        79.4140 
  49   0.0000       6.090599       165.7336 
  50   0.0000       6.090599       165.7336 
  51   0.0000       6.090599       165.7336 
  52   0.0000       6.723614       182.9588 
  53   0.0000       6.723614       182.9588 
  54   0.0000       6.723614       182.9588 
  55   0.0000       6.723614       182.9588 
  56   0.0000       6.723614       182.9588 
  57   0.0000       7.815928       212.6822 
  58   0.0000      15.798229       429.8917 
  59   0.0000      15.798229       429.8917 
  60   0.0000      15.798229       429.8917 
  61   0.0000      15.798229       429.8917 
  62   0.0000      15.798229       429.8917 
  63   0.0000      17.095670       465.1968 
  64   0.0000      17.095670       465.1968 
  65   0.0000      17.095670       465.1968 
  66   0.0000      21.198248       576.8337 
  67   0.0000      36.955221      1005.6027 
  68   0.0000      36.955221      1005.6027 
  69   0.0000      36.955221      1005.6027 
  70   0.0000      36.955221      1005.6027 
  71   0.0000      36.955221      1005.6027 
  72   0.0000      45.756070      1245.0860 
  73   0.0000      45.756070      1245.0860 
  74   0.0000      45.756070      1245.0860 
  75   0.0000      58.450747      1590.5257 
  76   0.0000      85.743718      2333.2052 
  77   0.0000      85.743718      2333.2052 
  78   0.0000      85.743718      2333.2052 
  79   0.0000      85.743718      2333.2052 
  80   0.0000      85.743718      2333.2052 
  81   0.0000     118.387915      3221.4990 
  82   0.0000     118.387915      3221.4990 
  83   0.0000     118.387915      3221.4990 
  84   0.0000     158.592441      4315.5197 
  85   0.0000     194.895772      5303.3836 
  86   0.0000     194.895772      5303.3836 
  87   0.0000     194.895772      5303.3836 
  88   0.0000     194.895772      5303.3836 
  89   0.0000     194.895772      5303.3836 
  90   0.0000     291.669790      7936.7385 
  91   0.0000     291.669790      7936.7385 
  92   0.0000     291.669790      7936.7385 
  93   0.0000     411.038187     11184.9177 
  94   0.0000     432.544067     11770.1225 
  95   0.0000     432.544067     11770.1225 
  96   0.0000     432.544067     11770.1225 
  97   0.0000     432.544067     11770.1225 
  98   0.0000     432.544067     11770.1225 
  99   0.0000     681.288736     18538.8090 
 100   0.0000     681.288736     18538.8090 
 101   0.0000     681.288736     18538.8090 
 102   0.0000     936.836711     25492.6229 
 103   0.0000     936.836711     25492.6229 
 104   0.0000     936.836711     25492.6229 
 105   0.0000     936.836711     25492.6229 
 106   0.0000     936.836711     25492.6229 
 107   0.0000    1006.130075     27378.1912 
 108   0.0000    1517.276439     41287.1909 
 109   0.0000    1517.276439     41287.1909 
 110   0.0000    1517.276439     41287.1909 
 111   0.0000    1987.702933     54088.1466 
 112   0.0000    1987.702933     54088.1466 
 113   0.0000    1987.702933     54088.1466 
 114   0.0000    1987.702933     54088.1466 
 115   0.0000    1987.702933     54088.1466 
 116   0.0000    2325.823304     63288.8697 
 117   0.0000    3252.688270     88510.1476 
 118   0.0000    3252.688270     88510.1476 
 119   0.0000    3252.688270     88510.1476 
 120   0.0000    4148.032956    112873.7151 
 121   0.0000    4148.032956    112873.7151 
 122   0.0000    4148.032956    112873.7151 
 123   0.0000    4148.032956    112873.7151 
 124   0.0000    4148.032956    112873.7151 
 125   0.0000    5111.384370    139087.8398 
 126   0.0000    6765.332828    184094.0654 
 127   0.0000    6765.332828    184094.0654 
 128   0.0000    6765.332828    184094.0654 
 129   0.0000    8657.947791    235594.7368 
 130   0.0000    8657.947791    235594.7368 
 131   0.0000    8657.947791    235594.7368 
 132   0.0000    8657.947791    235594.7368 
 133   0.0000    8657.947791    235594.7368 
 134   0.0000   10781.055997    293367.4482 
 135   0.0000   13744.248112    374000.0049 
 136   0.0000   13744.248112    374000.0049 
 137   0.0000   13744.248112    374000.0049 
 138   0.0000   18188.071523    494922.5875 
 139   0.0000   18188.071523    494922.5875 
 140   0.0000   18188.071523    494922.5875 
 141   0.0000   18188.071523    494922.5875 
 142   0.0000   18188.071523    494922.5875 
 143   0.0000   22008.517250    598882.2010 
 144   0.0000   27361.632285    744547.8666 
 145   0.0000   27361.632285    744547.8666 
 146   0.0000   27361.632285    744547.8666 
 147   0.0000   43737.309830   1190152.7067 
 148   0.0000   53706.084895   1461416.8670 
 149   0.0000   53706.084895   1461416.8670 
 150   0.0000   53706.084895   1461416.8670 
 151   0.0000   84864.052534   2309268.2704 
 152   0.0000   103534.144169   2817307.2920 
 153   0.0000   103534.144169   2817307.2920 
 154   0.0000   103534.144169   2817307.2920 
 155   0.0000   160951.913864   4379724.2371 
 156   0.0000   201315.950709   5478085.5193 
 157   0.0000   201315.950709   5478085.5193 
 158   0.0000   201315.950709   5478085.5193 
 159   0.0000   298107.775253   8111924.9669 
 160   0.0000   377135.449171   10262377.3011 
 161   0.0000   377135.449171   10262377.3011 
 162   0.0000   377135.449171   10262377.3011 
 163   0.0000   538860.608563   14663142.6188 
 164   0.0000   947673.408273   25787504.4505 
 165   0.0000   1625894.363379   44242834.8898 
 166   0.0000   2694816.403582   73329682.3505 
 167   0.0000   4439387.084868   120801864.0273 
 168   0.0000   6729943.253921   183131066.1427 
 169   0.0000   10906760.913103   296788052.8586 
 170   0.0000   12094674.053088   329112812.7566 

                 SPIN DOWN ORBITALS
  NO   OCC          E(Eh)            E(eV) 
   0   1.0000   -1010.972664    -27509.9648 
   1   1.0000    -146.395373     -3983.6206 
   2   1.0000    -131.185907     -3569.7500 
   3   1.0000    -131.185907     -3569.7500 
   4   1.0000    -131.185907     -3569.7500 
   5   1.0000     -27.163797      -739.1645 
   6   1.0000     -22.221005      -604.6643 
   7   1.0000     -22.221005      -604.6643 
   8   1.0000     -22.221005      -604.6643 
   9   1.0000     -14.507276      -394.7631 
  10   1.0000     -14.507276      -394.7631 
  11   1.0000     -14.507276      -394.7631 
  12   1.0000     -14.507276      -394.7631 
  13   1.0000     -14.507276      -394.7631 
  14   1.0000      -3.918112      -106.6172 
  15   1.0000      -2.472466       -67.2792 
  16   1.0000      -2.472466       -67.2792 
  17   1.0000      -2.472466       -67.2792 
  18   1.0000      -0.428534       -11.6610 
  19   1.0000      -0.428534       -11.6610 
  20   1.0000      -0.428534       -11.6610 
  21   1.0000      -0.428534       -11.6610 
  22   1.0000      -0.428534       -11.6610 
  23   1.0000      -0.208934        -5.6854 
  24   0.0000       0.037857         1.0301 
  25   0.0000       0.162538         4.4229 
  26   0.0000       0.162538         4.4229 
  27   0.0000       0.162538         4.4229 
  28   0.0000       0.258140         7.0244 
  29   0.0000       0.258140         7.0244 
  30   0.0000       0.258140         7.0244 
  31   0.0000       0.258140         7.0244 
  32   0.0000       0.258140         7.0244 
  33   0.0000       0.322329         8.7710 
  34   0.0000       1.024286        27.8722 
  35   0.0000       1.024286        27.8722 
  36   0.0000       1.024286        27.8722 
  37   0.0000       1.024286        27.8722 
  38   0.0000       1.024286        27.8722 
  39   0.0000       1.050470        28.5847 
  40   0.0000       1.799811        48.9754 
  41   0.0000       1.799811        48.9754 
  42   0.0000       1.799811        48.9754 
  43   0.0000       2.777509        75.5799 
  44   0.0000       2.777509        75.5799 
  45   0.0000       2.777509        75.5799 
  46   0.0000       2.777509        75.5799 
  47   0.0000       2.777509        75.5799 
  48   0.0000       2.918412        79.4140 
  49   0.0000       6.090599       165.7336 
  50   0.0000       6.090599       165.7336 
  51   0.0000       6.090599       165.7336 
  52   0.0000       6.723614       182.9588 
  53   0.0000       6.723614       182.9588 
  54   0.0000       6.723614       182.9588 
  55   0.0000       6.723614       182.9588 
  56   0.0000       6.723614       182.9588 
  57   0.0000       7.815928       212.6822 
  58   0.0000      15.798229       429.8917 
  59   0.0000      15.798229       429.8917 
  60   0.0000      15.798229       429.8917 
  61   0.0000      15.798229       429.8917 
  62   0.0000      15.798229       429.8917 
  63   0.0000      17.095670       465.1968 
  64   0.0000      17.095670       465.1968 
  65   0.0000      17.095670       465.1968 
  66   0.0000      21.198248       576.8337 
  67   0.0000      36.955221      1005.6027 
  68   0.0000      36.955221      1005.6027 
  69   0.0000      36.955221      1005.6027 
  70   0.0000      36.955221      1005.6027 
  71   0.0000      36.955221      1005.6027 
  72   0.0000      45.756070      1245.0860 
  73   0.0000      45.756070      1245.0860 
  74   0.0000      45.756070      1245.0860 
  75   0.0000      58.450747      1590.5257 
  76   0.0000      85.743718      2333.2052 
  77   0.0000      85.743718      2333.2052 
  78   0.0000      85.743718      2333.2052 
  79   0.0000      85.743718      2333.2052 
  80   0.0000      85.743718      2333.2052 
  81   0.0000     118.387915      3221.4990 
  82   0.0000     118.387915      3221.4990 
  83   0.0000     118.387915      3221.4990 
  84   0.0000     158.592441      4315.5197 
  85   0.0000     194.895772      5303.3836 
  86   0.0000     194.895772      5303.3836 
  87   0.0000     194.895772      5303.3836 
  88   0.0000     194.895772      5303.3836 
  89   0.0000     194.895772      5303.3836 
  90   0.0000     291.669790      7936.7385 
  91   0.0000     291.669790      7936.7385 
  92   0.0000     291.669790      7936.7385 
  93   0.0000     411.038187     11184.9177 
  94   0.0000     432.544067     11770.1225 
  95   0.0000     432.544067     11770.1225 
  96   0.0000     432.544067     11770.1225 
  97   0.0000     432.544067     11770.1225 
  98   0.0000     432.544067     11770.1225 
  99   0.0000     681.288736     18538.8090 
 100   0.0000     681.288736     18538.8090 
 101   0.0000     681.288736     18538.8090 
 102   0.0000     936.836711     25492.6229 
 103   0.0000     936.836711     25492.6229 
 104   0.0000     936.836711     25492.6229 
 105   0.0000     936.836711     25492.6229 
 106   0.0000     936.836711     25492.6229 
 107   0.0000    1006.130075     27378.1912 
 108   0.0000    1517.276439     41287.1909 
 109   0.0000    1517.276439     41287.1909 
 110   0.0000    1517.276439     41287.1909 
 111   0.0000    1987.702933     54088.1466 
 112   0.0000    1987.702933     54088.1466 
 113   0.0000    1987.702933     54088.1466 
 114   0.0000    1987.702933     54088.1466 
 115   0.0000    1987.702933     54088.1466 
 116   0.0000    2325.823304     63288.8697 
 117   0.0000    3252.688270     88510.1476 
 118   0.0000    3252.688270     88510.1476 
 119   0.0000    3252.688270     88510.1476 
 120   0.0000    4148.032956    112873.7151 
 121   0.0000    4148.032956    112873.7151 
 122   0.0000    4148.032956    112873.7151 
 123   0.0000    4148.032956    112873.7151 
 124   0.0000    4148.032956    112873.7151 
 125   0.0000    5111.384370    139087.8398 
 126   0.0000    6765.332828    184094.0654 
 127   0.0000    6765.332828    184094.0654 
 128   0.0000    6765.332828    184094.0654 
 129   0.0000    8657.947791    235594.7368 
 130   0.0000    8657.947791    235594.7368 
 131   0.0000    8657.947791    235594.7368 
 132   0.0000    8657.947791    235594.7368 
 133   0.0000    8657.947791    235594.7368 
 134   0.0000   10781.055997    293367.4482 
 135   0.0000   13744.248112    374000.0049 
 136   0.0000   13744.248112    374000.0049 
 137   0.0000   13744.248112    374000.0049 
 138   0.0000   18188.071523    494922.5875 
 139   0.0000   18188.071523    494922.5875 
 140   0.0000   18188.071523    494922.5875 
 141   0.0000   18188.071523    494922.5875 
 142   0.0000   18188.071523    494922.5875 
 143   0.0000   22008.517250    598882.2010 
 144   0.0000   27361.632285    744547.8666 
 145   0.0000   27361.632285    744547.8666 
 146   0.0000   27361.632285    744547.8666 
 147   0.0000   43737.309830   1190152.7067 
 148   0.0000   53706.084895   1461416.8670 
 149   0.0000   53706.084895   1461416.8670 
 150   0.0000   53706.084895   1461416.8670 
 151   0.0000   84864.052534   2309268.2704 
 152   0.0000   103534.144169   2817307.2920 
 153   0.0000   103534.144169   2817307.2920 
 154   0.0000   103534.144169   2817307.2920 
 155   0.0000   160951.913864   4379724.2371 
 156   0.0000   201315.950709   5478085.5193 
 157   0.0000   201315.950709   5478085.5193 
 158   0.0000   201315.950709   5478085.5193 
 159   0.0000   298107.775253   8111924.9669 
 160   0.0000   377135.449171   10262377.3011 
 161   0.0000   377135.449171   10262377.3011 
 162   0.0000   377135.449171   10262377.3011 
 163   0.0000   538860.608563   14663142.6188 
 164   0.0000   947673.408273   25787504.4505 
 165   0.0000   1625894.363379   44242834.8898 
 166   0.0000   2694816.403582   73329682.3505 
 167   0.0000   4439387.084868   120801864.0273 
 168   0.0000   6729943.253921   183131066.1427 
 169   0.0000   10906760.913103   296788052.8586 
 170   0.0000   12094674.053088   329112812.7566 

                    ********************************
                    * MULLIKEN POPULATION ANALYSIS *
                    ********************************

--------------------------------------------
MULLIKEN ATOMIC CHARGES AND SPIN POPULATIONS
--------------------------------------------
   0 Cd:   -0.000000   -0.000000
Sum of atomic charges         :   -0.0000000
Sum of atomic spin populations:   -0.0000000

-----------------------------------------------------
MULLIKEN REDUCED ORBITAL CHARGES AND SPIN POPULATIONS
-----------------------------------------------------
CHARGE
  0 Cds       :    10.000000  s :    10.000000
      pz      :     6.000000  p :    18.000000
      px      :     6.000000
      py      :     6.000000
      dz2     :     4.000000  d :    20.000000
      dxz     :     4.000000
      dyz     :     4.000000
      dx2y2   :     4.000000
      dxy     :     4.000000

SPIN
  0 Cds       :    -0.000000  s :    -0.000000
      pz      :     0.000000  p :     0.000000
      px      :     0.000000
      py      :     0.000000
      dz2     :     0.000000  d :    -0.000000
      dxz     :    -0.000000
      dyz     :    -0.000000
      dx2y2   :    -0.000000
      dxy     :    -0.000000


                     *******************************
                     * LOEWDIN POPULATION ANALYSIS *
                     *******************************

-------------------------------------------
LOEWDIN ATOMIC CHARGES AND SPIN POPULATIONS
-------------------------------------------
   0 Cd:    0.000000   -0.000000

----------------------------------------------------
LOEWDIN REDUCED ORBITAL CHARGES AND SPIN POPULATIONS
----------------------------------------------------
CHARGE
  0 Cds       :    10.000000  s :    10.000000
      pz      :     6.000000  p :    18.000000
      px      :     6.000000
      py      :     6.000000
      dz2     :     4.000000  d :    20.000000
      dxz     :     4.000000
      dyz     :     4.000000
      dx2y2   :     4.000000
      dxy     :     4.000000

SPIN
  0 Cds       :    -0.000000  s :    -0.000000
      pz      :     0.000000  p :     0.000000
      px      :     0.000000
      py      :     0.000000
      dz2     :     0.000000  d :    -0.000000
      dxz     :    -0.000000
      dyz     :    -0.000000
      dx2y2   :    -0.000000
      dxy     :    -0.000000


                      *****************************
                      * MAYER POPULATION ANALYSIS *
                      *****************************

  NA   - Mulliken gross atomic population
  ZA   - Total nuclear charge
  QA   - Mulliken gross atomic charge
  VA   - Mayer's total valence
  BVA  - Mayer's bonded valence
  FA   - Mayer's free valence

  ATOM       NA         ZA         QA         VA         BVA        FA
  0 Cd    48.0000    48.0000     0.0000    -0.0000     0.0000    -0.0000

  Mayer bond orders larger than 0.100000


-------
TIMINGS
-------

Total SCF time: 0 days 0 hours 1 min 55 sec 

Total time                  ....     115.846 sec
Sum of individual times     ....      78.426 sec  ( 67.7%)

Fock matrix formation       ....      74.675 sec  ( 64.5%)
  XC integration            ....      35.428 sec  ( 47.4% of F)
    Basis function eval.    ....       0.028 sec  (  0.1% of XC)
    Density eval.           ....       0.206 sec  (  0.6% of XC)
    XC-Functional eval.     ....       0.053 sec  (  0.1% of XC)
    XC-Potential eval.      ....       0.163 sec  (  0.5% of XC)
Diagonalization             ....       0.140 sec  (  0.1%)
Density matrix formation    ....       0.013 sec  (  0.0%)
Population analysis         ....       0.315 sec  (  0.3%)
Initial guess               ....       1.992 sec  (  1.7%)
Orbital Transformation      ....       0.000 sec  (  0.0%)
Orbital Orthonormalization  ....       0.000 sec  (  0.0%)
DIIS solution               ....       0.038 sec  (  0.0%)
SOSCF solution              ....       0.293 sec  (  0.3%)
Grid generation             ....       0.960 sec  (  0.8%)

Maximum memory used throughout the entire SCF-calculation: 229.1 MB

-------------------------   --------------------
FINAL SINGLE POINT ENERGY     -5692.392232217100
-------------------------   --------------------


                            ***************************************
                            *     ORCA property calculations      *
                            ***************************************

                                    ---------------------
                                    Active property flags
                                    ---------------------
   (+) Dipole Moment


------------------------------------------------------------------------------
                       ORCA ELECTRIC PROPERTIES CALCULATION
------------------------------------------------------------------------------

Dipole Moment Calculation                       ... on
Quadrupole Moment Calculation                   ... off
Polarizability Calculation                      ... off
GBWName                                         ... Cd_ugbs_pbe.gbw
Electron density                                ... Cd_ugbs_pbe.scfp
The origin for moment calculation is the CENTER OF MASS  = ( 0.000000,  0.000000  0.000000)

-------------
DIPOLE MOMENT
-------------
                                X             Y             Z
Electronic contribution:      0.00000       0.00000      -0.00000
Nuclear contribution   :      0.00000       0.00000       0.00000
                        -----------------------------------------
Total Dipole Moment    :      0.00000       0.00000      -0.00000
                        -----------------------------------------
Magnitude (a.u.)       :      0.00000
Magnitude (Debye)      :      0.00000



--------------------
Rotational spectrum 
--------------------
 
Rotational constants in cm-1:     0.000000     0.000000     0.000000 
Rotational constants in MHz :     0.000000     0.000000     0.000000 

 Dipole components along the rotational axes: 
x,y,z [a.u.] :     0.000000     0.000000    -0.000000 
x,y,z [Debye]:     0.000000     0.000000    -0.000000 

 

Timings for individual modules:

Sum of individual times         ...      182.293 sec (=   3.038 min)
GTO integral calculation        ...       52.493 sec (=   0.875 min)  28.8 %
Relativistic integrals          ...       11.215 sec (=   0.187 min)   6.2 %
SCF iterations                  ...      118.585 sec (=   1.976 min)  65.1 %
                             ****ORCA TERMINATED NORMALLY****
TOTAL RUN TIME: 0 days 0 hours 3 minutes 12 seconds 672 msec
