
                                 *****************
                                 * O   R   C   A *
                                 *****************

                                            #,                                       
                                            ###                                      
                                            ####                                     
                                            #####                                    
                                            ######                                   
                                           ########,                                 
                                     ,,################,,,,,                         
                               ,,#################################,,                 
                          ,,##########################################,,             
                       ,#########################################, ''#####,          
                    ,#############################################,,   '####,        
                  ,##################################################,,,,####,       
                ,###########''''           ''''###############################       
              ,#####''   ,,,,##########,,,,          '''####'''          '####       
            ,##' ,,,,###########################,,,                        '##       
           ' ,,###''''                  '''############,,,                           
         ,,##''                                '''############,,,,        ,,,,,,###''
      ,#''                                            '''#######################'''  
     '                                                          ''''####''''         
             ,#######,   #######,   ,#######,      ##                                
            ,#'     '#,  ##    ##  ,#'     '#,    #''#        ######   ,####,        
            ##       ##  ##   ,#'  ##            #'  '#       #        #'  '#        
            ##       ##  #######   ##           ,######,      #####,   #    #        
            '#,     ,#'  ##    ##  '#,     ,#' ,#      #,         ##   #,  ,#        
             '#######'   ##     ##  '#######'  #'      '#     #####' # '####'        



                  #######################################################
                  #                        -***-                        #
                  #          Department of theory and spectroscopy      #
                  #    Directorship and core code : Frank Neese         #
                  #        Max Planck Institute fuer Kohlenforschung    #
                  #                Kaiser Wilhelm Platz 1               #
                  #                 D-45470 Muelheim/Ruhr               #
                  #                      Germany                        #
                  #                                                     #
                  #                  All rights reserved                #
                  #                        -***-                        #
                  #######################################################


                         Program Version 5.0.1 -  RELEASE  -


 With contributions from (in alphabetic order):
   Daniel Aravena         : Magnetic Suceptibility
   Michael Atanasov       : Ab Initio Ligand Field Theory (pilot matlab implementation)
   Alexander A. Auer      : GIAO ZORA, VPT2 properties, NMR spectrum
   Ute Becker             : Parallelization
   Giovanni Bistoni       : ED, misc. LED, open-shell LED, HFLD
   Martin Brehm           : Molecular dynamics
   Dmytro Bykov           : SCF Hessian
   Vijay G. Chilkuri      : MRCI spin determinant printing, contributions to CSF-ICE
   Dipayan Datta          : RHF DLPNO-CCSD density
   Achintya Kumar Dutta   : EOM-CC, STEOM-CC
   Dmitry Ganyushin       : Spin-Orbit,Spin-Spin,Magnetic field MRCI
   Miquel Garcia          : C-PCM and meta-GGA Hessian, CC/C-PCM, Gaussian charge scheme
   Yang Guo               : DLPNO-NEVPT2, F12-NEVPT2, CIM, IAO-localization
   Andreas Hansen         : Spin unrestricted coupled pair/coupled cluster methods
   Benjamin Helmich-Paris : MC-RPA, TRAH-SCF, COSX integrals
   Lee Huntington         : MR-EOM, pCC
   Robert Izsak           : Overlap fitted RIJCOSX, COSX-SCS-MP3, EOM
   Marcus Kettner         : VPT2
   Christian Kollmar      : KDIIS, OOCD, Brueckner-CCSD(T), CCSD density, CASPT2, CASPT2-K
   Simone Kossmann        : Meta GGA functionals, TD-DFT gradient, OOMP2, MP2 Hessian
   Martin Krupicka        : Initial AUTO-CI
   Lucas Lang             : DCDCAS
   Marvin Lechner         : AUTO-CI (C++ implementation), FIC-MRCC
   Dagmar Lenk            : GEPOL surface, SMD
   Dimitrios Liakos       : Extrapolation schemes; Compound Job, initial MDCI parallelization
   Dimitrios Manganas     : Further ROCIS development; embedding schemes
   Dimitrios Pantazis     : SARC Basis sets
   Anastasios Papadopoulos: AUTO-CI, single reference methods and gradients
   Taras Petrenko         : DFT Hessian,TD-DFT gradient, ASA, ECA, R-Raman, ABS, FL, XAS/XES, NRVS
   Peter Pinski           : DLPNO-MP2, DLPNO-MP2 Gradient
   Christoph Reimann      : Effective Core Potentials
   Marius Retegan         : Local ZFS, SOC
   Christoph Riplinger    : Optimizer, TS searches, QM/MM, DLPNO-CCSD(T), (RO)-DLPNO pert. Triples
   Tobias Risthaus        : Range-separated hybrids, TD-DFT gradient, RPA, STAB
   Michael Roemelt        : Original ROCIS implementation
   Masaaki Saitow         : Open-shell DLPNO-CCSD energy and density
   Barbara Sandhoefer     : DKH picture change effects
   Avijit Sen             : IP-ROCIS
   Kantharuban Sivalingam : CASSCF convergence, NEVPT2, FIC-MRCI
   Bernardo de Souza      : ESD, SOC TD-DFT
   Georgi Stoychev        : AutoAux, RI-MP2 NMR, DLPNO-MP2 response
   Willem Van den Heuvel  : Paramagnetic NMR
   Boris Wezisla          : Elementary symmetry handling
   Frank Wennmohs         : Technical directorship


 We gratefully acknowledge several colleagues who have allowed us to
 interface, adapt or use parts of their codes:
   Stefan Grimme, W. Hujo, H. Kruse, P. Pracht,  : VdW corrections, initial TS optimization,
                  C. Bannwarth, S. Ehlert          DFT functionals, gCP, sTDA/sTD-DF
   Ed Valeev, F. Pavosevic, A. Kumar             : LibInt (2-el integral package), F12 methods
   Garnet Chan, S. Sharma, J. Yang, R. Olivares  : DMRG
   Ulf Ekstrom                                   : XCFun DFT Library
   Mihaly Kallay                                 : mrcc  (arbitrary order and MRCC methods)
   Jiri Pittner, Ondrej Demel                    : Mk-CCSD
   Frank Weinhold                                : gennbo (NPA and NBO analysis)
   Christopher J. Cramer and Donald G. Truhlar   : smd solvation model
   Lars Goerigk                                  : TD-DFT with DH, B97 family of functionals
   V. Asgeirsson, H. Jonsson                     : NEB implementation
   FAccTs GmbH                                   : IRC, NEB, NEB-TS, DLPNO-Multilevel, CI-OPT
                                                   MM, QMMM, 2- and 3-layer-ONIOM, Crystal-QMMM,
                                                   LR-CPCM, SF, NACMEs, symmetry and pop. for TD-DFT,
                                                   nearIR, NL-DFT gradient (VV10), updates on ESD,
                                                   ML-optimized integration grids
   S Lehtola, MJT Oliveira, MAL Marques          : LibXC Library
   Liviu Ungur et al                             : ANISO software


 Your calculation uses the libint2 library for the computation of 2-el integrals
 For citations please refer to: http://libint.valeyev.net

 Your ORCA version has been built with support for libXC version: 5.1.0
 For citations please refer to: https://tddft.org/programs/libxc/

 This ORCA versions uses:
   CBLAS   interface :  Fast vector & matrix operations
   LAPACKE interface :  Fast linear algebra routines
   SCALAPACK package :  Parallel linear algebra routines
   Shared memory     :  Shared parallel matrices
   BLAS/LAPACK       :  OpenBLAS 0.3.15  USE64BITINT DYNAMIC_ARCH NO_AFFINITY Haswell SINGLE_THREADED
        Core in use  :  Haswell
   Copyright (c) 2011-2014, The OpenBLAS Project


SCAN-COORDS

Reading of a custom basis requested
Basis file         : In_ugbs.basis
READING GTO-BASIS: INDIUM
Basis successfully read

================================================================================

----- Orbital basis set information -----
================================================================================
                                        WARNINGS
                       Please study these warnings very carefully!
================================================================================


INFO   : the flag for use of the SHARK integral package has been found!

================================================================================
                                       INPUT FILE
================================================================================
NAME = In_ugbs_pbe.inp
|  1> !uks pbe nori verytightscf soscf notrah
|  2> 
|  3> %pal
|  4>   nprocs 32
|  5> end
|  6> %coords
|  7>   charge 0
|  8>   mult 2
|  9>   units bohrs
| 10>   coords
| 11>     In 0.0 0.0 0.0
| 12>   end
| 13> end
| 14> %basis
| 15>   gtoname "In_ugbs.basis"
| 16>   delECP In
| 17> end
| 18> %rel
| 19>   method zora
| 20>   modelpot 1, 0, 0, 0
| 21>   c 137.035999084
| 22> endd                         ****END OF INPUT****
================================================================================

                       ****************************
                       * Single Point Calculation *
                       ****************************

---------------------------------
CARTESIAN COORDINATES (ANGSTROEM)
---------------------------------
  In     0.000000    0.000000    0.000000

----------------------------
CARTESIAN COORDINATES (A.U.)
----------------------------
  NO LB      ZA    FRAG     MASS         X           Y           Z
   0 In   49.0000    0   114.820    0.000000    0.000000    0.000000

--------------------------------
INTERNAL COORDINATES (ANGSTROEM)
--------------------------------
 In     0   0   0     0.000000000000     0.00000000     0.00000000

---------------------------
INTERNAL COORDINATES (A.U.)
---------------------------
 In     0   0   0     0.000000000000     0.00000000     0.00000000

---------------------
BASIS SET INFORMATION
---------------------
There are 1 groups of distinct atoms

 Group   1 Type In  : 30s22p16d contracted to 30s22p16d pattern {111111111111111111111111111111/1111111111111111111111/1111111111111111}

Atom   0In   basis set group =>   1


           ************************************************************
           *        Program running with 32 parallel MPI-processes    *
           *              working on a common directory               *
           ************************************************************
------------------------------------------------------------------------------
                           ORCA GTO INTEGRAL CALCULATION
------------------------------------------------------------------------------
------------------------------------------------------------------------------
                   ___                                                        
                  /   \      - P O W E R E D   B Y -                         
                 /     \                                                     
                 |  |  |   _    _      __       _____    __    __             
                 |  |  |  | |  | |    /  \     |  _  \  |  |  /  |          
                  \  \/   | |  | |   /    \    | | | |  |  | /  /          
                 / \  \   | |__| |  /  /\  \   | |_| |  |  |/  /          
                |  |  |   |  __  | /  /__\  \  |    /   |      \           
                |  |  |   | |  | | |   __   |  |    \   |  |\   \          
                \     /   | |  | | |  |  |  |  | |\  \  |  | \   \       
                 \___/    |_|  |_| |__|  |__|  |_| \__\ |__|  \__/        
                                                                              
                      - O R C A' S   B I G   F R I E N D -                    
                                      &                                       
                       - I N T E G R A L  F E E D E R -                       
                                                                              
 v1 FN, 2020, v2 2021                                                         
------------------------------------------------------------------------------


Reading SHARK input file In_ugbs_pbe.SHARKINP.tmp ... ok
----------------------
SHARK INTEGRAL PACKAGE
----------------------

Number of atoms                             ...      1
Number of basis functions                   ...    176
Number of shells                            ...     68
Maximum angular momentum                    ...      2
Integral batch strategy                     ... SHARK/LIBINT Hybrid
RI-J (if used) integral strategy            ... SPLIT-RIJ (Revised 2003 algorithm where possible)
Printlevel                                  ...      1
Contraction scheme used                     ... SEGMENTED contraction
Coulomb Range Separation                    ... NOT USED
Exchange Range Separation                   ... NOT USED
Finite Nucleus Model                        ... NOT USED
Auxiliary Coulomb fitting basis             ... NOT available
Auxiliary J/K fitting basis                 ... NOT available
Auxiliary Correlation fitting basis         ... NOT available
Auxiliary 'external' fitting basis          ... NOT available
Integral threshold                          ...     1.000000e-12
Primitive cut-off                           ...     1.000000e-14
Primitive pair pre-selection threshold      ...     1.000000e-14

Calculating pre-screening integrals         ... done (  0.1 sec) Dimension = 68
Organizing shell pair data                  ... done (  0.1 sec)
Shell pair information
Total number of shell pairs                 ...      2346
Shell pairs after pre-screening             ...      2346
Total number of primitive shell pairs       ...      2346
Primitive shell pairs kept                  ...      2346
          la=0 lb=0:    465 shell pairs
          la=1 lb=0:    660 shell pairs
          la=1 lb=1:    253 shell pairs
          la=2 lb=0:    480 shell pairs
          la=2 lb=1:    352 shell pairs
          la=2 lb=2:    136 shell pairs

Calculating one electron integrals          ... done (  0.0 sec)
Calculating Nuclear repulsion               ... done (  0.0 sec) ENN=      0.000000000000 Eh

SHARK setup successfully completed in  18.9 seconds

Maximum memory used throughout the entire GTOINT-calculation: 6.0 MB


           ************************************************************
           *        Program running with 32 parallel MPI-processes    *
           *              working on a common directory               *
           ************************************************************
------------------------------------------------------------------------------
                          ORCA RELATIVISTIC HAMILTONIAN
------------------------------------------------------------------------------

Relativistic Method            ... ZORA(MP)
Treatment of potential         ... Van Wuellen
Nucleus model                  ... Point Nucleus
Speed of light used            ... 137.03599908400000


            *************************************************
            *         ZERO ORDER REGULAR APPROXIMATION      *
            *                     ZORA(MP)                  *
            *            Programmed by FN according to      *
            *                   C. van Wuellen              *
            *       J. Chem. Phys. (1998) vol 109, 392-399  *
            *************************************************

Terms included in model potential: +V(e,N)
Basis function cutoff value   ... 1.000000e-12
Loading the fitted atomic densities  (DKH4)  ... done
Calculating the cutoffs                      ... done
Number of fit functions                      ... 29
Setting up the integration grid ... done

Maximum memory used throughout the entire REL-calculation: 10.5 MB


           ************************************************************
           *        Program running with 32 parallel MPI-processes    *
           *              working on a common directory               *
           ************************************************************
-------------------------------------------------------------------------------
                                 ORCA SCF
-------------------------------------------------------------------------------

------------
SCF SETTINGS
------------
Hamiltonian:
 Density Functional     Method          .... DFT(GTOs)
 Exchange Functional    Exchange        .... PBE
   PBE kappa parameter   XKappa         ....  0.804000
   PBE mue parameter    XMuePBE         ....  0.219520
 Correlation Functional Correlation     .... PBE
   PBE beta parameter  CBetaPBE         ....  0.066725
 LDA part of GGA corr.  LDAOpt          .... PW91-LDA
 Gradients option       PostSCFGGA      .... off
   Density functional embedding theory  .... OFF
   NL short-range parameter             ....  6.400000

Relativistic Settings:
 Scalar relativistic method             .... ZORA
 Speed of light used       Velit        ....       137.035999
Orbital energies will be scaled


General Settings:
 Integral files         IntName         .... In_ugbs_pbe
 Hartree-Fock type      HFTyp           .... UHF
 Total Charge           Charge          ....    0
 Multiplicity           Mult            ....    2
 Number of Electrons    NEL             ....   49
 Basis Dimension        Dim             ....  176
 Nuclear Repulsion      ENuc            ....      0.0000000000 Eh

Convergence Acceleration:
 DIIS                   CNVDIIS         .... on
   Start iteration      DIISMaxIt       ....    12
   Startup error        DIISStart       ....  0.200000
   # of expansion vecs  DIISMaxEq       ....     5
   Bias factor          DIISBfac        ....   1.050
   Max. coefficient     DIISMaxC        ....  10.000
 Trust-Rad. Augm. Hess. CNVTRAH         .... off
 SOSCF                  CNVSOSCF        .... on
   Start iteration      SOSCFMaxIt      ....   150
   Startup grad/error   SOSCFStart      ....  0.003300
 Level Shifting         CNVShift        .... on
   Level shift para.    LevelShift      ....    0.2500
   Turn off err/grad.   ShiftErr        ....    0.0010
 Zerner damping         CNVZerner       .... off
 Static damping         CNVDamp         .... on
   Fraction old density DampFac         ....    0.7000
   Max. Damping (<1)    DampMax         ....    0.9800
   Min. Damping (>=0)   DampMin         ....    0.0000
   Turn off err/grad.   DampErr         ....    0.1000
 Fernandez-Rico         CNVRico         .... off

SCF Procedure:
 Maximum # iterations   MaxIter         ....   125
 SCF integral mode      SCFMode         .... Direct
   Integral package                     .... SHARK and LIBINT hybrid scheme
 Reset frequency        DirectResetFreq ....    20
 Integral Threshold     Thresh          ....  1.000e-12 Eh
 Primitive CutOff       TCut            ....  1.000e-14 Eh

Convergence Tolerance:
 Convergence Check Mode ConvCheckMode   .... Total+1el-Energy
 Convergence forced     ConvForced      .... 0
 Energy Change          TolE            ....  1.000e-09 Eh
 1-El. energy change                    ....  1.000e-06 Eh
 Orbital Gradient       TolG            ....  2.000e-06
 Orbital Rotation angle TolX            ....  2.000e-06
 DIIS Error             TolErr          ....  1.000e-08


Diagonalization of the overlap matrix:
Smallest eigenvalue                        ... 6.125e-05
Time for diagonalization                   ...    1.217 sec
Threshold for overlap eigenvalues          ... 1.000e-08
Number of eigenvalues below threshold      ... 0
Time for construction of square roots      ...    3.196 sec
Total time needed                          ...    4.414 sec

Time for model grid setup =    0.719 sec

------------------------------
INITIAL GUESS: MODEL POTENTIAL
------------------------------
Loading ZORA relativistic densities                ... done
Calculating cut-offs                               ... done
Initializing the effective Hamiltonian             ... done
Setting up the integral package (SHARK)            ... done
Starting the Coulomb interaction                   ... done (  14.6 sec)
Reading the grid                                   ... done
Mapping shells                                     ... done
Starting the XC term evaluation                    ... done (   0.8 sec)
  promolecular density results
     # of electrons  =     49.000177795
     EX              =   -163.582391738
     EC              =     -2.578574984
     EX+EC           =   -166.160966722
Transforming the Hamiltonian                       ... done (   0.0 sec)
Diagonalizing the Hamiltonian                      ... done (   0.1 sec)
Back transforming the eigenvectors                 ... done (   0.0 sec)
Now organizing SCF variables                       ... done
                      ------------------
                      INITIAL GUESS DONE (  17.5 sec)
                      ------------------
-------------------
DFT GRID GENERATION
-------------------

General Integration Accuracy     IntAcc      ... 4.388
Radial Grid Type                 RadialGrid  ... OptM3 with GC (2021)
Angular Grid (max. ang.)         AngularGrid ... 4 (Lebedev-302)
Angular grid pruning method      GridPruning ... 4 (adaptive)
Weight generation scheme         WeightScheme... Becke
Basis function cutoff            BFCut       ... 1.0000e-12
Integration weight cutoff        WCut        ... 1.0000e-14
Angular grids for H and He will be reduced by one unit
Partially contracted basis set               ... off
Rotationally invariant grid construction     ... off

Total number of grid points                  ...    27544
Total number of batches                      ...      431
Average number of points per batch           ...       63
Average number of grid points per atom       ...    27544
Time for grid setup =    5.050 sec

--------------
SCF ITERATIONS
--------------
ITER       Energy         Delta-E        Max-DP      RMS-DP      [F,P]     Damp
               ***  Starting incremental Fock matrix formation  ***
  0  -5988.3272817830   0.000000000000 0.01062269  0.00017025  3.9647957 0.7000
  1  -5988.3450251205  -0.017743337496 0.00661352  0.00009680  2.7440873 0.7000
  2  -5988.3547649119  -0.009739791361 0.00492683  0.00005947  1.9004104 0.7000
  3  -5988.3611718313  -0.006406919422 0.00374807  0.00004235  1.3168497 0.7000
  4  -5988.3655576232  -0.004385791948 0.00274432  0.00003047  0.9128332 0.7000
                      *** Initiating the SOSCF procedure ***
                      *** Re-Reading the Fockian *** 
                      *** Removing any level shift *** 
ITER      Energy       Delta-E        Grad      Rot      Max-DP    RMS-DP
  5  -5988.36858831  -0.0030306841  0.002325  0.002325  0.006696  0.000072
               *** Restarting incremental Fock matrix formation ***
  6  -5988.37556123  -0.0069729250  0.005019  0.001455  0.001779  0.000016
  7  -5988.37557328  -0.0000120458  0.000961  0.000496  0.000580  0.000008
  8  -5988.37557520  -0.0000019266  0.000237  0.000160  0.000173  0.000002
  9  -5988.37557527  -0.0000000654  0.000270  0.000017  0.000038  0.000001
 10  -5988.37557544  -0.0000001687  0.000009  0.000021  0.000027  0.000000
 11  -5988.37557544  -0.0000000003  0.000003  0.000005  0.000007  0.000000
                  ***Gradient check signals convergence***
              ***Rediagonalizing the Fockian in SOSCF/NRSCF***

               *****************************************************
               *                     SUCCESS                       *
               *           SCF CONVERGED AFTER  12 CYCLES          *
               *****************************************************


----------------
TOTAL SCF ENERGY
----------------

Total Energy       :        -5988.37557544 Eh         -162951.98373 eV

Components:
Nuclear Repulsion  :            0.00000000 Eh               0.00000 eV
Electronic Energy  :        -5988.37557544 Eh         -162951.98373 eV
One Electron Energy:        -8209.96386509 Eh         -223404.47443 eV
Two Electron Energy:         2221.58828965 Eh           60452.49071 eV

Virial components:
Potential Energy   :       -12238.47222422 Eh         -333025.75992 eV
Kinetic Energy     :         6250.09664878 Eh          170073.77620 eV
Virial Ratio       :            1.95812528


DFT components:
N(Alpha)           :       25.000000000032 electrons
N(Beta)            :       24.000000000050 electrons
N(Total)           :       49.000000000082 electrons
E(X)               :     -158.653090892558 Eh       
E(C)               :       -2.582162538140 Eh       
E(XC)              :     -161.235253430698 Eh       
DFET-embed. en.    :        0.000000000000 Eh       

---------------
SCF CONVERGENCE
---------------

  Last Energy change         ...   -1.1096e-10  Tolerance :   1.0000e-09
  Last MAX-Density change    ...    2.0007e-07  Tolerance :   1.0000e-08
  Last RMS-Density change    ...    2.0847e-09  Tolerance :   1.0000e-09
  Last Orbital Gradient      ...    1.8107e-07  Tolerance :   2.0000e-06
  Last Orbital Rotation      ...    1.3501e-07  Tolerance :   2.0000e-06

             **** THE GBW FILE WAS UPDATED (In_ugbs_pbe.gbw) ****
             **** DENSITY In_ugbs_pbe.scfp WAS UPDATED ****
             **** ENERGY FILE WAS UPDATED (In_ugbs_pbe.en.tmp) ****
----------------------
UHF SPIN CONTAMINATION
----------------------

Warning: in a DFT calculation there is little theoretical justification to 
         calculate <S**2> as in Hartree-Fock theory. We will do it anyways
         but you should keep in mind that the values have only limited relevance

Expectation value of <S**2>     :     0.751674
Ideal value S*(S+1) for S=0.5   :     0.750000
Deviation                       :     0.001674

             **** THE GBW FILE WAS UPDATED (In_ugbs_pbe.gbw) ****
             **** DENSITY In_ugbs_pbe.scfp WAS UPDATED ****
----------------
ORBITAL ENERGIES
----------------
                 SPIN UP ORBITALS
  NO   OCC          E(Eh)            E(eV) 
   0   1.0000   -1059.446600    -28829.0076 
   1   1.0000    -154.551768     -4205.5674 
   2   1.0000    -138.530575     -3769.6086 
   3   1.0000    -138.530575     -3769.6086 
   4   1.0000    -138.529333     -3769.5748 
   5   1.0000     -29.189051      -794.2744 
   6   1.0000     -23.994102      -652.9127 
   7   1.0000     -23.994102      -652.9127 
   8   1.0000     -23.990378      -652.8114 
   9   1.0000     -15.950443      -434.0336 
  10   1.0000     -15.950443      -434.0336 
  11   1.0000     -15.947945      -433.9657 
  12   1.0000     -15.947945      -433.9657 
  13   1.0000     -15.947108      -433.9429 
  14   1.0000      -4.424942      -120.4088 
  15   1.0000      -2.886354       -78.5417 
  16   1.0000      -2.886354       -78.5417 
  17   1.0000      -2.876531       -78.2744 
  18   1.0000      -0.686512       -18.6809 
  19   1.0000      -0.686512       -18.6809 
  20   1.0000      -0.678562       -18.4646 
  21   1.0000      -0.678562       -18.4646 
  22   1.0000      -0.675613       -18.3844 
  23   1.0000      -0.309076        -8.4104 
  24   1.0000      -0.103166        -2.8073 
  25   0.0000      -0.096180        -2.6172 
  26   0.0000      -0.096180        -2.6172 
  27   0.0000       0.009543         0.2597 
  28   0.0000       0.056692         1.5427 
  29   0.0000       0.061884         1.6840 
  30   0.0000       0.061885         1.6840 
  31   0.0000       0.196034         5.3343 
  32   0.0000       0.196034         5.3343 
  33   0.0000       0.198530         5.4023 
  34   0.0000       0.207575         5.6484 
  35   0.0000       0.207575         5.6484 
  36   0.0000       0.269401         7.3308 
  37   0.0000       0.328581         8.9411 
  38   0.0000       0.333431         9.0731 
  39   0.0000       0.333432         9.0732 
  40   0.0000       0.918324        24.9889 
  41   0.0000       0.918324        24.9889 
  42   0.0000       0.920512        25.0484 
  43   0.0000       0.921904        25.0863 
  44   0.0000       0.921904        25.0863 
  45   0.0000       0.952132        25.9088 
  46   0.0000       0.987890        26.8818 
  47   0.0000       0.992014        26.9941 
  48   0.0000       0.992015        26.9941 
  49   0.0000       2.602023        70.8046 
  50   0.0000       2.602023        70.8046 
  51   0.0000       2.603762        70.8520 
  52   0.0000       2.603762        70.8520 
  53   0.0000       2.607258        70.9471 
  54   0.0000       2.612338        71.0853 
  55   0.0000       2.612338        71.0853 
  56   0.0000       2.614762        71.1513 
  57   0.0000       2.728272        74.2400 
  58   0.0000       6.426451       174.8726 
  59   0.0000       6.426451       174.8726 
  60   0.0000       6.432331       175.0326 
  61   0.0000       6.432331       175.0326 
  62   0.0000       6.435437       175.1171 
  63   0.0000       6.696391       182.2181 
  64   0.0000       6.696392       182.2181 
  65   0.0000       6.705231       182.4586 
  66   0.0000       7.432207       202.2406 
  67   0.0000      15.278342       415.7448 
  68   0.0000      15.278342       415.7448 
  69   0.0000      15.284523       415.9130 
  70   0.0000      15.284523       415.9130 
  71   0.0000      15.286975       415.9797 
  72   0.0000      17.265420       469.8160 
  73   0.0000      17.265420       469.8160 
  74   0.0000      17.273970       470.0486 
  75   0.0000      20.344747       553.6087 
  76   0.0000      36.020290       980.1619 
  77   0.0000      36.020290       980.1619 
  78   0.0000      36.024881       980.2869 
  79   0.0000      36.024881       980.2869 
  80   0.0000      36.026538       980.3319 
  81   0.0000      45.067282      1226.3431 
  82   0.0000      45.067282      1226.3431 
  83   0.0000      45.073061      1226.5003 
  84   0.0000      56.478047      1536.8458 
  85   0.0000      84.106644      2288.6581 
  86   0.0000      84.106644      2288.6581 
  87   0.0000      84.109825      2288.7447 
  88   0.0000      84.109825      2288.7447 
  89   0.0000      84.110929      2288.7747 
  90   0.0000     116.182996      3161.5001 
  91   0.0000     116.182996      3161.5001 
  92   0.0000     116.186838      3161.6046 
  93   0.0000     154.310322      4198.9973 
  94   0.0000     192.129791      5228.1174 
  95   0.0000     192.129791      5228.1174 
  96   0.0000     192.131908      5228.1750 
  97   0.0000     192.131908      5228.1750 
  98   0.0000     192.132629      5228.1946 
  99   0.0000     287.059589      7811.2885 
 100   0.0000     287.059589      7811.2885 
 101   0.0000     287.062030      7811.3550 
 102   0.0000     402.418757     10950.3711 
 103   0.0000     427.980632     11645.9451 
 104   0.0000     427.980632     11645.9451 
 105   0.0000     427.982064     11645.9840 
 106   0.0000     427.982064     11645.9840 
 107   0.0000     427.982544     11645.9971 
 108   0.0000     673.023808     18313.9089 
 109   0.0000     673.023808     18313.9089 
 110   0.0000     673.025403     18313.9523 
 111   0.0000     929.397743     25290.1983 
 112   0.0000     929.397743     25290.1983 
 113   0.0000     929.398691     25290.2241 
 114   0.0000     929.398691     25290.2241 
 115   0.0000     929.399007     25290.2327 
 116   0.0000     990.042422     26940.4239 
 117   0.0000    1503.747610     40919.0528 
 118   0.0000    1503.747610     40919.0528 
 119   0.0000    1503.748634     40919.0806 
 120   0.0000    1975.615393     53759.2279 
 121   0.0000    1975.615393     53759.2279 
 122   0.0000    1975.615894     53759.2415 
 123   0.0000    1975.615894     53759.2415 
 124   0.0000    1975.616061     53759.2461 
 125   0.0000    2297.775287     62525.6443 
 126   0.0000    3230.856498     87916.0749 
 127   0.0000    3230.856498     87916.0749 
 128   0.0000    3230.856924     87916.0865 
 129   0.0000    4127.925766    112326.5707 
 130   0.0000    4127.925766    112326.5707 
 131   0.0000    4127.925990    112326.5768 
 132   0.0000    4127.925990    112326.5768 
 133   0.0000    4127.926064    112326.5788 
 134   0.0000    5064.580680    137814.2467 
 135   0.0000    6735.809307    183290.6896 
 136   0.0000    6735.809307    183290.6896 
 137   0.0000    6735.809415    183290.6925 
 138   0.0000    8623.506994    234657.5551 
 139   0.0000    8623.506994    234657.5551 
 140   0.0000    8623.507030    234657.5561 
 141   0.0000    8623.507030    234657.5561 
 142   0.0000    8623.507042    234657.5564 
 143   0.0000   10702.830908    291238.8353 
 144   0.0000   13700.714453    372815.3938 
 145   0.0000   13700.714453    372815.3938 
 146   0.0000   13700.714490    372815.3949 
 147   0.0000   18114.336021    492916.1425 
 148   0.0000   18114.336021    492916.1425 
 149   0.0000   18114.336074    492916.1439 
 150   0.0000   18114.336074    492916.1439 
 151   0.0000   18114.336092    492916.1444 
 152   0.0000   21874.459628    595234.3076 
 153   0.0000   27413.291222    745953.5777 
 154   0.0000   27413.291222    745953.5777 
 155   0.0000   27413.291283    745953.5793 
 156   0.0000   43491.081963   1183452.5058 
 157   0.0000   53852.897912   1465411.8523 
 158   0.0000   53852.897912   1465411.8523 
 159   0.0000   53852.897979   1465411.8541 
 160   0.0000   84396.983549   2296558.6772 
 161   0.0000   106727.509288   2904203.1746 
 162   0.0000   106727.509288   2904203.1746 
 163   0.0000   106727.509341   2904203.1760 
 164   0.0000   159979.659826   4353267.8597 
 165   0.0000   205288.598292   5586186.7558 
 166   0.0000   205288.598292   5586186.7558 
 167   0.0000   205288.598322   5586186.7566 
 168   0.0000   296210.708858   8060303.1659 
 169   0.0000   534569.900196   14546386.5083 
 170   0.0000   940924.902572   25603868.2745 
 171   0.0000   1606497.332311   43715014.8406 
 172   0.0000   2694495.618175   73320953.3358 
 173   0.0000   4320364.648369   117563098.8746 
 174   0.0000   7243908.734129   197116777.8790 
 175   0.0000   10384728.128100   282582818.5985 

                 SPIN DOWN ORBITALS
  NO   OCC          E(Eh)            E(eV) 
   0   1.0000   -1059.446229    -28828.9975 
   1   1.0000    -154.551743     -4205.5667 
   2   1.0000    -138.530518     -3769.6070 
   3   1.0000    -138.530518     -3769.6070 
   4   1.0000    -138.528793     -3769.5601 
   5   1.0000     -29.188771      -794.2668 
   6   1.0000     -23.994015      -652.9103 
   7   1.0000     -23.994015      -652.9103 
   8   1.0000     -23.989589      -652.7899 
   9   1.0000     -15.950504      -434.0353 
  10   1.0000     -15.950504      -434.0353 
  11   1.0000     -15.947520      -433.9541 
  12   1.0000     -15.947520      -433.9541 
  13   1.0000     -15.946514      -433.9267 
  14   1.0000      -4.424399      -120.3940 
  15   1.0000      -2.886287       -78.5399 
  16   1.0000      -2.886287       -78.5399 
  17   1.0000      -2.874797       -78.2272 
  18   1.0000      -0.686115       -18.6701 
  19   1.0000      -0.686115       -18.6701 
  20   1.0000      -0.675014       -18.3681 
  21   1.0000      -0.675014       -18.3681 
  22   1.0000      -0.671532       -18.2733 
  23   1.0000      -0.291033        -7.9194 
  24   0.0000      -0.084617        -2.3026 
  25   0.0000      -0.084617        -2.3026 
  26   0.0000      -0.062186        -1.6922 
  27   0.0000       0.030066         0.8181 
  28   0.0000       0.078041         2.1236 
  29   0.0000       0.078041         2.1236 
  30   0.0000       0.089996         2.4489 
  31   0.0000       0.214166         5.8277 
  32   0.0000       0.214166         5.8277 
  33   0.0000       0.228163         6.2086 
  34   0.0000       0.228163         6.2086 
  35   0.0000       0.233916         6.3652 
  36   0.0000       0.288692         7.8557 
  37   0.0000       0.344691         9.3795 
  38   0.0000       0.344691         9.3795 
  39   0.0000       0.359915         9.7938 
  40   0.0000       0.927090        25.2274 
  41   0.0000       0.927090        25.2274 
  42   0.0000       0.944344        25.6969 
  43   0.0000       0.944344        25.6969 
  44   0.0000       0.950026        25.8515 
  45   0.0000       0.971468        26.4350 
  46   0.0000       1.002528        27.2802 
  47   0.0000       1.002528        27.2802 
  48   0.0000       1.022740        27.8302 
  49   0.0000       2.605705        70.9048 
  50   0.0000       2.605705        70.9048 
  51   0.0000       2.619778        71.2878 
  52   0.0000       2.619778        71.2878 
  53   0.0000       2.622609        71.3648 
  54   0.0000       2.622609        71.3648 
  55   0.0000       2.628628        71.5286 
  56   0.0000       2.642996        71.9196 
  57   0.0000       2.742099        74.6163 
  58   0.0000       6.428073       174.9168 
  59   0.0000       6.428073       174.9168 
  60   0.0000       6.441628       175.2856 
  61   0.0000       6.441628       175.2856 
  62   0.0000       6.446238       175.4110 
  63   0.0000       6.699752       182.3095 
  64   0.0000       6.699752       182.3095 
  65   0.0000       6.718859       182.8294 
  66   0.0000       7.438294       202.4063 
  67   0.0000      15.278755       415.7561 
  68   0.0000      15.278755       415.7561 
  69   0.0000      15.287948       416.0062 
  70   0.0000      15.287948       416.0062 
  71   0.0000      15.291051       416.0906 
  72   0.0000      17.266417       469.8431 
  73   0.0000      17.266417       469.8431 
  74   0.0000      17.278839       470.1811 
  75   0.0000      20.346721       553.6624 
  76   0.0000      36.020312       980.1625 
  77   0.0000      36.020312       980.1625 
  78   0.0000      36.026317       980.3259 
  79   0.0000      36.026317       980.3259 
  80   0.0000      36.028343       980.3810 
  81   0.0000      45.067626      1226.3524 
  82   0.0000      45.067626      1226.3524 
  83   0.0000      45.075387      1226.5636 
  84   0.0000      56.479008      1536.8719 
  85   0.0000      84.106612      2288.6573 
  86   0.0000      84.106612      2288.6573 
  87   0.0000      84.110506      2288.7632 
  88   0.0000      84.110506      2288.7632 
  89   0.0000      84.111819      2288.7990 
  90   0.0000     116.183121      3161.5035 
  91   0.0000     116.183121      3161.5035 
  92   0.0000     116.187944      3161.6347 
  93   0.0000     154.310747      4199.0089 
  94   0.0000     192.129769      5228.1168 
  95   0.0000     192.129769      5228.1168 
  96   0.0000     192.132452      5228.1898 
  97   0.0000     192.132452      5228.1898 
  98   0.0000     192.133356      5228.2144 
  99   0.0000     287.059654      7811.2903 
 100   0.0000     287.059654      7811.2903 
 101   0.0000     287.062836      7811.3769 
 102   0.0000     402.419008     10950.3779 
 103   0.0000     427.980584     11645.9438 
 104   0.0000     427.980584     11645.9438 
 105   0.0000     427.982506     11645.9961 
 106   0.0000     427.982506     11645.9961 
 107   0.0000     427.983153     11646.0137 
 108   0.0000     673.023842     18313.9098 
 109   0.0000     673.023842     18313.9098 
 110   0.0000     673.026017     18313.9690 
 111   0.0000     929.397751     25290.1985 
 112   0.0000     929.397751     25290.1985 
 113   0.0000     929.399175     25290.2373 
 114   0.0000     929.399175     25290.2373 
 115   0.0000     929.399654     25290.2503 
 116   0.0000     990.042673     26940.4308 
 117   0.0000    1503.747701     40919.0552 
 118   0.0000    1503.747701     40919.0552 
 119   0.0000    1503.749297     40919.0987 
 120   0.0000    1975.615476     53759.2302 
 121   0.0000    1975.615476     53759.2302 
 122   0.0000    1975.616585     53759.2603 
 123   0.0000    1975.616585     53759.2603 
 124   0.0000    1975.616958     53759.2705 
 125   0.0000    2297.775695     62525.6554 
 126   0.0000    3230.856700     87916.0804 
 127   0.0000    3230.856700     87916.0804 
 128   0.0000    3230.857951     87916.1144 
 129   0.0000    4127.925865    112326.5734 
 130   0.0000    4127.925865    112326.5734 
 131   0.0000    4127.926765    112326.5979 
 132   0.0000    4127.926765    112326.5979 
 133   0.0000    4127.927067    112326.6061 
 134   0.0000    5064.581173    137814.2601 
 135   0.0000    6735.809512    183290.6951 
 136   0.0000    6735.809512    183290.6951 
 137   0.0000    6735.810507    183290.7222 
 138   0.0000    8623.507079    234657.5574 
 139   0.0000    8623.507079    234657.5574 
 140   0.0000    8623.507771    234657.5762 
 141   0.0000    8623.507771    234657.5762 
 142   0.0000    8623.508002    234657.5825 
 143   0.0000   10702.831322    291238.8466 
 144   0.0000   13700.714583    372815.3974 
 145   0.0000   13700.714583    372815.3974 
 146   0.0000   13700.715333    372815.4178 
 147   0.0000   18114.336012    492916.1423 
 148   0.0000   18114.336012    492916.1423 
 149   0.0000   18114.336457    492916.1544 
 150   0.0000   18114.336457    492916.1544 
 151   0.0000   18114.336605    492916.1584 
 152   0.0000   21874.459867    595234.3141 
 153   0.0000   27413.291257    745953.5787 
 154   0.0000   27413.291257    745953.5787 
 155   0.0000   27413.291781    745953.5929 
 156   0.0000   43491.082055   1183452.5083 
 157   0.0000   53852.897876   1465411.8513 
 158   0.0000   53852.897876   1465411.8513 
 159   0.0000   53852.898212   1465411.8605 
 160   0.0000   84396.983546   2296558.6771 
 161   0.0000   106727.509206   2904203.1723 
 162   0.0000   106727.509206   2904203.1723 
 163   0.0000   106727.509402   2904203.1777 
 164   0.0000   159979.659771   4353267.8582 
 165   0.0000   205288.598186   5586186.7529 
 166   0.0000   205288.598186   5586186.7529 
 167   0.0000   205288.598290   5586186.7557 
 168   0.0000   296210.708778   8060303.1638 
 169   0.0000   534569.900105   14546386.5059 
 170   0.0000   940924.902470   25603868.2717 
 171   0.0000   1606497.332170   43715014.8368 
 172   0.0000   2694495.617969   73320953.3302 
 173   0.0000   4320364.648055   117563098.8660 
 174   0.0000   7243908.733917   197116777.8732 
 175   0.0000   10384728.127856   282582818.5919 

                    ********************************
                    * MULLIKEN POPULATION ANALYSIS *
                    ********************************

--------------------------------------------
MULLIKEN ATOMIC CHARGES AND SPIN POPULATIONS
--------------------------------------------
   0 In:   -0.000000    1.000000
Sum of atomic charges         :   -0.0000000
Sum of atomic spin populations:    1.0000000

-----------------------------------------------------
MULLIKEN REDUCED ORBITAL CHARGES AND SPIN POPULATIONS
-----------------------------------------------------
CHARGE
  0 Ins       :     9.999141  s :     9.999141
      pz      :     6.009148  p :    19.000000
      px      :     6.940985
      py      :     6.049867
      dz2     :     4.000203  d :    20.000859
      dxz     :     4.000022
      dyz     :     4.000001
      dx2y2   :     4.000511
      dxy     :     4.000121

SPIN
  0 Ins       :     0.000658  s :     0.000658
      pz      :     0.009148  p :     1.000000
      px      :     0.940985
      py      :     0.049867
      dz2     :    -0.000156  d :    -0.000658
      dxz     :    -0.000017
      dyz     :    -0.000001
      dx2y2   :    -0.000392
      dxy     :    -0.000093


                     *******************************
                     * LOEWDIN POPULATION ANALYSIS *
                     *******************************

-------------------------------------------
LOEWDIN ATOMIC CHARGES AND SPIN POPULATIONS
-------------------------------------------
   0 In:   -0.000000    1.000000

----------------------------------------------------
LOEWDIN REDUCED ORBITAL CHARGES AND SPIN POPULATIONS
----------------------------------------------------
CHARGE
  0 Ins       :     9.999141  s :     9.999141
      pz      :     6.009148  p :    19.000000
      px      :     6.940985
      py      :     6.049867
      dz2     :     4.000203  d :    20.000859
      dxz     :     4.000022
      dyz     :     4.000001
      dx2y2   :     4.000511
      dxy     :     4.000121

SPIN
  0 Ins       :     0.000658  s :     0.000658
      pz      :     0.009148  p :     1.000000
      px      :     0.940985
      py      :     0.049867
      dz2     :    -0.000156  d :    -0.000658
      dxz     :    -0.000017
      dyz     :    -0.000001
      dx2y2   :    -0.000392
      dxy     :    -0.000093


                      *****************************
                      * MAYER POPULATION ANALYSIS *
                      *****************************

  NA   - Mulliken gross atomic population
  ZA   - Total nuclear charge
  QA   - Mulliken gross atomic charge
  VA   - Mayer's total valence
  BVA  - Mayer's bonded valence
  FA   - Mayer's free valence

  ATOM       NA         ZA         QA         VA         BVA        FA
  0 In    49.0000    49.0000    -0.0000     1.0033     0.0000     1.0033

  Mayer bond orders larger than 0.100000


-------
TIMINGS
-------

Total SCF time: 0 days 0 hours 2 min 20 sec 

Total time                  ....     140.463 sec
Sum of individual times     ....     114.949 sec  ( 81.8%)

Fock matrix formation       ....      81.379 sec  ( 57.9%)
  XC integration            ....      40.859 sec  ( 50.2% of F)
    Basis function eval.    ....       0.031 sec  (  0.1% of XC)
    Density eval.           ....       1.050 sec  (  2.6% of XC)
    XC-Functional eval.     ....       0.092 sec  (  0.2% of XC)
    XC-Potential eval.      ....       0.067 sec  (  0.2% of XC)
Diagonalization             ....       0.168 sec  (  0.1%)
Density matrix formation    ....       0.016 sec  (  0.0%)
Population analysis         ....       4.508 sec  (  3.2%)
Initial guess               ....      16.757 sec  ( 11.9%)
Orbital Transformation      ....       0.000 sec  (  0.0%)
Orbital Orthonormalization  ....       0.000 sec  (  0.0%)
DIIS solution               ....       0.045 sec  (  0.0%)
SOSCF solution              ....       6.306 sec  (  4.5%)
Grid generation             ....       5.769 sec  (  4.1%)

Maximum memory used throughout the entire SCF-calculation: 229.2 MB

-------------------------   --------------------
FINAL SINGLE POINT ENERGY     -5988.375575439220
-------------------------   --------------------


                            ***************************************
                            *     ORCA property calculations      *
                            ***************************************

                                    ---------------------
                                    Active property flags
                                    ---------------------
   (+) Dipole Moment


------------------------------------------------------------------------------
                       ORCA ELECTRIC PROPERTIES CALCULATION
------------------------------------------------------------------------------

Dipole Moment Calculation                       ... on
Quadrupole Moment Calculation                   ... off
Polarizability Calculation                      ... off
GBWName                                         ... In_ugbs_pbe.gbw
Electron density                                ... In_ugbs_pbe.scfp
The origin for moment calculation is the CENTER OF MASS  = ( 0.000000,  0.000000  0.000000)

-------------
DIPOLE MOMENT
-------------
                                X             Y             Z
Electronic contribution:     -0.00000       0.00000      -0.00000
Nuclear contribution   :      0.00000       0.00000       0.00000
                        -----------------------------------------
Total Dipole Moment    :     -0.00000       0.00000      -0.00000
                        -----------------------------------------
Magnitude (a.u.)       :      0.00000
Magnitude (Debye)      :      0.00000



--------------------
Rotational spectrum 
--------------------
 
Rotational constants in cm-1:     0.000000     0.000000     0.000000 
Rotational constants in MHz :     0.000000     0.000000     0.000000 

 Dipole components along the rotational axes: 
x,y,z [a.u.] :    -0.000000     0.000000    -0.000000 
x,y,z [Debye]:    -0.000000     0.000000    -0.000000 

 

Timings for individual modules:

Sum of individual times         ...      280.207 sec (=   4.670 min)
GTO integral calculation        ...      111.207 sec (=   1.853 min)  39.7 %
Relativistic integrals          ...       23.286 sec (=   0.388 min)   8.3 %
SCF iterations                  ...      145.714 sec (=   2.429 min)  52.0 %
                             ****ORCA TERMINATED NORMALLY****
TOTAL RUN TIME: 0 days 0 hours 5 minutes 6 seconds 906 msec
