
                                 *****************
                                 * O   R   C   A *
                                 *****************

                                            #,                                       
                                            ###                                      
                                            ####                                     
                                            #####                                    
                                            ######                                   
                                           ########,                                 
                                     ,,################,,,,,                         
                               ,,#################################,,                 
                          ,,##########################################,,             
                       ,#########################################, ''#####,          
                    ,#############################################,,   '####,        
                  ,##################################################,,,,####,       
                ,###########''''           ''''###############################       
              ,#####''   ,,,,##########,,,,          '''####'''          '####       
            ,##' ,,,,###########################,,,                        '##       
           ' ,,###''''                  '''############,,,                           
         ,,##''                                '''############,,,,        ,,,,,,###''
      ,#''                                            '''#######################'''  
     '                                                          ''''####''''         
             ,#######,   #######,   ,#######,      ##                                
            ,#'     '#,  ##    ##  ,#'     '#,    #''#        ######   ,####,        
            ##       ##  ##   ,#'  ##            #'  '#       #        #'  '#        
            ##       ##  #######   ##           ,######,      #####,   #    #        
            '#,     ,#'  ##    ##  '#,     ,#' ,#      #,         ##   #,  ,#        
             '#######'   ##     ##  '#######'  #'      '#     #####' # '####'        



                  #######################################################
                  #                        -***-                        #
                  #          Department of theory and spectroscopy      #
                  #    Directorship and core code : Frank Neese         #
                  #        Max Planck Institute fuer Kohlenforschung    #
                  #                Kaiser Wilhelm Platz 1               #
                  #                 D-45470 Muelheim/Ruhr               #
                  #                      Germany                        #
                  #                                                     #
                  #                  All rights reserved                #
                  #                        -***-                        #
                  #######################################################


                         Program Version 5.0.1 -  RELEASE  -


 With contributions from (in alphabetic order):
   Daniel Aravena         : Magnetic Suceptibility
   Michael Atanasov       : Ab Initio Ligand Field Theory (pilot matlab implementation)
   Alexander A. Auer      : GIAO ZORA, VPT2 properties, NMR spectrum
   Ute Becker             : Parallelization
   Giovanni Bistoni       : ED, misc. LED, open-shell LED, HFLD
   Martin Brehm           : Molecular dynamics
   Dmytro Bykov           : SCF Hessian
   Vijay G. Chilkuri      : MRCI spin determinant printing, contributions to CSF-ICE
   Dipayan Datta          : RHF DLPNO-CCSD density
   Achintya Kumar Dutta   : EOM-CC, STEOM-CC
   Dmitry Ganyushin       : Spin-Orbit,Spin-Spin,Magnetic field MRCI
   Miquel Garcia          : C-PCM and meta-GGA Hessian, CC/C-PCM, Gaussian charge scheme
   Yang Guo               : DLPNO-NEVPT2, F12-NEVPT2, CIM, IAO-localization
   Andreas Hansen         : Spin unrestricted coupled pair/coupled cluster methods
   Benjamin Helmich-Paris : MC-RPA, TRAH-SCF, COSX integrals
   Lee Huntington         : MR-EOM, pCC
   Robert Izsak           : Overlap fitted RIJCOSX, COSX-SCS-MP3, EOM
   Marcus Kettner         : VPT2
   Christian Kollmar      : KDIIS, OOCD, Brueckner-CCSD(T), CCSD density, CASPT2, CASPT2-K
   Simone Kossmann        : Meta GGA functionals, TD-DFT gradient, OOMP2, MP2 Hessian
   Martin Krupicka        : Initial AUTO-CI
   Lucas Lang             : DCDCAS
   Marvin Lechner         : AUTO-CI (C++ implementation), FIC-MRCC
   Dagmar Lenk            : GEPOL surface, SMD
   Dimitrios Liakos       : Extrapolation schemes; Compound Job, initial MDCI parallelization
   Dimitrios Manganas     : Further ROCIS development; embedding schemes
   Dimitrios Pantazis     : SARC Basis sets
   Anastasios Papadopoulos: AUTO-CI, single reference methods and gradients
   Taras Petrenko         : DFT Hessian,TD-DFT gradient, ASA, ECA, R-Raman, ABS, FL, XAS/XES, NRVS
   Peter Pinski           : DLPNO-MP2, DLPNO-MP2 Gradient
   Christoph Reimann      : Effective Core Potentials
   Marius Retegan         : Local ZFS, SOC
   Christoph Riplinger    : Optimizer, TS searches, QM/MM, DLPNO-CCSD(T), (RO)-DLPNO pert. Triples
   Tobias Risthaus        : Range-separated hybrids, TD-DFT gradient, RPA, STAB
   Michael Roemelt        : Original ROCIS implementation
   Masaaki Saitow         : Open-shell DLPNO-CCSD energy and density
   Barbara Sandhoefer     : DKH picture change effects
   Avijit Sen             : IP-ROCIS
   Kantharuban Sivalingam : CASSCF convergence, NEVPT2, FIC-MRCI
   Bernardo de Souza      : ESD, SOC TD-DFT
   Georgi Stoychev        : AutoAux, RI-MP2 NMR, DLPNO-MP2 response
   Willem Van den Heuvel  : Paramagnetic NMR
   Boris Wezisla          : Elementary symmetry handling
   Frank Wennmohs         : Technical directorship


 We gratefully acknowledge several colleagues who have allowed us to
 interface, adapt or use parts of their codes:
   Stefan Grimme, W. Hujo, H. Kruse, P. Pracht,  : VdW corrections, initial TS optimization,
                  C. Bannwarth, S. Ehlert          DFT functionals, gCP, sTDA/sTD-DF
   Ed Valeev, F. Pavosevic, A. Kumar             : LibInt (2-el integral package), F12 methods
   Garnet Chan, S. Sharma, J. Yang, R. Olivares  : DMRG
   Ulf Ekstrom                                   : XCFun DFT Library
   Mihaly Kallay                                 : mrcc  (arbitrary order and MRCC methods)
   Jiri Pittner, Ondrej Demel                    : Mk-CCSD
   Frank Weinhold                                : gennbo (NPA and NBO analysis)
   Christopher J. Cramer and Donald G. Truhlar   : smd solvation model
   Lars Goerigk                                  : TD-DFT with DH, B97 family of functionals
   V. Asgeirsson, H. Jonsson                     : NEB implementation
   FAccTs GmbH                                   : IRC, NEB, NEB-TS, DLPNO-Multilevel, CI-OPT
                                                   MM, QMMM, 2- and 3-layer-ONIOM, Crystal-QMMM,
                                                   LR-CPCM, SF, NACMEs, symmetry and pop. for TD-DFT,
                                                   nearIR, NL-DFT gradient (VV10), updates on ESD,
                                                   ML-optimized integration grids
   S Lehtola, MJT Oliveira, MAL Marques          : LibXC Library
   Liviu Ungur et al                             : ANISO software


 Your calculation uses the libint2 library for the computation of 2-el integrals
 For citations please refer to: http://libint.valeyev.net

 Your ORCA version has been built with support for libXC version: 5.1.0
 For citations please refer to: https://tddft.org/programs/libxc/

 This ORCA versions uses:
   CBLAS   interface :  Fast vector & matrix operations
   LAPACKE interface :  Fast linear algebra routines
   SCALAPACK package :  Parallel linear algebra routines
   Shared memory     :  Shared parallel matrices
   BLAS/LAPACK       :  OpenBLAS 0.3.15  USE64BITINT DYNAMIC_ARCH NO_AFFINITY Haswell SINGLE_THREADED
        Core in use  :  Haswell
   Copyright (c) 2011-2014, The OpenBLAS Project


SCAN-COORDS

Reading of a custom basis requested
Basis file         : Mo_sarc-zora-tzvpp.basis
READING GTO-BASIS: MOLYBDENUM
Basis successfully read

================================================================================

----- Orbital basis set information -----
================================================================================
                                        WARNINGS
                       Please study these warnings very carefully!
================================================================================


INFO   : the flag for use of the SHARK integral package has been found!

================================================================================
                                       INPUT FILE
================================================================================
NAME = Mo_sarc-zora-tzvpp_pbe.inp
|  1> !uks pbe nori verytightscf soscf notrah
|  2> 
|  3> %pal
|  4>   nprocs 32
|  5> end
|  6> %coords
|  7>   charge 0
|  8>   mult 7
|  9>   units bohrs
| 10>   coords
| 11>     Mo 0.0 0.0 0.0
| 12>   end
| 13> end
| 14> %basis
| 15>   gtoname "Mo_sarc-zora-tzvpp.basis"
| 16>   delECP Mo
| 17> end
| 18> %rel
| 19>   method zora
| 20>   modelpot 1, 0, 0, 0
| 21>   c 137.035999084
| 22> endd                         ****END OF INPUT****
================================================================================

                       ****************************
                       * Single Point Calculation *
                       ****************************

---------------------------------
CARTESIAN COORDINATES (ANGSTROEM)
---------------------------------
  Mo     0.000000    0.000000    0.000000

----------------------------
CARTESIAN COORDINATES (A.U.)
----------------------------
  NO LB      ZA    FRAG     MASS         X           Y           Z
   0 Mo   42.0000    0    95.940    0.000000    0.000000    0.000000

--------------------------------
INTERNAL COORDINATES (ANGSTROEM)
--------------------------------
 Mo     0   0   0     0.000000000000     0.00000000     0.00000000

---------------------------
INTERNAL COORDINATES (A.U.)
---------------------------
 Mo     0   0   0     0.000000000000     0.00000000     0.00000000

---------------------
BASIS SET INFORMATION
---------------------
There are 1 groups of distinct atoms

 Group   1 Type Mo  : 22s15p10d2f1g contracted to 15s10p6d2f1g pattern {811111111111111/6111111111/511111/11/1}

Atom   0Mo   basis set group =>   1


           ************************************************************
           *        Program running with 32 parallel MPI-processes    *
           *              working on a common directory               *
           ************************************************************
------------------------------------------------------------------------------
                           ORCA GTO INTEGRAL CALCULATION
------------------------------------------------------------------------------
------------------------------------------------------------------------------
                   ___                                                        
                  /   \      - P O W E R E D   B Y -                         
                 /     \                                                     
                 |  |  |   _    _      __       _____    __    __             
                 |  |  |  | |  | |    /  \     |  _  \  |  |  /  |          
                  \  \/   | |  | |   /    \    | | | |  |  | /  /          
                 / \  \   | |__| |  /  /\  \   | |_| |  |  |/  /          
                |  |  |   |  __  | /  /__\  \  |    /   |      \           
                |  |  |   | |  | | |   __   |  |    \   |  |\   \          
                \     /   | |  | | |  |  |  |  | |\  \  |  | \   \       
                 \___/    |_|  |_| |__|  |__|  |_| \__\ |__|  \__/        
                                                                              
                      - O R C A' S   B I G   F R I E N D -                    
                                      &                                       
                       - I N T E G R A L  F E E D E R -                       
                                                                              
 v1 FN, 2020, v2 2021                                                         
------------------------------------------------------------------------------


Reading SHARK input file Mo_sarc-zora-tzvpp_pbe.SHARKINP.tmp ... ok
----------------------
SHARK INTEGRAL PACKAGE
----------------------

Number of atoms                             ...      1
Number of basis functions                   ...     98
Number of shells                            ...     34
Maximum angular momentum                    ...      4
Integral batch strategy                     ... SHARK/LIBINT Hybrid
RI-J (if used) integral strategy            ... SPLIT-RIJ (Revised 2003 algorithm where possible)
Printlevel                                  ...      1
Contraction scheme used                     ... SEGMENTED contraction
Coulomb Range Separation                    ... NOT USED
Exchange Range Separation                   ... NOT USED
Finite Nucleus Model                        ... NOT USED
Auxiliary Coulomb fitting basis             ... NOT available
Auxiliary J/K fitting basis                 ... NOT available
Auxiliary Correlation fitting basis         ... NOT available
Auxiliary 'external' fitting basis          ... NOT available
Integral threshold                          ...     1.000000e-12
Primitive cut-off                           ...     1.000000e-14
Primitive pair pre-selection threshold      ...     1.000000e-14

Calculating pre-screening integrals         ... done (  9.4 sec) Dimension = 34
Organizing shell pair data                  ... done (  2.4 sec)
Shell pair information
Total number of shell pairs                 ...       595
Shell pairs after pre-screening             ...       595
Total number of primitive shell pairs       ...      1328
Primitive shell pairs kept                  ...      1328
          la=0 lb=0:    120 shell pairs
          la=1 lb=0:    150 shell pairs
          la=1 lb=1:     55 shell pairs
          la=2 lb=0:     90 shell pairs
          la=2 lb=1:     60 shell pairs
          la=2 lb=2:     21 shell pairs
          la=3 lb=0:     30 shell pairs
          la=3 lb=1:     20 shell pairs
          la=3 lb=2:     12 shell pairs
          la=3 lb=3:      3 shell pairs
          la=4 lb=0:     15 shell pairs
          la=4 lb=1:     10 shell pairs
          la=4 lb=2:      6 shell pairs
          la=4 lb=3:      2 shell pairs
          la=4 lb=4:      1 shell pairs

Calculating one electron integrals          ... done (  2.7 sec)
Calculating Nuclear repulsion               ... done (  0.0 sec) ENN=      0.000000000000 Eh

SHARK setup successfully completed in  18.1 seconds

Maximum memory used throughout the entire GTOINT-calculation: 25.8 MB


           ************************************************************
           *        Program running with 32 parallel MPI-processes    *
           *              working on a common directory               *
           ************************************************************
------------------------------------------------------------------------------
                          ORCA RELATIVISTIC HAMILTONIAN
------------------------------------------------------------------------------

Relativistic Method            ... ZORA(MP)
Treatment of potential         ... Van Wuellen
Nucleus model                  ... Point Nucleus
Speed of light used            ... 137.03599908400000


            *************************************************
            *         ZERO ORDER REGULAR APPROXIMATION      *
            *                     ZORA(MP)                  *
            *            Programmed by FN according to      *
            *                   C. van Wuellen              *
            *       J. Chem. Phys. (1998) vol 109, 392-399  *
            *************************************************

Terms included in model potential: +V(e,N)
Basis function cutoff value   ... 1.000000e-12
Loading the fitted atomic densities  (DKH4)  ... done
Calculating the cutoffs                      ... done
Number of fit functions                      ... 28
Setting up the integration grid ... done

Maximum memory used throughout the entire REL-calculation: 10.3 MB


           ************************************************************
           *        Program running with 32 parallel MPI-processes    *
           *              working on a common directory               *
           ************************************************************
-------------------------------------------------------------------------------
                                 ORCA SCF
-------------------------------------------------------------------------------

------------
SCF SETTINGS
------------
Hamiltonian:
 Density Functional     Method          .... DFT(GTOs)
 Exchange Functional    Exchange        .... PBE
   PBE kappa parameter   XKappa         ....  0.804000
   PBE mue parameter    XMuePBE         ....  0.219520
 Correlation Functional Correlation     .... PBE
   PBE beta parameter  CBetaPBE         ....  0.066725
 LDA part of GGA corr.  LDAOpt          .... PW91-LDA
 Gradients option       PostSCFGGA      .... off
   Density functional embedding theory  .... OFF
   NL short-range parameter             ....  6.400000

Relativistic Settings:
 Scalar relativistic method             .... ZORA
 Speed of light used       Velit        ....       137.035999
Orbital energies will be scaled


General Settings:
 Integral files         IntName         .... Mo_sarc-zora-tzvpp_pbe
 Hartree-Fock type      HFTyp           .... UHF
 Total Charge           Charge          ....    0
 Multiplicity           Mult            ....    7
 Number of Electrons    NEL             ....   42
 Basis Dimension        Dim             ....   98
 Nuclear Repulsion      ENuc            ....      0.0000000000 Eh

Convergence Acceleration:
 DIIS                   CNVDIIS         .... on
   Start iteration      DIISMaxIt       ....    12
   Startup error        DIISStart       ....  0.200000
   # of expansion vecs  DIISMaxEq       ....     5
   Bias factor          DIISBfac        ....   1.050
   Max. coefficient     DIISMaxC        ....  10.000
 Trust-Rad. Augm. Hess. CNVTRAH         .... off
 SOSCF                  CNVSOSCF        .... on
   Start iteration      SOSCFMaxIt      ....   150
   Startup grad/error   SOSCFStart      ....  0.003300
 Level Shifting         CNVShift        .... on
   Level shift para.    LevelShift      ....    0.2500
   Turn off err/grad.   ShiftErr        ....    0.0010
 Zerner damping         CNVZerner       .... off
 Static damping         CNVDamp         .... on
   Fraction old density DampFac         ....    0.7000
   Max. Damping (<1)    DampMax         ....    0.9800
   Min. Damping (>=0)   DampMin         ....    0.0000
   Turn off err/grad.   DampErr         ....    0.1000
 Fernandez-Rico         CNVRico         .... off

SCF Procedure:
 Maximum # iterations   MaxIter         ....   125
 SCF integral mode      SCFMode         .... Direct
   Integral package                     .... SHARK and LIBINT hybrid scheme
 Reset frequency        DirectResetFreq ....    20
 Integral Threshold     Thresh          ....  1.000e-12 Eh
 Primitive CutOff       TCut            ....  1.000e-14 Eh

Convergence Tolerance:
 Convergence Check Mode ConvCheckMode   .... Total+1el-Energy
 Convergence forced     ConvForced      .... 0
 Energy Change          TolE            ....  1.000e-09 Eh
 1-El. energy change                    ....  1.000e-06 Eh
 Orbital Gradient       TolG            ....  2.000e-06
 Orbital Rotation angle TolX            ....  2.000e-06
 DIIS Error             TolErr          ....  1.000e-08


Diagonalization of the overlap matrix:
Smallest eigenvalue                        ... 7.218e-04
Time for diagonalization                   ...    0.174 sec
Threshold for overlap eigenvalues          ... 1.000e-08
Number of eigenvalues below threshold      ... 0
Time for construction of square roots      ...    0.901 sec
Total time needed                          ...    1.076 sec

Time for model grid setup =    0.299 sec

------------------------------
INITIAL GUESS: MODEL POTENTIAL
------------------------------
Loading ZORA relativistic densities                ... done
Calculating cut-offs                               ... done
Initializing the effective Hamiltonian             ... done
Setting up the integral package (SHARK)            ... done
Starting the Coulomb interaction                   ... done (   8.9 sec)
Reading the grid                                   ... done
Mapping shells                                     ... done
Starting the XC term evaluation                    ... done (   1.2 sec)
  promolecular density results
     # of electrons  =     42.000730025
     EX              =   -124.406686763
     EC              =     -2.107482186
     EX+EC           =   -126.514168949
Transforming the Hamiltonian                       ... done (   0.4 sec)
Diagonalizing the Hamiltonian                      ... done (   0.4 sec)
Back transforming the eigenvectors                 ... done (   0.1 sec)
Now organizing SCF variables                       ... done
                      ------------------
                      INITIAL GUESS DONE (  12.9 sec)
                      ------------------
-------------------
DFT GRID GENERATION
-------------------

General Integration Accuracy     IntAcc      ... 4.388
Radial Grid Type                 RadialGrid  ... OptM3 with GC (2021)
Angular Grid (max. ang.)         AngularGrid ... 4 (Lebedev-302)
Angular grid pruning method      GridPruning ... 4 (adaptive)
Weight generation scheme         WeightScheme... Becke
Basis function cutoff            BFCut       ... 1.0000e-12
Integration weight cutoff        WCut        ... 1.0000e-14
Angular grids for H and He will be reduced by one unit
Partially contracted basis set               ... off
Rotationally invariant grid construction     ... off

Total number of grid points                  ...    27544
Total number of batches                      ...      431
Average number of points per batch           ...       63
Average number of grid points per atom       ...    27544
Time for grid setup =    0.814 sec

--------------
SCF ITERATIONS
--------------
ITER       Energy         Delta-E        Max-DP      RMS-DP      [F,P]     Damp
               ***  Starting incremental Fock matrix formation  ***
  0  -4103.9323743684   0.000000000000 0.04449908  0.00062822  1.5570708 0.7000
  1  -4103.9440687384  -0.011694370039 0.04739114  0.00059448  1.0741253 0.7000
  2  -4103.9495366281  -0.005467889603 0.03613393  0.00045336  0.7417866 0.7000
  3  -4103.9527214259  -0.003184797835 0.02420870  0.00030541  0.5128367 0.7000
                      *** Initiating the SOSCF procedure ***
                      *** Re-Reading the Fockian *** 
                      *** Removing any level shift *** 
ITER      Energy       Delta-E        Grad      Rot      Max-DP    RMS-DP
  4  -4103.95493484  -0.0022134095  0.002096  0.002096  0.048966  0.000630
               *** Restarting incremental Fock matrix formation ***
  5  -4103.96010884  -0.0051740094  0.004038  0.005126  0.021964  0.000242
  6  -4103.96013690  -0.0000280539  0.000712  0.001305  0.002897  0.000045
  7  -4103.96014243  -0.0000055329  0.000787  0.000525  0.003141  0.000038
  8  -4103.96014590  -0.0000034669  0.000187  0.000315  0.001252  0.000014
  9  -4103.96014607  -0.0000001735  0.000045  0.000039  0.000111  0.000001
 10  -4103.96014608  -0.0000000077  0.000015  0.000006  0.000030  0.000000
 11  -4103.96014608  -0.0000000003  0.000002  0.000002  0.000009  0.000000
                  ***Gradient check signals convergence***
              ***Rediagonalizing the Fockian in SOSCF/NRSCF***

               *****************************************************
               *                     SUCCESS                       *
               *           SCF CONVERGED AFTER  12 CYCLES          *
               *****************************************************


----------------
TOTAL SCF ENERGY
----------------

Total Energy       :        -4103.96014608 Eh         -111674.43299 eV

Components:
Nuclear Repulsion  :            0.00000000 Eh               0.00000 eV
Electronic Energy  :        -4103.96014608 Eh         -111674.43299 eV
One Electron Energy:        -5644.72505488 Eh         -153600.77766 eV
Two Electron Energy:         1540.76490880 Eh           41926.34466 eV

Virial components:
Potential Energy   :        -8337.19855396 Eh         -226866.70633 eV
Kinetic Energy     :         4233.23840788 Eh          115192.27334 eV
Virial Ratio       :            1.96946114


DFT components:
N(Alpha)           :       24.000000000022 electrons
N(Beta)            :       18.000000000043 electrons
N(Total)           :       42.000000000065 electrons
E(X)               :     -122.558491067658 Eh       
E(C)               :       -2.074800880736 Eh       
E(XC)              :     -124.633291948394 Eh       
DFET-embed. en.    :        0.000000000000 Eh       

---------------
SCF CONVERGENCE
---------------

  Last Energy change         ...   -9.0949e-12  Tolerance :   1.0000e-09
  Last MAX-Density change    ...    4.2528e-07  Tolerance :   1.0000e-08
  Last RMS-Density change    ...    5.0224e-09  Tolerance :   1.0000e-09
  Last Orbital Gradient      ...    5.6816e-08  Tolerance :   2.0000e-06
  Last Orbital Rotation      ...    1.3834e-07  Tolerance :   2.0000e-06

             **** THE GBW FILE WAS UPDATED (Mo_sarc-zora-tzvpp_pbe.gbw) ****
             **** DENSITY Mo_sarc-zora-tzvpp_pbe.scfp WAS UPDATED ****
             **** ENERGY FILE WAS UPDATED (Mo_sarc-zora-tzvpp_pbe.en.tmp) ****
----------------------
UHF SPIN CONTAMINATION
----------------------

Warning: in a DFT calculation there is little theoretical justification to 
         calculate <S**2> as in Hartree-Fock theory. We will do it anyways
         but you should keep in mind that the values have only limited relevance

Expectation value of <S**2>     :    12.000640
Ideal value S*(S+1) for S=3.0   :    12.000000
Deviation                       :     0.000640

             **** THE GBW FILE WAS UPDATED (Mo_sarc-zora-tzvpp_pbe.gbw) ****
             **** DENSITY Mo_sarc-zora-tzvpp_pbe.scfp WAS UPDATED ****
----------------
ORBITAL ENERGIES
----------------
                 SPIN UP ORBITALS
  NO   OCC          E(Eh)            E(eV) 
   0   1.0000    -749.001202    -20381.3589 
   1   1.0000    -103.846391     -2825.8040 
   2   1.0000     -92.743002     -2523.6654 
   3   1.0000     -92.743002     -2523.6654 
   4   1.0000     -92.743002     -2523.6654 
   5   1.0000     -17.599264      -478.9003 
   6   1.0000     -13.985062      -380.5529 
   7   1.0000     -13.985062      -380.5529 
   8   1.0000     -13.985062      -380.5529 
   9   1.0000      -8.123442      -221.0501 
  10   1.0000      -8.123442      -221.0501 
  11   1.0000      -8.123442      -221.0501 
  12   1.0000      -8.123442      -221.0501 
  13   1.0000      -8.123442      -221.0501 
  14   1.0000      -2.395843       -65.1942 
  15   1.0000      -1.443174       -39.2708 
  16   1.0000      -1.443174       -39.2708 
  17   1.0000      -1.443174       -39.2708 
  18   1.0000      -0.170453        -4.6383 
  19   1.0000      -0.166635        -4.5344 
  20   1.0000      -0.166635        -4.5344 
  21   1.0000      -0.166635        -4.5344 
  22   1.0000      -0.166635        -4.5344 
  23   1.0000      -0.166635        -4.5344 
  24   0.0000      -0.045277        -1.2321 
  25   0.0000      -0.045277        -1.2321 
  26   0.0000      -0.045277        -1.2321 
  27   0.0000       0.072533         1.9737 
  28   0.0000       0.072533         1.9737 
  29   0.0000       0.072533         1.9737 
  30   0.0000       0.072533         1.9737 
  31   0.0000       0.072533         1.9737 
  32   0.0000       0.073510         2.0003 
  33   0.0000       0.145493         3.9591 
  34   0.0000       0.145493         3.9591 
  35   0.0000       0.145493         3.9591 
  36   0.0000       0.389967        10.6115 
  37   0.0000       0.389967        10.6115 
  38   0.0000       0.389967        10.6115 
  39   0.0000       0.389967        10.6115 
  40   0.0000       0.389967        10.6115 
  41   0.0000       0.607545        16.5322 
  42   0.0000       0.824398        22.4330 
  43   0.0000       0.824398        22.4330 
  44   0.0000       0.824398        22.4330 
  45   0.0000       0.953797        25.9541 
  46   0.0000       0.953797        25.9541 
  47   0.0000       0.953797        25.9541 
  48   0.0000       0.953797        25.9541 
  49   0.0000       0.953797        25.9541 
  50   0.0000       0.953797        25.9541 
  51   0.0000       0.953797        25.9541 
  52   0.0000       1.603352        43.6294 
  53   0.0000       1.603352        43.6294 
  54   0.0000       1.603352        43.6294 
  55   0.0000       1.603352        43.6294 
  56   0.0000       1.603352        43.6294 
  57   0.0000       2.473818        67.3160 
  58   0.0000       3.338452        90.8439 
  59   0.0000       3.338452        90.8439 
  60   0.0000       3.338452        90.8439 
  61   0.0000       3.338452        90.8439 
  62   0.0000       3.338452        90.8439 
  63   0.0000       3.338452        90.8439 
  64   0.0000       3.338452        90.8439 
  65   0.0000       3.522383        95.8489 
  66   0.0000       3.522383        95.8489 
  67   0.0000       3.522383        95.8489 
  68   0.0000       3.522383        95.8489 
  69   0.0000       3.522383        95.8489 
  70   0.0000       3.522383        95.8489 
  71   0.0000       3.522383        95.8489 
  72   0.0000       3.522383        95.8489 
  73   0.0000       3.522383        95.8489 
  74   0.0000       3.616200        98.4018 
  75   0.0000       3.616200        98.4018 
  76   0.0000       3.616200        98.4018 
  77   0.0000       6.793423       184.8584 
  78   0.0000       6.793423       184.8584 
  79   0.0000       6.793423       184.8584 
  80   0.0000       6.793423       184.8584 
  81   0.0000       6.793423       184.8584 
  82   0.0000       9.514462       258.9017 
  83   0.0000      16.538098       450.0245 
  84   0.0000      16.538098       450.0245 
  85   0.0000      16.538098       450.0245 
  86   0.0000      36.936033      1005.0806 
  87   0.0000      74.541855      2028.3870 
  88   0.0000      74.541855      2028.3870 
  89   0.0000      74.541855      2028.3870 
  90   0.0000     137.149284      3732.0217 
  91   0.0000     333.184318      9066.4062 
  92   0.0000     333.184318      9066.4062 
  93   0.0000     333.184318      9066.4062 
  94   0.0000     461.231805     12550.7555 
  95   0.0000    1403.329601     38186.5398 
  96   0.0000    3961.576271    107799.9708 
  97   0.0000   14186.273451    386028.1259 

                 SPIN DOWN ORBITALS
  NO   OCC          E(Eh)            E(eV) 
   0   1.0000    -749.001209    -20381.3591 
   1   1.0000    -103.830189     -2825.3631 
   2   1.0000     -92.730993     -2523.3386 
   3   1.0000     -92.730993     -2523.3386 
   4   1.0000     -92.730993     -2523.3386 
   5   1.0000     -17.589595      -478.6372 
   6   1.0000     -13.974239      -380.2584 
   7   1.0000     -13.974239      -380.2584 
   8   1.0000     -13.974239      -380.2584 
   9   1.0000      -8.107379      -220.6130 
  10   1.0000      -8.107379      -220.6130 
  11   1.0000      -8.107379      -220.6130 
  12   1.0000      -8.107379      -220.6130 
  13   1.0000      -8.107379      -220.6130 
  14   1.0000      -2.298238       -62.5382 
  15   1.0000      -1.333414       -36.2840 
  16   1.0000      -1.333414       -36.2840 
  17   1.0000      -1.333414       -36.2840 
  18   0.0000      -0.061056        -1.6614 
  19   0.0000      -0.041374        -1.1258 
  20   0.0000      -0.041374        -1.1258 
  21   0.0000      -0.041374        -1.1258 
  22   0.0000      -0.041374        -1.1258 
  23   0.0000      -0.041374        -1.1258 
  24   0.0000       0.049509         1.3472 
  25   0.0000       0.049509         1.3472 
  26   0.0000       0.049509         1.3472 
  27   0.0000       0.146485         3.9861 
  28   0.0000       0.146485         3.9861 
  29   0.0000       0.146485         3.9861 
  30   0.0000       0.146485         3.9861 
  31   0.0000       0.146485         3.9861 
  32   0.0000       0.154794         4.2122 
  33   0.0000       0.229253         6.2383 
  34   0.0000       0.229253         6.2383 
  35   0.0000       0.229253         6.2383 
  36   0.0000       0.490760        13.3543 
  37   0.0000       0.490760        13.3543 
  38   0.0000       0.490760        13.3543 
  39   0.0000       0.490760        13.3543 
  40   0.0000       0.490760        13.3543 
  41   0.0000       0.716256        19.4903 
  42   0.0000       0.934832        25.4381 
  43   0.0000       0.934832        25.4381 
  44   0.0000       0.934832        25.4381 
  45   0.0000       1.090060        29.6620 
  46   0.0000       1.090060        29.6620 
  47   0.0000       1.090060        29.6620 
  48   0.0000       1.090060        29.6620 
  49   0.0000       1.090060        29.6620 
  50   0.0000       1.090060        29.6620 
  51   0.0000       1.090060        29.6620 
  52   0.0000       1.709687        46.5230 
  53   0.0000       1.709687        46.5230 
  54   0.0000       1.709687        46.5230 
  55   0.0000       1.709687        46.5230 
  56   0.0000       1.709687        46.5230 
  57   0.0000       2.589163        70.4547 
  58   0.0000       3.436747        93.5186 
  59   0.0000       3.436747        93.5186 
  60   0.0000       3.436747        93.5186 
  61   0.0000       3.436747        93.5186 
  62   0.0000       3.436747        93.5186 
  63   0.0000       3.436747        93.5186 
  64   0.0000       3.436747        93.5186 
  65   0.0000       3.671193        99.8983 
  66   0.0000       3.671193        99.8983 
  67   0.0000       3.671193        99.8983 
  68   0.0000       3.671193        99.8983 
  69   0.0000       3.671193        99.8983 
  70   0.0000       3.671193        99.8983 
  71   0.0000       3.671193        99.8983 
  72   0.0000       3.671193        99.8983 
  73   0.0000       3.671193        99.8983 
  74   0.0000       3.721432       101.2653 
  75   0.0000       3.721432       101.2653 
  76   0.0000       3.721432       101.2653 
  77   0.0000       6.864423       186.7904 
  78   0.0000       6.864423       186.7904 
  79   0.0000       6.864423       186.7904 
  80   0.0000       6.864423       186.7904 
  81   0.0000       6.864423       186.7904 
  82   0.0000       9.586614       260.8650 
  83   0.0000      16.581877       451.2158 
  84   0.0000      16.581877       451.2158 
  85   0.0000      16.581877       451.2158 
  86   0.0000      36.967714      1005.9427 
  87   0.0000      74.562663      2028.9532 
  88   0.0000      74.562663      2028.9532 
  89   0.0000      74.562663      2028.9532 
  90   0.0000     137.170709      3732.6048 
  91   0.0000     333.194171      9066.6743 
  92   0.0000     333.194171      9066.6743 
  93   0.0000     333.194171      9066.6743 
  94   0.0000     461.244495     12551.1008 
  95   0.0000    1403.333848     38186.6554 
  96   0.0000    3961.577588    107800.0066 
  97   0.0000   14186.274642    386028.1583 

                    ********************************
                    * MULLIKEN POPULATION ANALYSIS *
                    ********************************

--------------------------------------------
MULLIKEN ATOMIC CHARGES AND SPIN POPULATIONS
--------------------------------------------
   0 Mo:    0.000000    6.000000
Sum of atomic charges         :    0.0000000
Sum of atomic spin populations:    6.0000000

-----------------------------------------------------
MULLIKEN REDUCED ORBITAL CHARGES AND SPIN POPULATIONS
-----------------------------------------------------
CHARGE
  0 Mos       :     9.000000  s :     9.000000
      pz      :     6.000000  p :    18.000000
      px      :     6.000000
      py      :     6.000000
      dz2     :     3.000000  d :    15.000000
      dxz     :     3.000000
      dyz     :     3.000000
      dx2y2   :     3.000000
      dxy     :     3.000000
      f0      :     0.000000  f :     0.000000
      f+1     :     0.000000
      f-1     :     0.000000
      f+2     :     0.000000
      f-2     :     0.000000
      f+3     :     0.000000
      f-3     :     0.000000
      g0      :     0.000000  g :     0.000000
      g+1     :     0.000000
      g-1     :     0.000000
      g+2     :     0.000000
      g-2     :     0.000000
      g+3     :     0.000000
      g-3     :     0.000000
      g+4     :     0.000000
      g-4     :     0.000000

SPIN
  0 Mos       :     1.000000  s :     1.000000
      pz      :    -0.000000  p :    -0.000000
      px      :     0.000000
      py      :    -0.000000
      dz2     :     1.000000  d :     5.000000
      dxz     :     1.000000
      dyz     :     1.000000
      dx2y2   :     1.000000
      dxy     :     1.000000
      f0      :     0.000000  f :     0.000000
      f+1     :    -0.000000
      f-1     :     0.000000
      f+2     :     0.000000
      f-2     :     0.000000
      f+3     :     0.000000
      f-3     :    -0.000000
      g0      :     0.000000  g :     0.000000
      g+1     :     0.000000
      g-1     :     0.000000
      g+2     :     0.000000
      g-2     :     0.000000
      g+3     :     0.000000
      g-3     :     0.000000
      g+4     :     0.000000
      g-4     :     0.000000


                     *******************************
                     * LOEWDIN POPULATION ANALYSIS *
                     *******************************

-------------------------------------------
LOEWDIN ATOMIC CHARGES AND SPIN POPULATIONS
-------------------------------------------
   0 Mo:    0.000000    6.000000

----------------------------------------------------
LOEWDIN REDUCED ORBITAL CHARGES AND SPIN POPULATIONS
----------------------------------------------------
CHARGE
  0 Mos       :     9.000000  s :     9.000000
      pz      :     6.000000  p :    18.000000
      px      :     6.000000
      py      :     6.000000
      dz2     :     3.000000  d :    15.000000
      dxz     :     3.000000
      dyz     :     3.000000
      dx2y2   :     3.000000
      dxy     :     3.000000
      f0      :     0.000000  f :     0.000000
      f+1     :     0.000000
      f-1     :     0.000000
      f+2     :     0.000000
      f-2     :     0.000000
      f+3     :     0.000000
      f-3     :     0.000000
      g0      :     0.000000  g :     0.000000
      g+1     :     0.000000
      g-1     :     0.000000
      g+2     :     0.000000
      g-2     :     0.000000
      g+3     :     0.000000
      g-3     :     0.000000
      g+4     :     0.000000
      g-4     :     0.000000

SPIN
  0 Mos       :     1.000000  s :     1.000000
      pz      :    -0.000000  p :    -0.000000
      px      :     0.000000
      py      :    -0.000000
      dz2     :     1.000000  d :     5.000000
      dxz     :     1.000000
      dyz     :     1.000000
      dx2y2   :     1.000000
      dxy     :     1.000000
      f0      :     0.000000  f :     0.000000
      f+1     :    -0.000000
      f-1     :     0.000000
      f+2     :     0.000000
      f-2     :     0.000000
      f+3     :     0.000000
      f-3     :    -0.000000
      g0      :     0.000000  g :     0.000000
      g+1     :     0.000000
      g-1     :     0.000000
      g+2     :     0.000000
      g-2     :     0.000000
      g+3     :     0.000000
      g-3     :     0.000000
      g+4     :     0.000000
      g-4     :     0.000000


                      *****************************
                      * MAYER POPULATION ANALYSIS *
                      *****************************

  NA   - Mulliken gross atomic population
  ZA   - Total nuclear charge
  QA   - Mulliken gross atomic charge
  VA   - Mayer's total valence
  BVA  - Mayer's bonded valence
  FA   - Mayer's free valence

  ATOM       NA         ZA         QA         VA         BVA        FA
  0 Mo    42.0000    42.0000     0.0000     6.0013     0.0000     6.0013

  Mayer bond orders larger than 0.100000


-------
TIMINGS
-------

Total SCF time: 0 days 0 hours 2 min 5 sec 

Total time                  ....     125.858 sec
Sum of individual times     ....      99.389 sec  ( 79.0%)

Fock matrix formation       ....      84.569 sec  ( 67.2%)
  XC integration            ....      11.138 sec  ( 13.2% of F)
    Basis function eval.    ....       0.025 sec  (  0.2% of XC)
    Density eval.           ....       0.059 sec  (  0.5% of XC)
    XC-Functional eval.     ....       0.128 sec  (  1.1% of XC)
    XC-Potential eval.      ....       0.185 sec  (  1.7% of XC)
Diagonalization             ....       0.102 sec  (  0.1%)
Density matrix formation    ....       0.006 sec  (  0.0%)
Population analysis         ....       0.629 sec  (  0.5%)
Initial guess               ....      12.627 sec  ( 10.0%)
Orbital Transformation      ....       0.000 sec  (  0.0%)
Orbital Orthonormalization  ....       0.000 sec  (  0.0%)
DIIS solution               ....       0.027 sec  (  0.0%)
SOSCF solution              ....       0.316 sec  (  0.3%)
Grid generation             ....       1.113 sec  (  0.9%)

Maximum memory used throughout the entire SCF-calculation: 229.7 MB

-------------------------   --------------------
FINAL SINGLE POINT ENERGY     -4103.960146079921
-------------------------   --------------------


                            ***************************************
                            *     ORCA property calculations      *
                            ***************************************

                                    ---------------------
                                    Active property flags
                                    ---------------------
   (+) Dipole Moment


------------------------------------------------------------------------------
                       ORCA ELECTRIC PROPERTIES CALCULATION
------------------------------------------------------------------------------

Dipole Moment Calculation                       ... on
Quadrupole Moment Calculation                   ... off
Polarizability Calculation                      ... off
GBWName                                         ... Mo_sarc-zora-tzvpp_pbe.gbw
Electron density                                ... Mo_sarc-zora-tzvpp_pbe.scfp
The origin for moment calculation is the CENTER OF MASS  = ( 0.000000,  0.000000  0.000000)

-------------
DIPOLE MOMENT
-------------
                                X             Y             Z
Electronic contribution:      0.00000      -0.00000      -0.00000
Nuclear contribution   :      0.00000       0.00000       0.00000
                        -----------------------------------------
Total Dipole Moment    :      0.00000      -0.00000      -0.00000
                        -----------------------------------------
Magnitude (a.u.)       :      0.00000
Magnitude (Debye)      :      0.00000



--------------------
Rotational spectrum 
--------------------
 
Rotational constants in cm-1:     0.000000     0.000000     0.000000 
Rotational constants in MHz :     0.000000     0.000000     0.000000 

 Dipole components along the rotational axes: 
x,y,z [a.u.] :     0.000000    -0.000000    -0.000000 
x,y,z [Debye]:     0.000000    -0.000000    -0.000000 

 

Timings for individual modules:

Sum of individual times         ...      233.713 sec (=   3.895 min)
GTO integral calculation        ...       84.759 sec (=   1.413 min)  36.3 %
Relativistic integrals          ...       19.073 sec (=   0.318 min)   8.2 %
SCF iterations                  ...      129.880 sec (=   2.165 min)  55.6 %
                             ****ORCA TERMINATED NORMALLY****
TOTAL RUN TIME: 0 days 0 hours 4 minutes 5 seconds 481 msec
