
                                 *****************
                                 * O   R   C   A *
                                 *****************

                                            #,                                       
                                            ###                                      
                                            ####                                     
                                            #####                                    
                                            ######                                   
                                           ########,                                 
                                     ,,################,,,,,                         
                               ,,#################################,,                 
                          ,,##########################################,,             
                       ,#########################################, ''#####,          
                    ,#############################################,,   '####,        
                  ,##################################################,,,,####,       
                ,###########''''           ''''###############################       
              ,#####''   ,,,,##########,,,,          '''####'''          '####       
            ,##' ,,,,###########################,,,                        '##       
           ' ,,###''''                  '''############,,,                           
         ,,##''                                '''############,,,,        ,,,,,,###''
      ,#''                                            '''#######################'''  
     '                                                          ''''####''''         
             ,#######,   #######,   ,#######,      ##                                
            ,#'     '#,  ##    ##  ,#'     '#,    #''#        ######   ,####,        
            ##       ##  ##   ,#'  ##            #'  '#       #        #'  '#        
            ##       ##  #######   ##           ,######,      #####,   #    #        
            '#,     ,#'  ##    ##  '#,     ,#' ,#      #,         ##   #,  ,#        
             '#######'   ##     ##  '#######'  #'      '#     #####' # '####'        



                  #######################################################
                  #                        -***-                        #
                  #          Department of theory and spectroscopy      #
                  #    Directorship and core code : Frank Neese         #
                  #        Max Planck Institute fuer Kohlenforschung    #
                  #                Kaiser Wilhelm Platz 1               #
                  #                 D-45470 Muelheim/Ruhr               #
                  #                      Germany                        #
                  #                                                     #
                  #                  All rights reserved                #
                  #                        -***-                        #
                  #######################################################


                         Program Version 5.0.1 -  RELEASE  -


 With contributions from (in alphabetic order):
   Daniel Aravena         : Magnetic Suceptibility
   Michael Atanasov       : Ab Initio Ligand Field Theory (pilot matlab implementation)
   Alexander A. Auer      : GIAO ZORA, VPT2 properties, NMR spectrum
   Ute Becker             : Parallelization
   Giovanni Bistoni       : ED, misc. LED, open-shell LED, HFLD
   Martin Brehm           : Molecular dynamics
   Dmytro Bykov           : SCF Hessian
   Vijay G. Chilkuri      : MRCI spin determinant printing, contributions to CSF-ICE
   Dipayan Datta          : RHF DLPNO-CCSD density
   Achintya Kumar Dutta   : EOM-CC, STEOM-CC
   Dmitry Ganyushin       : Spin-Orbit,Spin-Spin,Magnetic field MRCI
   Miquel Garcia          : C-PCM and meta-GGA Hessian, CC/C-PCM, Gaussian charge scheme
   Yang Guo               : DLPNO-NEVPT2, F12-NEVPT2, CIM, IAO-localization
   Andreas Hansen         : Spin unrestricted coupled pair/coupled cluster methods
   Benjamin Helmich-Paris : MC-RPA, TRAH-SCF, COSX integrals
   Lee Huntington         : MR-EOM, pCC
   Robert Izsak           : Overlap fitted RIJCOSX, COSX-SCS-MP3, EOM
   Marcus Kettner         : VPT2
   Christian Kollmar      : KDIIS, OOCD, Brueckner-CCSD(T), CCSD density, CASPT2, CASPT2-K
   Simone Kossmann        : Meta GGA functionals, TD-DFT gradient, OOMP2, MP2 Hessian
   Martin Krupicka        : Initial AUTO-CI
   Lucas Lang             : DCDCAS
   Marvin Lechner         : AUTO-CI (C++ implementation), FIC-MRCC
   Dagmar Lenk            : GEPOL surface, SMD
   Dimitrios Liakos       : Extrapolation schemes; Compound Job, initial MDCI parallelization
   Dimitrios Manganas     : Further ROCIS development; embedding schemes
   Dimitrios Pantazis     : SARC Basis sets
   Anastasios Papadopoulos: AUTO-CI, single reference methods and gradients
   Taras Petrenko         : DFT Hessian,TD-DFT gradient, ASA, ECA, R-Raman, ABS, FL, XAS/XES, NRVS
   Peter Pinski           : DLPNO-MP2, DLPNO-MP2 Gradient
   Christoph Reimann      : Effective Core Potentials
   Marius Retegan         : Local ZFS, SOC
   Christoph Riplinger    : Optimizer, TS searches, QM/MM, DLPNO-CCSD(T), (RO)-DLPNO pert. Triples
   Tobias Risthaus        : Range-separated hybrids, TD-DFT gradient, RPA, STAB
   Michael Roemelt        : Original ROCIS implementation
   Masaaki Saitow         : Open-shell DLPNO-CCSD energy and density
   Barbara Sandhoefer     : DKH picture change effects
   Avijit Sen             : IP-ROCIS
   Kantharuban Sivalingam : CASSCF convergence, NEVPT2, FIC-MRCI
   Bernardo de Souza      : ESD, SOC TD-DFT
   Georgi Stoychev        : AutoAux, RI-MP2 NMR, DLPNO-MP2 response
   Willem Van den Heuvel  : Paramagnetic NMR
   Boris Wezisla          : Elementary symmetry handling
   Frank Wennmohs         : Technical directorship


 We gratefully acknowledge several colleagues who have allowed us to
 interface, adapt or use parts of their codes:
   Stefan Grimme, W. Hujo, H. Kruse, P. Pracht,  : VdW corrections, initial TS optimization,
                  C. Bannwarth, S. Ehlert          DFT functionals, gCP, sTDA/sTD-DF
   Ed Valeev, F. Pavosevic, A. Kumar             : LibInt (2-el integral package), F12 methods
   Garnet Chan, S. Sharma, J. Yang, R. Olivares  : DMRG
   Ulf Ekstrom                                   : XCFun DFT Library
   Mihaly Kallay                                 : mrcc  (arbitrary order and MRCC methods)
   Jiri Pittner, Ondrej Demel                    : Mk-CCSD
   Frank Weinhold                                : gennbo (NPA and NBO analysis)
   Christopher J. Cramer and Donald G. Truhlar   : smd solvation model
   Lars Goerigk                                  : TD-DFT with DH, B97 family of functionals
   V. Asgeirsson, H. Jonsson                     : NEB implementation
   FAccTs GmbH                                   : IRC, NEB, NEB-TS, DLPNO-Multilevel, CI-OPT
                                                   MM, QMMM, 2- and 3-layer-ONIOM, Crystal-QMMM,
                                                   LR-CPCM, SF, NACMEs, symmetry and pop. for TD-DFT,
                                                   nearIR, NL-DFT gradient (VV10), updates on ESD,
                                                   ML-optimized integration grids
   S Lehtola, MJT Oliveira, MAL Marques          : LibXC Library
   Liviu Ungur et al                             : ANISO software


 Your calculation uses the libint2 library for the computation of 2-el integrals
 For citations please refer to: http://libint.valeyev.net

 Your ORCA version has been built with support for libXC version: 5.1.0
 For citations please refer to: https://tddft.org/programs/libxc/

 This ORCA versions uses:
   CBLAS   interface :  Fast vector & matrix operations
   LAPACKE interface :  Fast linear algebra routines
   SCALAPACK package :  Parallel linear algebra routines
   Shared memory     :  Shared parallel matrices
   BLAS/LAPACK       :  OpenBLAS 0.3.15  USE64BITINT DYNAMIC_ARCH NO_AFFINITY Haswell SINGLE_THREADED
        Core in use  :  Haswell
   Copyright (c) 2011-2014, The OpenBLAS Project


SCAN-COORDS

Reading of a custom basis requested
Basis file         : Nb_ano-r3.basis
READING GTO-BASIS: NIOBIUM
Basis successfully read

================================================================================

----- Orbital basis set information -----
================================================================================
                                        WARNINGS
                       Please study these warnings very carefully!
================================================================================


INFO   : the flag for use of the SHARK integral package has been found!

================================================================================
                                       INPUT FILE
================================================================================
NAME = Nb_ano-r3_pbe.inp
|  1> !uks pbe nori verytightscf nososcf notrah
|  2> 
|  3> %pal
|  4>   nprocs 32
|  5> end
|  6> %coords
|  7>   charge 0
|  8>   mult 6
|  9>   units bohrs
| 10>   coords
| 11>     Nb 0.0 0.0 0.0
| 12>   end
| 13> end
| 14> %basis
| 15>   gtoname "Nb_ano-r3.basis"
| 16>   delECP Nb
| 17> end
| 18> %rel
| 19>   method zora
| 20>   modelpot 1, 0, 0, 0
| 21>   c 137.035999084
| 22> end
| 23> 
| 24>                          ****END OF INPUT****
================================================================================

                       ****************************
                       * Single Point Calculation *
                       ****************************

---------------------------------
CARTESIAN COORDINATES (ANGSTROEM)
---------------------------------
  Nb     0.000000    0.000000    0.000000

----------------------------
CARTESIAN COORDINATES (A.U.)
----------------------------
  NO LB      ZA    FRAG     MASS         X           Y           Z
   0 Nb   41.0000    0    92.910    0.000000    0.000000    0.000000

--------------------------------
INTERNAL COORDINATES (ANGSTROEM)
--------------------------------
 Nb     0   0   0     0.000000000000     0.00000000     0.00000000

---------------------------
INTERNAL COORDINATES (A.U.)
---------------------------
 Nb     0   0   0     0.000000000000     0.00000000     0.00000000

---------------------
BASIS SET INFORMATION
---------------------
There are 1 groups of distinct atoms

 Group   1 Type Nb  : 184s90p72d18f10g3h contracted to 8s6p6d3f2g1h pattern {2323232323232323/151515151515/121212121212/666/55/3}

Atom   0Nb   basis set group =>   1

Checking for AutoStart:
The File: Nb_ano-r3_pbe.gbw exists
Trying to determine its content:
     ... Fine, the file contains calculation information
     ... Fine, the calculation information was read
     ... Fine, the file contains a basis set
     ... Fine, the basis set was read
     ... Fine, the file contains a geometry
     ... Fine, the geometry was read
     ... Fine, the file contains a set of orbitals
     ... Fine, the orbitals can be read
     => possible old guess file was deleted
     => GBW file was renamed to GES file
     => GES file is set as startup file
     => Guess is set to MORead
     ... now leaving AutoStart



           ************************************************************
           *        Program running with 32 parallel MPI-processes    *
           *              working on a common directory               *
           ************************************************************
------------------------------------------------------------------------------
                           ORCA GTO INTEGRAL CALCULATION
------------------------------------------------------------------------------
------------------------------------------------------------------------------
                   ___                                                        
                  /   \      - P O W E R E D   B Y -                         
                 /     \                                                     
                 |  |  |   _    _      __       _____    __    __             
                 |  |  |  | |  | |    /  \     |  _  \  |  |  /  |          
                  \  \/   | |  | |   /    \    | | | |  |  | /  /          
                 / \  \   | |__| |  /  /\  \   | |_| |  |  |/  /          
                |  |  |   |  __  | /  /__\  \  |    /   |      \           
                |  |  |   | |  | | |   __   |  |    \   |  |\   \          
                \     /   | |  | | |  |  |  |  | |\  \  |  | \   \       
                 \___/    |_|  |_| |__|  |__|  |_| \__\ |__|  \__/        
                                                                              
                      - O R C A' S   B I G   F R I E N D -                    
                                      &                                       
                       - I N T E G R A L  F E E D E R -                       
                                                                              
 v1 FN, 2020, v2 2021                                                         
------------------------------------------------------------------------------


Reading SHARK input file Nb_ano-r3_pbe.SHARKINP.tmp ... ok
----------------------
SHARK INTEGRAL PACKAGE
----------------------

Number of atoms                             ...      1
Number of basis functions                   ...    106
Number of shells                            ...     26
Maximum angular momentum                    ...      5
Integral batch strategy                     ... SHARK/LIBINT Hybrid
RI-J (if used) integral strategy            ... SPLIT-RIJ (Revised 2003 algorithm where possible)
Printlevel                                  ...      1
Contraction scheme used                     ... SEGMENTED contraction
Coulomb Range Separation                    ... NOT USED
Exchange Range Separation                   ... NOT USED
Finite Nucleus Model                        ... NOT USED
Auxiliary Coulomb fitting basis             ... NOT available
Auxiliary J/K fitting basis                 ... NOT available
Auxiliary Correlation fitting basis         ... NOT available
Auxiliary 'external' fitting basis          ... NOT available
Integral threshold                          ...     1.000000e-12
Primitive cut-off                           ...     1.000000e-14
Primitive pair pre-selection threshold      ...     1.000000e-14

Calculating pre-screening integrals         ... done ( 25.1 sec) Dimension = 26
Organizing shell pair data                  ... done (  0.5 sec)
Shell pair information
Total number of shell pairs                 ...       351
Shell pairs after pre-screening             ...       351
Total number of primitive shell pairs       ...     74371
Primitive shell pairs kept                  ...     74371
          la=0 lb=0:     36 shell pairs
          la=1 lb=0:     48 shell pairs
          la=1 lb=1:     21 shell pairs
          la=2 lb=0:     48 shell pairs
          la=2 lb=1:     36 shell pairs
          la=2 lb=2:     21 shell pairs
          la=3 lb=0:     24 shell pairs
          la=3 lb=1:     18 shell pairs
          la=3 lb=2:     18 shell pairs
          la=3 lb=3:      6 shell pairs
          la=4 lb=0:     16 shell pairs
          la=4 lb=1:     12 shell pairs
          la=4 lb=2:     12 shell pairs
          la=4 lb=3:      6 shell pairs
          la=4 lb=4:      3 shell pairs
          la=5 lb=0:      8 shell pairs
          la=5 lb=1:      6 shell pairs
          la=5 lb=2:      6 shell pairs
          la=5 lb=3:      3 shell pairs
          la=5 lb=4:      2 shell pairs
          la=5 lb=5:      1 shell pairs

Calculating one electron integrals          ... done (  0.2 sec)
Calculating Nuclear repulsion               ... done (  0.0 sec) ENN=      0.000000000000 Eh

SHARK setup successfully completed in  26.1 seconds

Maximum memory used throughout the entire GTOINT-calculation: 386.5 MB


           ************************************************************
           *        Program running with 32 parallel MPI-processes    *
           *              working on a common directory               *
           ************************************************************
------------------------------------------------------------------------------
                          ORCA RELATIVISTIC HAMILTONIAN
------------------------------------------------------------------------------

Relativistic Method            ... ZORA(MP)
Treatment of potential         ... Van Wuellen
Nucleus model                  ... Point Nucleus
Speed of light used            ... 137.03599908400000


            *************************************************
            *         ZERO ORDER REGULAR APPROXIMATION      *
            *                     ZORA(MP)                  *
            *            Programmed by FN according to      *
            *                   C. van Wuellen              *
            *       J. Chem. Phys. (1998) vol 109, 392-399  *
            *************************************************

Terms included in model potential: +V(e,N)
Basis function cutoff value   ... 1.000000e-12
Loading the fitted atomic densities  (DKH4)  ... done
Calculating the cutoffs                      ... done
Number of fit functions                      ... 28
Setting up the integration grid ... done

Maximum memory used throughout the entire REL-calculation: 10.3 MB


           ************************************************************
           *        Program running with 32 parallel MPI-processes    *
           *              working on a common directory               *
           ************************************************************
-------------------------------------------------------------------------------
                                 ORCA SCF
-------------------------------------------------------------------------------

------------
SCF SETTINGS
------------
Hamiltonian:
 Density Functional     Method          .... DFT(GTOs)
 Exchange Functional    Exchange        .... PBE
   PBE kappa parameter   XKappa         ....  0.804000
   PBE mue parameter    XMuePBE         ....  0.219520
 Correlation Functional Correlation     .... PBE
   PBE beta parameter  CBetaPBE         ....  0.066725
 LDA part of GGA corr.  LDAOpt          .... PW91-LDA
 Gradients option       PostSCFGGA      .... off
   Density functional embedding theory  .... OFF
   NL short-range parameter             ....  6.400000

Relativistic Settings:
 Scalar relativistic method             .... ZORA
 Speed of light used       Velit        ....       137.035999
Orbital energies will be scaled


General Settings:
 Integral files         IntName         .... Nb_ano-r3_pbe
 Hartree-Fock type      HFTyp           .... UHF
 Total Charge           Charge          ....    0
 Multiplicity           Mult            ....    6
 Number of Electrons    NEL             ....   41
 Basis Dimension        Dim             ....  106
 Nuclear Repulsion      ENuc            ....      0.0000000000 Eh

Convergence Acceleration:
 DIIS                   CNVDIIS         .... on
   Start iteration      DIISMaxIt       ....    12
   Startup error        DIISStart       ....  0.200000
   # of expansion vecs  DIISMaxEq       ....     5
   Bias factor          DIISBfac        ....   1.050
   Max. coefficient     DIISMaxC        ....  10.000
 Trust-Rad. Augm. Hess. CNVTRAH         .... off
 SOSCF                  CNVSOSCF        .... off
 Level Shifting         CNVShift        .... on
   Level shift para.    LevelShift      ....    0.2500
   Turn off err/grad.   ShiftErr        ....    0.0010
 Zerner damping         CNVZerner       .... off
 Static damping         CNVDamp         .... on
   Fraction old density DampFac         ....    0.7000
   Max. Damping (<1)    DampMax         ....    0.9800
   Min. Damping (>=0)   DampMin         ....    0.0000
   Turn off err/grad.   DampErr         ....    0.1000
 Fernandez-Rico         CNVRico         .... off

SCF Procedure:
 Maximum # iterations   MaxIter         ....   125
 SCF integral mode      SCFMode         .... Direct
   Integral package                     .... SHARK and LIBINT hybrid scheme
 Reset frequency        DirectResetFreq ....    20
 Integral Threshold     Thresh          ....  1.000e-12 Eh
 Primitive CutOff       TCut            ....  1.000e-14 Eh

Convergence Tolerance:
 Convergence Check Mode ConvCheckMode   .... Total+1el-Energy
 Convergence forced     ConvForced      .... 0
 Energy Change          TolE            ....  1.000e-09 Eh
 1-El. energy change                    ....  1.000e-06 Eh
 DIIS Error             TolErr          ....  1.000e-08


Diagonalization of the overlap matrix:
Smallest eigenvalue                        ... 1.000e+00
Time for diagonalization                   ...    0.003 sec
Threshold for overlap eigenvalues          ... 1.000e-08
Number of eigenvalues below threshold      ... 0
Time for construction of square roots      ...    0.041 sec
Total time needed                          ...    0.046 sec

---------------------
INITIAL GUESS: MOREAD
---------------------
Guess MOs are being read from file: Nb_ano-r3_pbe.ges
Input Geometry matches current geometry (good)
Input basis set matches current basis set (good)
MOs were renormalized
MOs were reorthogonalized (Cholesky)
                      ------------------
                      INITIAL GUESS DONE (   0.0 sec)
                      ------------------
-------------------
DFT GRID GENERATION
-------------------

General Integration Accuracy     IntAcc      ... 4.388
Radial Grid Type                 RadialGrid  ... OptM3 with GC (2021)
Angular Grid (max. ang.)         AngularGrid ... 4 (Lebedev-302)
Angular grid pruning method      GridPruning ... 4 (adaptive)
Weight generation scheme         WeightScheme... Becke
Basis function cutoff            BFCut       ... 1.0000e-12
Integration weight cutoff        WCut        ... 1.0000e-14
Angular grids for H and He will be reduced by one unit
Partially contracted basis set               ... off
Rotationally invariant grid construction     ... off

Total number of grid points                  ...    27544
Total number of batches                      ...      431
Average number of points per batch           ...       63
Average number of grid points per atom       ...    27544
Time for grid setup =    0.686 sec

--------------
SCF ITERATIONS
--------------
ITER       Energy         Delta-E        Max-DP      RMS-DP      [F,P]     Damp
               ***  Starting incremental Fock matrix formation  ***
  0  -3863.3312806878   0.000000000000 0.01521983  0.00039825  8.3411162 0.7000
  1  -3863.5011684445  -0.169887756763 0.01508948  0.00026971  5.8324552 0.7000
  2  -3863.6124862629  -0.111317818399 0.01209961  0.00021433  4.0788184 0.7000
  3  -3863.6888849776  -0.076398714663 0.01417796  0.00019077  2.8529808 0.7000
  4  -3863.7420042917  -0.053119314091 0.01490712  0.00016637  1.9957629 0.7000
  5  -3863.7790640321  -0.037059740414 0.01466259  0.00014306  1.3961900 0.7000
  6  -3863.8049762999  -0.025912267779 0.01391406  0.00012415  0.9767770 0.7000
  7  -3863.8231231392  -0.018146839346 0.01294559  0.00010920  0.6833710 0.7000
  8  -3863.8358436655  -0.012720526302 0.01190806  0.00009682  0.4781071 0.7000
  9  -3863.8447654061  -0.008921740631 0.01087636  0.00008612  0.3345026 0.7000
 10  -3863.8510254307  -0.006260024546 0.00988670  0.00007671  0.2340336 0.7000
                               ***Turning on DIIS***
 11  -3863.8554196120  -0.004394181298 0.00895644  0.00006839  0.1637420 0.7000
 12  -3863.8585054210  -0.003085808980 0.00816270  0.00006156  0.1145631 0.7000
 13  -3863.8606737779  -0.002168356929 0.02476718  0.00018485  0.0801803 0.0000
 14  -3863.8657598776  -0.005086099683 0.00521998  0.00003784  0.0015156 0.0000
 15  -3863.8657774190  -0.000017541372 0.00480814  0.00003478  0.0013525 0.0000
 16  -3863.8657916806  -0.000014261620 0.00425946  0.00003065  0.0012057 0.0000
 17  -3863.8658027820  -0.000011101378 0.00399490  0.00002886  0.0010664 0.0000
 18  -3863.8658117972  -0.000009015218 0.02578354  0.00018368  0.0009525 0.0000
 19  -3863.8658419791  -0.000030181888 0.00269935  0.00001972  0.0005549 0.0000
               *** Restarting incremental Fock matrix formation ***
                                   *** Resetting DIIS ***
 20  -3863.8658429772  -0.000000998178 0.00043215  0.00000334  0.0000584 0.0000
 21  -3863.8658429982  -0.000000020981 0.00024934  0.00000222  0.0000304 0.0000
 22  -3863.8658429999  -0.000000001691 0.00038970  0.00000322  0.0000248 0.0000
 23  -3863.8658430012  -0.000000001322 0.00027670  0.00000223  0.0000205 0.0000
 24  -3863.8658430024  -0.000000001183 0.00006147  0.00000075  0.0000049 0.0000
 25  -3863.8658430028  -0.000000000367 0.00006363  0.00000059  0.0000019 0.0000
 26  -3863.8658430031  -0.000000000302 0.00006564  0.00000060  0.0000019 0.0000
 27  -3863.8658430034  -0.000000000279 0.00006276  0.00000058  0.0000019 0.0000
 28  -3863.8658430037  -0.000000000305 0.00005504  0.00000050  0.0000019 0.0000
 29  -3863.8658430039  -0.000000000258 0.00004008  0.00000037  0.0000019 0.0000
 30  -3863.8658430041  -0.000000000138 0.00000590  0.00000006  0.0000020 0.0000
 31  -3863.8658430041  -0.000000000011 0.00002491  0.00000025  0.0000019 0.0000
                 **** Energy Check signals convergence ****

               *****************************************************
               *                     SUCCESS                       *
               *           SCF CONVERGED AFTER  32 CYCLES          *
               *****************************************************


----------------
TOTAL SCF ENERGY
----------------

Total Energy       :        -3863.86584300 Eh         -105141.13486 eV

Components:
Nuclear Repulsion  :            0.00000000 Eh               0.00000 eV
Electronic Energy  :        -3863.86584300 Eh         -105141.13486 eV
One Electron Energy:        -5318.22738697 Eh         -144716.32444 eV
Two Electron Energy:         1454.36154397 Eh           39575.18958 eV

Virial components:
Potential Energy   :        -7896.60522463 Eh         -214877.55233 eV
Kinetic Energy     :         4032.73938163 Eh          109736.41747 eV
Virial Ratio       :            1.95812436


DFT components:
N(Alpha)           :       22.999999997525 electrons
N(Beta)            :       17.999999997393 electrons
N(Total)           :       40.999999994918 electrons
E(X)               :     -117.682977616526 Eh       
E(C)               :       -2.013053323648 Eh       
E(XC)              :     -119.696030940174 Eh       
DFET-embed. en.    :        0.000000000000 Eh       

---------------
SCF CONVERGENCE
---------------

  Last Energy change         ...   -9.8225e-11  Tolerance :   1.0000e-09
  Last MAX-Density change    ...    3.9852e-05  Tolerance :   1.0000e-08
  Last RMS-Density change    ...    3.6008e-07  Tolerance :   1.0000e-09
  Last DIIS Error            ...    1.9762e-06  Tolerance :   1.0000e-08

             **** THE GBW FILE WAS UPDATED (Nb_ano-r3_pbe.gbw) ****
             **** DENSITY Nb_ano-r3_pbe.scfp WAS UPDATED ****
             **** ENERGY FILE WAS UPDATED (Nb_ano-r3_pbe.en.tmp) ****
----------------------
UHF SPIN CONTAMINATION
----------------------

Warning: in a DFT calculation there is little theoretical justification to 
         calculate <S**2> as in Hartree-Fock theory. We will do it anyways
         but you should keep in mind that the values have only limited relevance

Expectation value of <S**2>     :     8.750948
Ideal value S*(S+1) for S=2.5   :     8.750000
Deviation                       :     0.000948

             **** THE GBW FILE WAS UPDATED (Nb_ano-r3_pbe.gbw) ****
             **** DENSITY Nb_ano-r3_pbe.scfp WAS UPDATED ****
----------------
ORBITAL ENERGIES
----------------
                 SPIN UP ORBITALS
  NO   OCC          E(Eh)            E(eV) 
   0   1.0000    -707.455610    -19250.8458 
   1   1.0000     -97.335759     -2648.6407 
   2   1.0000     -87.119955     -2370.6545 
   3   1.0000     -87.116254     -2370.5538 
   4   1.0000     -87.116254     -2370.5538 
   5   1.0000     -16.166615      -439.9159 
   6   1.0000     -12.807327      -348.5051 
   7   1.0000     -12.797772      -348.2451 
   8   1.0000     -12.797771      -348.2451 
   9   1.0000      -7.231903      -196.7901 
  10   1.0000      -7.230177      -196.7431 
  11   1.0000      -7.230177      -196.7431 
  12   1.0000      -7.223486      -196.5611 
  13   1.0000      -7.223486      -196.5611 
  14   1.0000      -2.159437       -58.7613 
  15   1.0000      -1.296947       -35.2917 
  16   1.0000      -1.285053       -34.9681 
  17   1.0000      -1.285052       -34.9680 
  18   1.0000      -0.163617        -4.4522 
  19   1.0000      -0.144052        -3.9199 
  20   1.0000      -0.144050        -3.9198 
  21   1.0000      -0.129032        -3.5111 
  22   1.0000      -0.129032        -3.5111 
  23   0.0000      -0.126050        -3.4300 
  24   0.0000      -0.004412        -0.1201 
  25   0.0000      -0.000478        -0.0130 
  26   0.0000      -0.000478        -0.0130 
  27   0.0000       0.035773         0.9734 
  28   0.0000       0.047565         1.2943 
  29   0.0000       0.047565         1.2943 
  30   0.0000       0.049928         1.3586 
  31   0.0000       0.050098         1.3632 
  32   0.0000       0.050098         1.3632 
  33   0.0000       0.303272         8.2525 
  34   0.0000       0.303273         8.2525 
  35   0.0000       0.311058         8.4643 
  36   0.0000       0.311058         8.4643 
  37   0.0000       0.311347         8.4722 
  38   0.0000       0.407128        11.0785 
  39   0.0000       0.407129        11.0785 
  40   0.0000       0.411821        11.2062 
  41   0.0000       0.411824        11.2063 
  42   0.0000       0.418642        11.3918 
  43   0.0000       0.418642        11.3918 
  44   0.0000       0.420870        11.4524 
  45   0.0000       0.519340        14.1320 
  46   0.0000       0.875864        23.8335 
  47   0.0000       0.881275        23.9807 
  48   0.0000       0.881276        23.9807 
  49   0.0000       1.336306        36.3627 
  50   0.0000       1.336306        36.3627 
  51   0.0000       1.336378        36.3647 
  52   0.0000       1.336383        36.3648 
  53   0.0000       1.343149        36.5489 
  54   0.0000       1.343156        36.5491 
  55   0.0000       1.350777        36.7565 
  56   0.0000       1.350777        36.7565 
  57   0.0000       1.353763        36.8378 
  58   0.0000       1.356044        36.8998 
  59   0.0000       1.356045        36.8999 
  60   0.0000       1.360141        37.0113 
  61   0.0000       1.360142        37.0114 
  62   0.0000       1.370409        37.2907 
  63   0.0000       1.371964        37.3330 
  64   0.0000       1.371964        37.3330 
  65   0.0000       1.445438        39.3324 
  66   0.0000       1.445439        39.3324 
  67   0.0000       1.458402        39.6851 
  68   0.0000       1.458402        39.6851 
  69   0.0000       1.460287        39.7364 
  70   0.0000       2.945223        80.1436 
  71   0.0000       3.715301       101.0985 
  72   0.0000       3.715302       101.0985 
  73   0.0000       3.716375       101.1277 
  74   0.0000       3.716377       101.1278 
  75   0.0000       3.722412       101.2920 
  76   0.0000       3.729261       101.4783 
  77   0.0000       3.729261       101.4783 
  78   0.0000       4.454340       121.2088 
  79   0.0000       4.454341       121.2088 
  80   0.0000       4.463165       121.4489 
  81   0.0000       4.467057       121.5548 
  82   0.0000       4.467057       121.5548 
  83   0.0000       4.718708       128.4026 
  84   0.0000       4.718710       128.4026 
  85   0.0000       4.721469       128.4777 
  86   0.0000       4.721469       128.4777 
  87   0.0000       4.721559       128.4802 
  88   0.0000       4.721561       128.4802 
  89   0.0000       4.727266       128.6355 
  90   0.0000       4.735872       128.8696 
  91   0.0000       4.735872       128.8696 
  92   0.0000       4.776885       129.9857 
  93   0.0000       4.787282       130.2686 
  94   0.0000       4.787283       130.2686 
  95   0.0000       5.310870       144.5161 
  96   0.0000       5.310875       144.5162 
  97   0.0000       5.312048       144.5482 
  98   0.0000       5.312066       144.5487 
  99   0.0000       5.315047       144.6298 
 100   0.0000       5.315048       144.6298 
 101   0.0000       5.319076       144.7394 
 102   0.0000       5.319085       144.7397 
 103   0.0000       5.325033       144.9015 
 104   0.0000       5.330618       145.0535 
 105   0.0000       5.330618       145.0535 

                 SPIN DOWN ORBITALS
  NO   OCC          E(Eh)            E(eV) 
   0   1.0000    -707.455569    -19250.8447 
   1   1.0000     -97.324857     -2648.3440 
   2   1.0000     -87.113202     -2370.4708 
   3   1.0000     -87.107547     -2370.3169 
   4   1.0000     -87.107547     -2370.3168 
   5   1.0000     -16.160133      -439.7396 
   6   1.0000     -12.801512      -348.3468 
   7   1.0000     -12.789936      -348.0318 
   8   1.0000     -12.789935      -348.0318 
   9   1.0000      -7.225961      -196.6284 
  10   1.0000      -7.217937      -196.4101 
  11   1.0000      -7.217937      -196.4100 
  12   1.0000      -7.211943      -196.2469 
  13   1.0000      -7.211943      -196.2469 
  14   1.0000      -2.089407       -56.8557 
  15   1.0000      -1.230314       -33.4785 
  16   1.0000      -1.197383       -32.5825 
  17   1.0000      -1.197381       -32.5824 
  18   0.0000      -0.068585        -1.8663 
  19   0.0000      -0.053010        -1.4425 
  20   0.0000      -0.033830        -0.9206 
  21   0.0000      -0.033829        -0.9205 
  22   0.0000      -0.023383        -0.6363 
  23   0.0000      -0.023383        -0.6363 
  24   0.0000       0.090158         2.4533 
  25   0.0000       0.095530         2.5995 
  26   0.0000       0.103807         2.8247 
  27   0.0000       0.103808         2.8248 
  28   0.0000       0.106182         2.8894 
  29   0.0000       0.108826         2.9613 
  30   0.0000       0.108826         2.9613 
  31   0.0000       0.110625         3.0103 
  32   0.0000       0.110626         3.0103 
  33   0.0000       0.385392        10.4870 
  34   0.0000       0.396990        10.8026 
  35   0.0000       0.396990        10.8027 
  36   0.0000       0.402336        10.9481 
  37   0.0000       0.402336        10.9481 
  38   0.0000       0.507104        13.7990 
  39   0.0000       0.510987        13.9047 
  40   0.0000       0.510988        13.9047 
  41   0.0000       0.519899        14.1472 
  42   0.0000       0.519899        14.1472 
  43   0.0000       0.522790        14.2258 
  44   0.0000       0.522790        14.2258 
  45   0.0000       0.604059        16.4373 
  46   0.0000       0.966780        26.3074 
  47   0.0000       0.988140        26.8887 
  48   0.0000       0.988142        26.8887 
  49   0.0000       1.437338        39.1120 
  50   0.0000       1.440924        39.2095 
  51   0.0000       1.440924        39.2095 
  52   0.0000       1.449025        39.4300 
  53   0.0000       1.449025        39.4300 
  54   0.0000       1.452672        39.5292 
  55   0.0000       1.457955        39.6730 
  56   0.0000       1.457955        39.6730 
  57   0.0000       1.459286        39.7092 
  58   0.0000       1.459286        39.7092 
  59   0.0000       1.462100        39.7858 
  60   0.0000       1.462101        39.7858 
  61   0.0000       1.482973        40.3538 
  62   0.0000       1.482973        40.3538 
  63   0.0000       1.486535        40.4507 
  64   0.0000       1.486535        40.4507 
  65   0.0000       1.522591        41.4318 
  66   0.0000       1.540912        41.9303 
  67   0.0000       1.540913        41.9304 
  68   0.0000       1.549215        42.1563 
  69   0.0000       1.549215        42.1563 
  70   0.0000       3.006878        81.8213 
  71   0.0000       3.774809       102.7178 
  72   0.0000       3.783421       102.9521 
  73   0.0000       3.783421       102.9521 
  74   0.0000       3.802165       103.4622 
  75   0.0000       3.802165       103.4622 
  76   0.0000       3.805952       103.5652 
  77   0.0000       3.805952       103.5652 
  78   0.0000       4.505730       122.6072 
  79   0.0000       4.525874       123.1553 
  80   0.0000       4.525874       123.1553 
  81   0.0000       4.535464       123.4163 
  82   0.0000       4.535464       123.4163 
  83   0.0000       4.791602       130.3861 
  84   0.0000       4.797714       130.5524 
  85   0.0000       4.797715       130.5525 
  86   0.0000       4.813235       130.9748 
  87   0.0000       4.813235       130.9748 
  88   0.0000       4.828283       131.3843 
  89   0.0000       4.828283       131.3843 
  90   0.0000       4.828775       131.3976 
  91   0.0000       4.828775       131.3976 
  92   0.0000       4.829649       131.4214 
  93   0.0000       4.853515       132.0709 
  94   0.0000       4.853516       132.0709 
  95   0.0000       5.404014       147.0507 
  96   0.0000       5.407665       147.1500 
  97   0.0000       5.407666       147.1501 
  98   0.0000       5.418044       147.4325 
  99   0.0000       5.418045       147.4325 
 100   0.0000       5.431624       147.8020 
 101   0.0000       5.431624       147.8020 
 102   0.0000       5.439747       148.0230 
 103   0.0000       5.439747       148.0230 
 104   0.0000       5.441851       148.0803 
 105   0.0000       5.441851       148.0803 

                    ********************************
                    * MULLIKEN POPULATION ANALYSIS *
                    ********************************

--------------------------------------------
MULLIKEN ATOMIC CHARGES AND SPIN POPULATIONS
--------------------------------------------
   0 Nb:   -0.000000    5.000000
Sum of atomic charges         :   -0.0000000
Sum of atomic spin populations:    5.0000000

-----------------------------------------------------
MULLIKEN REDUCED ORBITAL CHARGES AND SPIN POPULATIONS
-----------------------------------------------------
CHARGE
  0 Nbs       :     8.998957  s :     8.998957
      pz      :     5.999820  p :    17.999740
      px      :     5.999961
      py      :     5.999959
      dz2     :     2.103580  d :    14.000870
      dxz     :     2.968279
      dyz     :     2.930025
      dx2y2   :     2.999824
      dxy     :     2.999162
      f0      :     0.000149  f :     0.000245
      f+1     :     0.000040
      f-1     :     0.000050
      f+2     :     0.000003
      f-2     :     0.000003
      f+3     :     0.000000
      f-3     :     0.000000
      g0      :     0.000054  g :     0.000174
      g+1     :     0.000016
      g-1     :     0.000024
      g+2     :     0.000034
      g-2     :     0.000035
      g+3     :     0.000005
      g-3     :     0.000005
      g+4     :     0.000000
      g-4     :     0.000000
      h0      :     0.000006  h :     0.000015
      h+1     :     0.000003
      h-1     :     0.000004
      h+2     :     0.000001
      h-2     :     0.000001
      h+3     :     0.000000
      h-3     :     0.000000
      h+4     :     0.000000
      h-4     :     0.000000
      h+5     :     0.000000
      h-5     :     0.000000

SPIN
  0 Nbs       :     0.999196  s :     0.999196
      pz      :     0.000159  p :     0.000147
      px      :    -0.000007
      py      :    -0.000005
      dz2     :     0.103378  d :     4.000645
      dxz     :     0.968272
      dyz     :     0.930009
      dx2y2   :     0.999824
      dxy     :     0.999161
      f0      :    -0.000130  f :    -0.000144
      f+1     :    -0.000001
      f-1     :    -0.000014
      f+2     :     0.000001
      f-2     :     0.000000
      f+3     :     0.000000
      f-3     :     0.000000
      g0      :     0.000044  g :     0.000159
      g+1     :     0.000014
      g-1     :     0.000021
      g+2     :     0.000034
      g-2     :     0.000035
      g+3     :     0.000005
      g-3     :     0.000005
      g+4     :     0.000000
      g-4     :     0.000000
      h0      :    -0.000001  h :    -0.000003
      h+1     :    -0.000001
      h-1     :    -0.000001
      h+2     :    -0.000000
      h-2     :    -0.000000
      h+3     :    -0.000000
      h-3     :    -0.000000
      h+4     :    -0.000000
      h-4     :    -0.000000
      h+5     :    -0.000000
      h-5     :    -0.000000


                     *******************************
                     * LOEWDIN POPULATION ANALYSIS *
                     *******************************

-------------------------------------------
LOEWDIN ATOMIC CHARGES AND SPIN POPULATIONS
-------------------------------------------
   0 Nb:   -0.000000    5.000000

----------------------------------------------------
LOEWDIN REDUCED ORBITAL CHARGES AND SPIN POPULATIONS
----------------------------------------------------
CHARGE
  0 Nbs       :     8.998957  s :     8.998957
      pz      :     5.999820  p :    17.999740
      px      :     5.999961
      py      :     5.999959
      dz2     :     2.103580  d :    14.000870
      dxz     :     2.968279
      dyz     :     2.930025
      dx2y2   :     2.999824
      dxy     :     2.999162
      f0      :     0.000149  f :     0.000245
      f+1     :     0.000040
      f-1     :     0.000050
      f+2     :     0.000003
      f-2     :     0.000003
      f+3     :     0.000000
      f-3     :     0.000000
      g0      :     0.000054  g :     0.000174
      g+1     :     0.000016
      g-1     :     0.000024
      g+2     :     0.000034
      g-2     :     0.000035
      g+3     :     0.000005
      g-3     :     0.000005
      g+4     :     0.000000
      g-4     :     0.000000
      h0      :     0.000006  h :     0.000015
      h+1     :     0.000003
      h-1     :     0.000004
      h+2     :     0.000001
      h-2     :     0.000001
      h+3     :     0.000000
      h-3     :     0.000000
      h+4     :     0.000000
      h-4     :     0.000000
      h+5     :     0.000000
      h-5     :     0.000000

SPIN
  0 Nbs       :     0.999196  s :     0.999196
      pz      :     0.000159  p :     0.000147
      px      :    -0.000007
      py      :    -0.000005
      dz2     :     0.103378  d :     4.000645
      dxz     :     0.968272
      dyz     :     0.930009
      dx2y2   :     0.999824
      dxy     :     0.999161
      f0      :    -0.000130  f :    -0.000144
      f+1     :    -0.000001
      f-1     :    -0.000014
      f+2     :     0.000001
      f-2     :     0.000000
      f+3     :     0.000000
      f-3     :     0.000000
      g0      :     0.000044  g :     0.000159
      g+1     :     0.000014
      g-1     :     0.000021
      g+2     :     0.000034
      g-2     :     0.000035
      g+3     :     0.000005
      g-3     :     0.000005
      g+4     :     0.000000
      g-4     :     0.000000
      h0      :    -0.000001  h :    -0.000003
      h+1     :    -0.000001
      h-1     :    -0.000001
      h+2     :    -0.000000
      h-2     :    -0.000000
      h+3     :    -0.000000
      h-3     :    -0.000000
      h+4     :    -0.000000
      h-4     :    -0.000000
      h+5     :    -0.000000
      h-5     :    -0.000000


                      *****************************
                      * MAYER POPULATION ANALYSIS *
                      *****************************

  NA   - Mulliken gross atomic population
  ZA   - Total nuclear charge
  QA   - Mulliken gross atomic charge
  VA   - Mayer's total valence
  BVA  - Mayer's bonded valence
  FA   - Mayer's free valence

  ATOM       NA         ZA         QA         VA         BVA        FA
  0 Nb    41.0000    41.0000    -0.0000     5.0019     0.0000     5.0019

  Mayer bond orders larger than 0.100000


-------
TIMINGS
-------

Total SCF time: 0 days 2 hours 10 min 8 sec 

Total time                  ....    7808.961 sec
Sum of individual times     ....    7803.668 sec  ( 99.9%)

Fock matrix formation       ....    7799.581 sec  ( 99.9%)
  XC integration            ....      11.757 sec  (  0.2% of F)
    Basis function eval.    ....       0.359 sec  (  3.1% of XC)
    Density eval.           ....       0.325 sec  (  2.8% of XC)
    XC-Functional eval.     ....       0.550 sec  (  4.7% of XC)
    XC-Potential eval.      ....       0.198 sec  (  1.7% of XC)
Diagonalization             ....       1.034 sec  (  0.0%)
Density matrix formation    ....       0.168 sec  (  0.0%)
Population analysis         ....       0.154 sec  (  0.0%)
Initial guess               ....       0.027 sec  (  0.0%)
Orbital Transformation      ....       0.000 sec  (  0.0%)
Orbital Orthonormalization  ....       0.021 sec  (  0.0%)
DIIS solution               ....       2.018 sec  (  0.0%)
Grid generation             ....       0.686 sec  (  0.0%)

Maximum memory used throughout the entire SCF-calculation: 265.4 MB

-------------------------   --------------------
FINAL SINGLE POINT ENERGY     -3863.865843004175
-------------------------   --------------------


                            ***************************************
                            *     ORCA property calculations      *
                            ***************************************

                                    ---------------------
                                    Active property flags
                                    ---------------------
   (+) Dipole Moment


------------------------------------------------------------------------------
                       ORCA ELECTRIC PROPERTIES CALCULATION
------------------------------------------------------------------------------

Dipole Moment Calculation                       ... on
Quadrupole Moment Calculation                   ... off
Polarizability Calculation                      ... off
GBWName                                         ... Nb_ano-r3_pbe.gbw
Electron density                                ... Nb_ano-r3_pbe.scfp
The origin for moment calculation is the CENTER OF MASS  = ( 0.000000,  0.000000  0.000000)

-------------
DIPOLE MOMENT
-------------
                                X             Y             Z
Electronic contribution:      0.00000      -0.00000      -0.00000
Nuclear contribution   :      0.00000       0.00000       0.00000
                        -----------------------------------------
Total Dipole Moment    :      0.00000      -0.00000      -0.00000
                        -----------------------------------------
Magnitude (a.u.)       :      0.00000
Magnitude (Debye)      :      0.00000



--------------------
Rotational spectrum 
--------------------
 
Rotational constants in cm-1:     0.000000     0.000000     0.000000 
Rotational constants in MHz :     0.000000     0.000000     0.000000 

 Dipole components along the rotational axes: 
x,y,z [a.u.] :     0.000000    -0.000000    -0.000000 
x,y,z [Debye]:     0.000000    -0.000000    -0.000000 

 

Timings for individual modules:

Sum of individual times         ...     7857.817 sec (= 130.964 min)
GTO integral calculation        ...       39.817 sec (=   0.664 min)   0.5 %
Relativistic integrals          ...        3.567 sec (=   0.059 min)   0.0 %
SCF iterations                  ...     7814.433 sec (= 130.241 min)  99.4 %
                             ****ORCA TERMINATED NORMALLY****
TOTAL RUN TIME: 0 days 2 hours 11 minutes 15 seconds 790 msec
