
                                 *****************
                                 * O   R   C   A *
                                 *****************

                                            #,                                       
                                            ###                                      
                                            ####                                     
                                            #####                                    
                                            ######                                   
                                           ########,                                 
                                     ,,################,,,,,                         
                               ,,#################################,,                 
                          ,,##########################################,,             
                       ,#########################################, ''#####,          
                    ,#############################################,,   '####,        
                  ,##################################################,,,,####,       
                ,###########''''           ''''###############################       
              ,#####''   ,,,,##########,,,,          '''####'''          '####       
            ,##' ,,,,###########################,,,                        '##       
           ' ,,###''''                  '''############,,,                           
         ,,##''                                '''############,,,,        ,,,,,,###''
      ,#''                                            '''#######################'''  
     '                                                          ''''####''''         
             ,#######,   #######,   ,#######,      ##                                
            ,#'     '#,  ##    ##  ,#'     '#,    #''#        ######   ,####,        
            ##       ##  ##   ,#'  ##            #'  '#       #        #'  '#        
            ##       ##  #######   ##           ,######,      #####,   #    #        
            '#,     ,#'  ##    ##  '#,     ,#' ,#      #,         ##   #,  ,#        
             '#######'   ##     ##  '#######'  #'      '#     #####' # '####'        



                  #######################################################
                  #                        -***-                        #
                  #          Department of theory and spectroscopy      #
                  #    Directorship and core code : Frank Neese         #
                  #        Max Planck Institute fuer Kohlenforschung    #
                  #                Kaiser Wilhelm Platz 1               #
                  #                 D-45470 Muelheim/Ruhr               #
                  #                      Germany                        #
                  #                                                     #
                  #                  All rights reserved                #
                  #                        -***-                        #
                  #######################################################


                         Program Version 5.0.1 -  RELEASE  -


 With contributions from (in alphabetic order):
   Daniel Aravena         : Magnetic Suceptibility
   Michael Atanasov       : Ab Initio Ligand Field Theory (pilot matlab implementation)
   Alexander A. Auer      : GIAO ZORA, VPT2 properties, NMR spectrum
   Ute Becker             : Parallelization
   Giovanni Bistoni       : ED, misc. LED, open-shell LED, HFLD
   Martin Brehm           : Molecular dynamics
   Dmytro Bykov           : SCF Hessian
   Vijay G. Chilkuri      : MRCI spin determinant printing, contributions to CSF-ICE
   Dipayan Datta          : RHF DLPNO-CCSD density
   Achintya Kumar Dutta   : EOM-CC, STEOM-CC
   Dmitry Ganyushin       : Spin-Orbit,Spin-Spin,Magnetic field MRCI
   Miquel Garcia          : C-PCM and meta-GGA Hessian, CC/C-PCM, Gaussian charge scheme
   Yang Guo               : DLPNO-NEVPT2, F12-NEVPT2, CIM, IAO-localization
   Andreas Hansen         : Spin unrestricted coupled pair/coupled cluster methods
   Benjamin Helmich-Paris : MC-RPA, TRAH-SCF, COSX integrals
   Lee Huntington         : MR-EOM, pCC
   Robert Izsak           : Overlap fitted RIJCOSX, COSX-SCS-MP3, EOM
   Marcus Kettner         : VPT2
   Christian Kollmar      : KDIIS, OOCD, Brueckner-CCSD(T), CCSD density, CASPT2, CASPT2-K
   Simone Kossmann        : Meta GGA functionals, TD-DFT gradient, OOMP2, MP2 Hessian
   Martin Krupicka        : Initial AUTO-CI
   Lucas Lang             : DCDCAS
   Marvin Lechner         : AUTO-CI (C++ implementation), FIC-MRCC
   Dagmar Lenk            : GEPOL surface, SMD
   Dimitrios Liakos       : Extrapolation schemes; Compound Job, initial MDCI parallelization
   Dimitrios Manganas     : Further ROCIS development; embedding schemes
   Dimitrios Pantazis     : SARC Basis sets
   Anastasios Papadopoulos: AUTO-CI, single reference methods and gradients
   Taras Petrenko         : DFT Hessian,TD-DFT gradient, ASA, ECA, R-Raman, ABS, FL, XAS/XES, NRVS
   Peter Pinski           : DLPNO-MP2, DLPNO-MP2 Gradient
   Christoph Reimann      : Effective Core Potentials
   Marius Retegan         : Local ZFS, SOC
   Christoph Riplinger    : Optimizer, TS searches, QM/MM, DLPNO-CCSD(T), (RO)-DLPNO pert. Triples
   Tobias Risthaus        : Range-separated hybrids, TD-DFT gradient, RPA, STAB
   Michael Roemelt        : Original ROCIS implementation
   Masaaki Saitow         : Open-shell DLPNO-CCSD energy and density
   Barbara Sandhoefer     : DKH picture change effects
   Avijit Sen             : IP-ROCIS
   Kantharuban Sivalingam : CASSCF convergence, NEVPT2, FIC-MRCI
   Bernardo de Souza      : ESD, SOC TD-DFT
   Georgi Stoychev        : AutoAux, RI-MP2 NMR, DLPNO-MP2 response
   Willem Van den Heuvel  : Paramagnetic NMR
   Boris Wezisla          : Elementary symmetry handling
   Frank Wennmohs         : Technical directorship


 We gratefully acknowledge several colleagues who have allowed us to
 interface, adapt or use parts of their codes:
   Stefan Grimme, W. Hujo, H. Kruse, P. Pracht,  : VdW corrections, initial TS optimization,
                  C. Bannwarth, S. Ehlert          DFT functionals, gCP, sTDA/sTD-DF
   Ed Valeev, F. Pavosevic, A. Kumar             : LibInt (2-el integral package), F12 methods
   Garnet Chan, S. Sharma, J. Yang, R. Olivares  : DMRG
   Ulf Ekstrom                                   : XCFun DFT Library
   Mihaly Kallay                                 : mrcc  (arbitrary order and MRCC methods)
   Jiri Pittner, Ondrej Demel                    : Mk-CCSD
   Frank Weinhold                                : gennbo (NPA and NBO analysis)
   Christopher J. Cramer and Donald G. Truhlar   : smd solvation model
   Lars Goerigk                                  : TD-DFT with DH, B97 family of functionals
   V. Asgeirsson, H. Jonsson                     : NEB implementation
   FAccTs GmbH                                   : IRC, NEB, NEB-TS, DLPNO-Multilevel, CI-OPT
                                                   MM, QMMM, 2- and 3-layer-ONIOM, Crystal-QMMM,
                                                   LR-CPCM, SF, NACMEs, symmetry and pop. for TD-DFT,
                                                   nearIR, NL-DFT gradient (VV10), updates on ESD,
                                                   ML-optimized integration grids
   S Lehtola, MJT Oliveira, MAL Marques          : LibXC Library
   Liviu Ungur et al                             : ANISO software


 Your calculation uses the libint2 library for the computation of 2-el integrals
 For citations please refer to: http://libint.valeyev.net

 Your ORCA version has been built with support for libXC version: 5.1.0
 For citations please refer to: https://tddft.org/programs/libxc/

 This ORCA versions uses:
   CBLAS   interface :  Fast vector & matrix operations
   LAPACKE interface :  Fast linear algebra routines
   SCALAPACK package :  Parallel linear algebra routines
   Shared memory     :  Shared parallel matrices
   BLAS/LAPACK       :  OpenBLAS 0.3.15  USE64BITINT DYNAMIC_ARCH NO_AFFINITY Haswell SINGLE_THREADED
        Core in use  :  Haswell
   Copyright (c) 2011-2014, The OpenBLAS Project


SCAN-COORDS

Reading of a custom basis requested
Basis file         : Nb_sarc-zora-tzvpp.basis
READING GTO-BASIS: NIOBIUM
Basis successfully read

================================================================================

----- Orbital basis set information -----
================================================================================
                                        WARNINGS
                       Please study these warnings very carefully!
================================================================================


INFO   : the flag for use of the SHARK integral package has been found!

================================================================================
                                       INPUT FILE
================================================================================
NAME = Nb_sarc-zora-tzvpp_pbe.inp
|  1> !uks pbe nori verytightscf soscf notrah
|  2> 
|  3> %pal
|  4>   nprocs 32
|  5> end
|  6> %coords
|  7>   charge 0
|  8>   mult 6
|  9>   units bohrs
| 10>   coords
| 11>     Nb 0.0 0.0 0.0
| 12>   end
| 13> end
| 14> %basis
| 15>   gtoname "Nb_sarc-zora-tzvpp.basis"
| 16>   delECP Nb
| 17> end
| 18> %rel
| 19>   method zora
| 20>   modelpot 1, 0, 0, 0
| 21>   c 137.035999084
| 22> endd                         ****END OF INPUT****
================================================================================

                       ****************************
                       * Single Point Calculation *
                       ****************************

---------------------------------
CARTESIAN COORDINATES (ANGSTROEM)
---------------------------------
  Nb     0.000000    0.000000    0.000000

----------------------------
CARTESIAN COORDINATES (A.U.)
----------------------------
  NO LB      ZA    FRAG     MASS         X           Y           Z
   0 Nb   41.0000    0    92.910    0.000000    0.000000    0.000000

--------------------------------
INTERNAL COORDINATES (ANGSTROEM)
--------------------------------
 Nb     0   0   0     0.000000000000     0.00000000     0.00000000

---------------------------
INTERNAL COORDINATES (A.U.)
---------------------------
 Nb     0   0   0     0.000000000000     0.00000000     0.00000000

---------------------
BASIS SET INFORMATION
---------------------
There are 1 groups of distinct atoms

 Group   1 Type Nb  : 22s15p10d2f1g contracted to 15s10p6d2f1g pattern {811111111111111/6111111111/511111/11/1}

Atom   0Nb   basis set group =>   1


           ************************************************************
           *        Program running with 32 parallel MPI-processes    *
           *              working on a common directory               *
           ************************************************************
------------------------------------------------------------------------------
                           ORCA GTO INTEGRAL CALCULATION
------------------------------------------------------------------------------
------------------------------------------------------------------------------
                   ___                                                        
                  /   \      - P O W E R E D   B Y -                         
                 /     \                                                     
                 |  |  |   _    _      __       _____    __    __             
                 |  |  |  | |  | |    /  \     |  _  \  |  |  /  |          
                  \  \/   | |  | |   /    \    | | | |  |  | /  /          
                 / \  \   | |__| |  /  /\  \   | |_| |  |  |/  /          
                |  |  |   |  __  | /  /__\  \  |    /   |      \           
                |  |  |   | |  | | |   __   |  |    \   |  |\   \          
                \     /   | |  | | |  |  |  |  | |\  \  |  | \   \       
                 \___/    |_|  |_| |__|  |__|  |_| \__\ |__|  \__/        
                                                                              
                      - O R C A' S   B I G   F R I E N D -                    
                                      &                                       
                       - I N T E G R A L  F E E D E R -                       
                                                                              
 v1 FN, 2020, v2 2021                                                         
------------------------------------------------------------------------------


Reading SHARK input file Nb_sarc-zora-tzvpp_pbe.SHARKINP.tmp ... ok
----------------------
SHARK INTEGRAL PACKAGE
----------------------

Number of atoms                             ...      1
Number of basis functions                   ...     98
Number of shells                            ...     34
Maximum angular momentum                    ...      4
Integral batch strategy                     ... SHARK/LIBINT Hybrid
RI-J (if used) integral strategy            ... SPLIT-RIJ (Revised 2003 algorithm where possible)
Printlevel                                  ...      1
Contraction scheme used                     ... SEGMENTED contraction
Coulomb Range Separation                    ... NOT USED
Exchange Range Separation                   ... NOT USED
Finite Nucleus Model                        ... NOT USED
Auxiliary Coulomb fitting basis             ... NOT available
Auxiliary J/K fitting basis                 ... NOT available
Auxiliary Correlation fitting basis         ... NOT available
Auxiliary 'external' fitting basis          ... NOT available
Integral threshold                          ...     1.000000e-12
Primitive cut-off                           ...     1.000000e-14
Primitive pair pre-selection threshold      ...     1.000000e-14

Calculating pre-screening integrals         ... done (  9.3 sec) Dimension = 34
Organizing shell pair data                  ... done (  1.0 sec)
Shell pair information
Total number of shell pairs                 ...       595
Shell pairs after pre-screening             ...       595
Total number of primitive shell pairs       ...      1328
Primitive shell pairs kept                  ...      1328
          la=0 lb=0:    120 shell pairs
          la=1 lb=0:    150 shell pairs
          la=1 lb=1:     55 shell pairs
          la=2 lb=0:     90 shell pairs
          la=2 lb=1:     60 shell pairs
          la=2 lb=2:     21 shell pairs
          la=3 lb=0:     30 shell pairs
          la=3 lb=1:     20 shell pairs
          la=3 lb=2:     12 shell pairs
          la=3 lb=3:      3 shell pairs
          la=4 lb=0:     15 shell pairs
          la=4 lb=1:     10 shell pairs
          la=4 lb=2:      6 shell pairs
          la=4 lb=3:      2 shell pairs
          la=4 lb=4:      1 shell pairs

Calculating one electron integrals          ... done (  2.0 sec)
Calculating Nuclear repulsion               ... done (  0.0 sec) ENN=      0.000000000000 Eh

SHARK setup successfully completed in  17.0 seconds

Maximum memory used throughout the entire GTOINT-calculation: 25.8 MB


           ************************************************************
           *        Program running with 32 parallel MPI-processes    *
           *              working on a common directory               *
           ************************************************************
------------------------------------------------------------------------------
                          ORCA RELATIVISTIC HAMILTONIAN
------------------------------------------------------------------------------

Relativistic Method            ... ZORA(MP)
Treatment of potential         ... Van Wuellen
Nucleus model                  ... Point Nucleus
Speed of light used            ... 137.03599908400000


            *************************************************
            *         ZERO ORDER REGULAR APPROXIMATION      *
            *                     ZORA(MP)                  *
            *            Programmed by FN according to      *
            *                   C. van Wuellen              *
            *       J. Chem. Phys. (1998) vol 109, 392-399  *
            *************************************************

Terms included in model potential: +V(e,N)
Basis function cutoff value   ... 1.000000e-12
Loading the fitted atomic densities  (DKH4)  ... done
Calculating the cutoffs                      ... done
Number of fit functions                      ... 28
Setting up the integration grid ... done

Maximum memory used throughout the entire REL-calculation: 10.3 MB


           ************************************************************
           *        Program running with 32 parallel MPI-processes    *
           *              working on a common directory               *
           ************************************************************
-------------------------------------------------------------------------------
                                 ORCA SCF
-------------------------------------------------------------------------------

------------
SCF SETTINGS
------------
Hamiltonian:
 Density Functional     Method          .... DFT(GTOs)
 Exchange Functional    Exchange        .... PBE
   PBE kappa parameter   XKappa         ....  0.804000
   PBE mue parameter    XMuePBE         ....  0.219520
 Correlation Functional Correlation     .... PBE
   PBE beta parameter  CBetaPBE         ....  0.066725
 LDA part of GGA corr.  LDAOpt          .... PW91-LDA
 Gradients option       PostSCFGGA      .... off
   Density functional embedding theory  .... OFF
   NL short-range parameter             ....  6.400000

Relativistic Settings:
 Scalar relativistic method             .... ZORA
 Speed of light used       Velit        ....       137.035999
Orbital energies will be scaled


General Settings:
 Integral files         IntName         .... Nb_sarc-zora-tzvpp_pbe
 Hartree-Fock type      HFTyp           .... UHF
 Total Charge           Charge          ....    0
 Multiplicity           Mult            ....    6
 Number of Electrons    NEL             ....   41
 Basis Dimension        Dim             ....   98
 Nuclear Repulsion      ENuc            ....      0.0000000000 Eh

Convergence Acceleration:
 DIIS                   CNVDIIS         .... on
   Start iteration      DIISMaxIt       ....    12
   Startup error        DIISStart       ....  0.200000
   # of expansion vecs  DIISMaxEq       ....     5
   Bias factor          DIISBfac        ....   1.050
   Max. coefficient     DIISMaxC        ....  10.000
 Trust-Rad. Augm. Hess. CNVTRAH         .... off
 SOSCF                  CNVSOSCF        .... on
   Start iteration      SOSCFMaxIt      ....   150
   Startup grad/error   SOSCFStart      ....  0.003300
 Level Shifting         CNVShift        .... on
   Level shift para.    LevelShift      ....    0.2500
   Turn off err/grad.   ShiftErr        ....    0.0010
 Zerner damping         CNVZerner       .... off
 Static damping         CNVDamp         .... on
   Fraction old density DampFac         ....    0.7000
   Max. Damping (<1)    DampMax         ....    0.9800
   Min. Damping (>=0)   DampMin         ....    0.0000
   Turn off err/grad.   DampErr         ....    0.1000
 Fernandez-Rico         CNVRico         .... off

SCF Procedure:
 Maximum # iterations   MaxIter         ....   125
 SCF integral mode      SCFMode         .... Direct
   Integral package                     .... SHARK and LIBINT hybrid scheme
 Reset frequency        DirectResetFreq ....    20
 Integral Threshold     Thresh          ....  1.000e-12 Eh
 Primitive CutOff       TCut            ....  1.000e-14 Eh

Convergence Tolerance:
 Convergence Check Mode ConvCheckMode   .... Total+1el-Energy
 Convergence forced     ConvForced      .... 0
 Energy Change          TolE            ....  1.000e-09 Eh
 1-El. energy change                    ....  1.000e-06 Eh
 Orbital Gradient       TolG            ....  2.000e-06
 Orbital Rotation angle TolX            ....  2.000e-06
 DIIS Error             TolErr          ....  1.000e-08


Diagonalization of the overlap matrix:
Smallest eigenvalue                        ... 7.217e-04
Time for diagonalization                   ...    0.156 sec
Threshold for overlap eigenvalues          ... 1.000e-08
Number of eigenvalues below threshold      ... 0
Time for construction of square roots      ...    0.980 sec
Total time needed                          ...    1.136 sec

Time for model grid setup =    0.281 sec

------------------------------
INITIAL GUESS: MODEL POTENTIAL
------------------------------
Loading ZORA relativistic densities                ... done
Calculating cut-offs                               ... done
Initializing the effective Hamiltonian             ... done
Setting up the integral package (SHARK)            ... done
Starting the Coulomb interaction                   ... done (   5.6 sec)
Reading the grid                                   ... done
Mapping shells                                     ... done
Starting the XC term evaluation                    ... done (   1.4 sec)
  promolecular density results
     # of electrons  =     41.000391489
     EX              =   -119.354590319
     EC              =     -2.038692211
     EX+EC           =   -121.393282530
Transforming the Hamiltonian                       ... done (   1.1 sec)
Diagonalizing the Hamiltonian                      ... done (   0.0 sec)
Back transforming the eigenvectors                 ... done (   0.2 sec)
Now organizing SCF variables                       ... done
                      ------------------
                      INITIAL GUESS DONE (  10.4 sec)
                      ------------------
-------------------
DFT GRID GENERATION
-------------------

General Integration Accuracy     IntAcc      ... 4.388
Radial Grid Type                 RadialGrid  ... OptM3 with GC (2021)
Angular Grid (max. ang.)         AngularGrid ... 4 (Lebedev-302)
Angular grid pruning method      GridPruning ... 4 (adaptive)
Weight generation scheme         WeightScheme... Becke
Basis function cutoff            BFCut       ... 1.0000e-12
Integration weight cutoff        WCut        ... 1.0000e-14
Angular grids for H and He will be reduced by one unit
Partially contracted basis set               ... off
Rotationally invariant grid construction     ... off

Total number of grid points                  ...    27544
Total number of batches                      ...      431
Average number of points per batch           ...       63
Average number of grid points per atom       ...    27544
Time for grid setup =    0.881 sec

--------------
SCF ITERATIONS
--------------
ITER       Energy         Delta-E        Max-DP      RMS-DP      [F,P]     Damp
               ***  Starting incremental Fock matrix formation  ***
  0  -3869.5269029738   0.000000000000 0.04421433  0.00060781  1.3600425 0.7000
  1  -3869.5372985643  -0.010395590580 0.04789492  0.00060034  0.9377381 0.7000
  2  -3869.5424188420  -0.005120277652 0.03715188  0.00047192  0.6473044 0.7000
  3  -3869.5453561819  -0.002937339868 0.02656545  0.00032491  0.4473521 0.7000
                      *** Initiating the SOSCF procedure ***
                      *** Re-Reading the Fockian *** 
                      *** Removing any level shift *** 
ITER      Energy       Delta-E        Grad      Rot      Max-DP    RMS-DP
  4  -3869.54735912  -0.0020029402  0.002964  0.002964  0.054749  0.000680
               *** Restarting incremental Fock matrix formation ***
  5  -3869.55204017  -0.0046810469  0.003675  0.008026  0.025641  0.000284
  6  -3869.55205983  -0.0000196598  0.001861  0.004681  0.004415  0.000072
  7  -3869.55209732  -0.0000374947  0.000786  0.006821  0.004776  0.000059
  8  -3869.55210524  -0.0000079162  0.000392  0.022002  0.003202  0.000088
  9  -3869.55212324  -0.0000180011  0.000841  1.715935  0.328155  0.005040
 10  -3869.51604162   0.0360816239  0.071698  1.682496  0.321648  0.004985
 11  -3869.55211976  -0.0360781439  0.002578  0.002598  0.002764  0.000034
 12  -3869.55210460   0.0000151570  0.003139  0.007914  0.007782  0.000095
 13  -3869.55214752  -0.0000429132  0.001755  0.031194  0.004735  0.000119
 14  -3869.55218656  -0.0000390419  0.002537  3.407378  0.180570  0.004190
 15  -3869.50142950   0.0507570625  0.089641  3.295872  0.171071  0.004170
 16  -3869.55221262  -0.0507831220  0.003097  0.102080  0.015092  0.000376
 17  -3869.55231300  -0.0001003853  0.006549  0.579170  0.067127  0.002005
 18  -3869.55174230   0.0005707050  0.009867  0.354777  0.046005  0.001310
 19  -3869.55251173  -0.0007694331  0.008452  0.055033  0.006662  0.000204
 20  -3869.55258408  -0.0000723531  0.005284  0.066597  0.008165  0.000251
 21  -3869.55269920  -0.0001151128  0.002445  0.028506  0.003609  0.000114
 22  -3869.55272758  -0.0000283844  0.001845  0.005959  0.002626  0.000040
 23  -3869.55273900  -0.0000114163  0.001110  0.006642  0.001802  0.000035
 24  -3869.55274395  -0.0000049521  0.000174  0.001852  0.000229  0.000007
               *** Restarting incremental Fock matrix formation ***
 25  -3869.55274411  -0.0000001570  0.000034  0.000071  0.000087  0.000001
 26  -3869.55274411  -0.0000000067  0.000004  0.000050  0.000016  0.000000
 27  -3869.55274411  -0.0000000005  0.000002  0.000171  0.000027  0.000001
 28  -3869.55274412  -0.0000000010  0.000006  0.000446  0.000072  0.000002
 29  -3869.55274412  -0.0000000021  0.000013  0.001376  0.000228  0.000007
 30  -3869.55274412  -0.0000000059  0.000024  0.003800  0.000639  0.000018
 31  -3869.55274414  -0.0000000155  0.000044  0.010884  0.001855  0.000053
 32  -3869.55274418  -0.0000000425  0.000083  0.028345  0.004931  0.000137
 33  -3869.55274427  -0.0000000894  0.000178  0.020040  0.003549  0.000097
 34  -3869.55274438  -0.0000001082  0.000203  0.037460  0.006739  0.000182
 35  -3869.55274465  -0.0000002722  0.000121  0.009956  0.001819  0.000049
 36  -3869.55274468  -0.0000000333  0.000076  0.006071  0.001117  0.000030
 37  -3869.55274471  -0.0000000290  0.000014  0.000621  0.000111  0.000003
 38  -3869.55274471  -0.0000000011  0.000003  0.000544  0.000099  0.000003
 39  -3869.55274471  -0.0000000002  0.000001  0.000177  0.000034  0.000001
                 **** Energy Check signals convergence ****
              ***Rediagonalizing the Fockian in SOSCF/NRSCF***

               *****************************************************
               *                     SUCCESS                       *
               *           SCF CONVERGED AFTER  40 CYCLES          *
               *****************************************************


----------------
TOTAL SCF ENERGY
----------------

Total Energy       :        -3869.55274472 Eh         -105295.88332 eV

Components:
Nuclear Repulsion  :            0.00000000 Eh               0.00000 eV
Electronic Energy  :        -3869.55274472 Eh         -105295.88332 eV
One Electron Energy:        -5325.24675525 Eh         -144907.33116 eV
Two Electron Energy:         1455.69401054 Eh           39611.44783 eV

Virial components:
Potential Energy   :        -7855.26656139 Eh         -213752.67011 eV
Kinetic Energy     :         3985.71381668 Eh          108456.78679 eV
Virial Ratio       :            1.97085564


DFT components:
N(Alpha)           :       23.000000000020 electrons
N(Beta)            :       18.000000000039 electrons
N(Total)           :       41.000000000058 electrons
E(X)               :     -117.702114069326 Eh       
E(C)               :       -2.013132914205 Eh       
E(XC)              :     -119.715246983531 Eh       
DFET-embed. en.    :        0.000000000000 Eh       

---------------
SCF CONVERGENCE
---------------

  Last Energy change         ...   -8.7311e-11  Tolerance :   1.0000e-09
  Last MAX-Density change    ...    7.0829e-06  Tolerance :   1.0000e-08
  Last RMS-Density change    ...    2.3645e-07  Tolerance :   1.0000e-09
  Last Orbital Gradient      ...    7.9184e-07  Tolerance :   2.0000e-06
  Last Orbital Rotation      ...    5.7084e-05  Tolerance :   2.0000e-06

             **** THE GBW FILE WAS UPDATED (Nb_sarc-zora-tzvpp_pbe.gbw) ****
             **** DENSITY Nb_sarc-zora-tzvpp_pbe.scfp WAS UPDATED ****
             **** ENERGY FILE WAS UPDATED (Nb_sarc-zora-tzvpp_pbe.en.tmp) ****
----------------------
UHF SPIN CONTAMINATION
----------------------

Warning: in a DFT calculation there is little theoretical justification to 
         calculate <S**2> as in Hartree-Fock theory. We will do it anyways
         but you should keep in mind that the values have only limited relevance

Expectation value of <S**2>     :     8.750906
Ideal value S*(S+1) for S=2.5   :     8.750000
Deviation                       :     0.000906

             **** THE GBW FILE WAS UPDATED (Nb_sarc-zora-tzvpp_pbe.gbw) ****
             **** DENSITY Nb_sarc-zora-tzvpp_pbe.scfp WAS UPDATED ****
----------------
ORBITAL ENERGIES
----------------
                 SPIN UP ORBITALS
  NO   OCC          E(Eh)            E(eV) 
   0   1.0000    -709.755548    -19313.4304 
   1   1.0000     -97.550566     -2654.4858 
   2   1.0000     -87.022416     -2368.0003 
   3   1.0000     -87.018711     -2367.8995 
   4   1.0000     -87.018709     -2367.8994 
   5   1.0000     -16.210877      -441.1204 
   6   1.0000     -12.796787      -348.2183 
   7   1.0000     -12.787211      -347.9577 
   8   1.0000     -12.787205      -347.9575 
   9   1.0000      -7.220184      -196.4712 
  10   1.0000      -7.218413      -196.4230 
  11   1.0000      -7.218408      -196.4229 
  12   1.0000      -7.211708      -196.2406 
  13   1.0000      -7.211708      -196.2406 
  14   1.0000      -2.168524       -59.0085 
  15   1.0000      -1.297393       -35.3039 
  16   1.0000      -1.285197       -34.9720 
  17   1.0000      -1.285187       -34.9717 
  18   1.0000      -0.164475        -4.4756 
  19   1.0000      -0.143310        -3.8997 
  20   1.0000      -0.143297        -3.8993 
  21   1.0000      -0.128490        -3.4964 
  22   1.0000      -0.128490        -3.4964 
  23   0.0000      -0.126272        -3.4360 
  24   0.0000      -0.049699        -1.3524 
  25   0.0000      -0.046529        -1.2661 
  26   0.0000      -0.046526        -1.2660 
  27   0.0000       0.063493         1.7277 
  28   0.0000       0.063495         1.7278 
  29   0.0000       0.065735         1.7887 
  30   0.0000       0.066704         1.8151 
  31   0.0000       0.066704         1.8151 
  32   0.0000       0.068892         1.8746 
  33   0.0000       0.134399         3.6572 
  34   0.0000       0.136995         3.7278 
  35   0.0000       0.136997         3.7279 
  36   0.0000       0.356978         9.7139 
  37   0.0000       0.356984         9.7140 
  38   0.0000       0.365250         9.9390 
  39   0.0000       0.365250         9.9390 
  40   0.0000       0.365326         9.9410 
  41   0.0000       0.582158        15.8413 
  42   0.0000       0.788502        21.4562 
  43   0.0000       0.793374        21.5888 
  44   0.0000       0.793380        21.5890 
  45   0.0000       0.871094        23.7037 
  46   0.0000       0.871096        23.7037 
  47   0.0000       0.877561        23.8796 
  48   0.0000       0.877581        23.8802 
  49   0.0000       0.888268        24.1710 
  50   0.0000       0.888268        24.1710 
  51   0.0000       0.891596        24.2616 
  52   0.0000       1.496220        40.7142 
  53   0.0000       1.496231        40.7145 
  54   0.0000       1.509582        41.0778 
  55   0.0000       1.509582        41.0778 
  56   0.0000       1.511076        41.1185 
  57   0.0000       2.390272        65.0426 
  58   0.0000       3.133938        85.2788 
  59   0.0000       3.133939        85.2788 
  60   0.0000       3.134362        85.2903 
  61   0.0000       3.134373        85.2906 
  62   0.0000       3.140041        85.4449 
  63   0.0000       3.148449        85.6736 
  64   0.0000       3.148449        85.6737 
  65   0.0000       3.246631        88.3453 
  66   0.0000       3.246639        88.3455 
  67   0.0000       3.248320        88.3913 
  68   0.0000       3.248321        88.3913 
  69   0.0000       3.252294        88.4994 
  70   0.0000       3.252342        88.5007 
  71   0.0000       3.261856        88.7596 
  72   0.0000       3.265374        88.8553 
  73   0.0000       3.265374        88.8553 
  74   0.0000       3.497165        95.1627 
  75   0.0000       3.506638        95.4205 
  76   0.0000       3.506647        95.4207 
  77   0.0000       6.350105       172.7951 
  78   0.0000       6.350114       172.7954 
  79   0.0000       6.355740       172.9485 
  80   0.0000       6.362482       173.1319 
  81   0.0000       6.362482       173.1319 
  82   0.0000       9.192676       250.1454 
  83   0.0000      15.919774       433.1991 
  84   0.0000      15.931225       433.5107 
  85   0.0000      15.931233       433.5109 
  86   0.0000      35.454817       964.7746 
  87   0.0000      71.063163      1933.7270 
  88   0.0000      71.070013      1933.9134 
  89   0.0000      71.070017      1933.9135 
  90   0.0000     130.809036      3559.4948 
  91   0.0000     316.025192      8599.4827 
  92   0.0000     316.028719      8599.5786 
  93   0.0000     316.028721      8599.5787 
  94   0.0000     438.639674     11935.9923 
  95   0.0000    1333.530523     36287.2103 
  96   0.0000    3766.080587    102480.2628 
  97   0.0000   13511.539889    367667.6922 

                 SPIN DOWN ORBITALS
  NO   OCC          E(Eh)            E(eV) 
   0   1.0000    -709.755511    -19313.4293 
   1   1.0000     -97.539797     -2654.1928 
   2   1.0000     -87.015751     -2367.8190 
   3   1.0000     -87.010131     -2367.6660 
   4   1.0000     -87.010127     -2367.6659 
   5   1.0000     -16.204240      -440.9398 
   6   1.0000     -12.790818      -348.0559 
   7   1.0000     -12.779175      -347.7390 
   8   1.0000     -12.779168      -347.7388 
   9   1.0000      -7.214110      -196.3059 
  10   1.0000      -7.206083      -196.0875 
  11   1.0000      -7.206080      -196.0874 
  12   1.0000      -7.200035      -195.9229 
  13   1.0000      -7.200035      -195.9229 
  14   1.0000      -2.099051       -57.1181 
  15   1.0000      -1.230761       -33.4907 
  16   1.0000      -1.197768       -32.5929 
  17   1.0000      -1.197747       -32.5923 
  18   0.0000      -0.071568        -1.9475 
  19   0.0000      -0.053674        -1.4605 
  20   0.0000      -0.034276        -0.9327 
  21   0.0000      -0.034269        -0.9325 
  22   0.0000      -0.023410        -0.6370 
  23   0.0000      -0.023410        -0.6370 
  24   0.0000       0.035515         0.9664 
  25   0.0000       0.043994         1.1971 
  26   0.0000       0.044000         1.1973 
  27   0.0000       0.130856         3.5608 
  28   0.0000       0.135114         3.6766 
  29   0.0000       0.135116         3.6767 
  30   0.0000       0.137535         3.7425 
  31   0.0000       0.137535         3.7425 
  32   0.0000       0.145485         3.9589 
  33   0.0000       0.205887         5.6025 
  34   0.0000       0.215303         5.8587 
  35   0.0000       0.215310         5.8589 
  36   0.0000       0.439076        11.9479 
  37   0.0000       0.450851        12.2683 
  38   0.0000       0.450856        12.2684 
  39   0.0000       0.456933        12.4338 
  40   0.0000       0.456933        12.4338 
  41   0.0000       0.677718        18.4416 
  42   0.0000       0.873774        23.7766 
  43   0.0000       0.892755        24.2931 
  44   0.0000       0.892767        24.2934 
  45   0.0000       0.972577        26.4652 
  46   0.0000       0.979101        26.6427 
  47   0.0000       0.979110        26.6429 
  48   0.0000       0.996900        27.1270 
  49   0.0000       0.996900        27.1270 
  50   0.0000       1.001672        27.2569 
  51   0.0000       1.001672        27.2569 
  52   0.0000       1.571215        42.7549 
  53   0.0000       1.589734        43.2588 
  54   0.0000       1.589740        43.2590 
  55   0.0000       1.599346        43.5204 
  56   0.0000       1.599346        43.5204 
  57   0.0000       2.481124        67.5148 
  58   0.0000       3.189308        86.7855 
  59   0.0000       3.198769        87.0429 
  60   0.0000       3.198778        87.0432 
  61   0.0000       3.219254        87.6004 
  62   0.0000       3.219254        87.6004 
  63   0.0000       3.223640        87.7197 
  64   0.0000       3.223640        87.7197 
  65   0.0000       3.344979        91.0215 
  66   0.0000       3.350708        91.1774 
  67   0.0000       3.350719        91.1777 
  68   0.0000       3.366328        91.6024 
  69   0.0000       3.366328        91.6024 
  70   0.0000       3.382319        92.0376 
  71   0.0000       3.382319        92.0376 
  72   0.0000       3.382888        92.0531 
  73   0.0000       3.382888        92.0531 
  74   0.0000       3.565054        97.0100 
  75   0.0000       3.591406        97.7271 
  76   0.0000       3.591423        97.7276 
  77   0.0000       6.387830       173.8217 
  78   0.0000       6.407581       174.3591 
  79   0.0000       6.407587       174.3593 
  80   0.0000       6.417531       174.6299 
  81   0.0000       6.417531       174.6299 
  82   0.0000       9.244941       251.5676 
  83   0.0000      15.945395       433.8963 
  84   0.0000      15.964739       434.4226 
  85   0.0000      15.964751       434.4230 
  86   0.0000      35.476133       965.3547 
  87   0.0000      71.074846      1934.0449 
  88   0.0000      71.085360      1934.3310 
  89   0.0000      71.085367      1934.3312 
  90   0.0000     130.823512      3559.8887 
  91   0.0000     316.030639      8599.6309 
  92   0.0000     316.035842      8599.7725 
  93   0.0000     316.035846      8599.7726 
  94   0.0000     438.648180     11936.2238 
  95   0.0000    1333.533308     36287.2861 
  96   0.0000    3766.081518    102480.2881 
  97   0.0000   13511.540985    367667.7221 

                    ********************************
                    * MULLIKEN POPULATION ANALYSIS *
                    ********************************

--------------------------------------------
MULLIKEN ATOMIC CHARGES AND SPIN POPULATIONS
--------------------------------------------
   0 Nb:   -0.000000    5.000000
Sum of atomic charges         :   -0.0000000
Sum of atomic spin populations:    5.0000000

-----------------------------------------------------
MULLIKEN REDUCED ORBITAL CHARGES AND SPIN POPULATIONS
-----------------------------------------------------
CHARGE
  0 Nbs       :     8.998954  s :     8.998954
      pz      :     5.999864  p :    17.999765
      px      :     5.999943
      py      :     5.999958
      dz2     :     2.580644  d :    14.001010
      dxz     :     2.603155
      dyz     :     2.858602
      dx2y2   :     2.990699
      dxy     :     2.967909
      f0      :     0.000046  f :     0.000235
      f+1     :     0.000091
      f-1     :     0.000043
      f+2     :     0.000020
      f-2     :     0.000030
      f+3     :     0.000002
      f-3     :     0.000003
      g0      :     0.000005  g :     0.000037
      g+1     :     0.000008
      g-1     :     0.000007
      g+2     :     0.000002
      g-2     :     0.000004
      g+3     :     0.000004
      g-3     :     0.000005
      g+4     :     0.000001
      g-4     :     0.000001

SPIN
  0 Nbs       :     0.999190  s :     0.999190
      pz      :     0.000117  p :     0.000137
      px      :     0.000019
      py      :     0.000001
      dz2     :     0.580550  d :     4.000786
      dxz     :     0.603066
      dyz     :     0.858570
      dx2y2   :     0.990697
      dxy     :     0.967901
      f0      :    -0.000014  f :    -0.000137
      f+1     :    -0.000080
      f-1     :    -0.000025
      f+2     :    -0.000002
      f-2     :    -0.000016
      f+3     :     0.000000
      f-3     :    -0.000001
      g0      :     0.000005  g :     0.000024
      g+1     :     0.000003
      g-1     :     0.000005
      g+2     :     0.000001
      g-2     :     0.000001
      g+3     :     0.000004
      g-3     :     0.000004
      g+4     :     0.000001
      g-4     :     0.000001


                     *******************************
                     * LOEWDIN POPULATION ANALYSIS *
                     *******************************

-------------------------------------------
LOEWDIN ATOMIC CHARGES AND SPIN POPULATIONS
-------------------------------------------
   0 Nb:    0.000000    5.000000

----------------------------------------------------
LOEWDIN REDUCED ORBITAL CHARGES AND SPIN POPULATIONS
----------------------------------------------------
CHARGE
  0 Nbs       :     8.998954  s :     8.998954
      pz      :     5.999864  p :    17.999765
      px      :     5.999943
      py      :     5.999958
      dz2     :     2.580644  d :    14.001010
      dxz     :     2.603155
      dyz     :     2.858602
      dx2y2   :     2.990699
      dxy     :     2.967909
      f0      :     0.000046  f :     0.000235
      f+1     :     0.000091
      f-1     :     0.000043
      f+2     :     0.000020
      f-2     :     0.000030
      f+3     :     0.000002
      f-3     :     0.000003
      g0      :     0.000005  g :     0.000037
      g+1     :     0.000008
      g-1     :     0.000007
      g+2     :     0.000002
      g-2     :     0.000004
      g+3     :     0.000004
      g-3     :     0.000005
      g+4     :     0.000001
      g-4     :     0.000001

SPIN
  0 Nbs       :     0.999190  s :     0.999190
      pz      :     0.000117  p :     0.000137
      px      :     0.000019
      py      :     0.000001
      dz2     :     0.580550  d :     4.000786
      dxz     :     0.603066
      dyz     :     0.858570
      dx2y2   :     0.990697
      dxy     :     0.967901
      f0      :    -0.000014  f :    -0.000137
      f+1     :    -0.000080
      f-1     :    -0.000025
      f+2     :    -0.000002
      f-2     :    -0.000016
      f+3     :     0.000000
      f-3     :    -0.000001
      g0      :     0.000005  g :     0.000024
      g+1     :     0.000003
      g-1     :     0.000005
      g+2     :     0.000001
      g-2     :     0.000001
      g+3     :     0.000004
      g-3     :     0.000004
      g+4     :     0.000001
      g-4     :     0.000001


                      *****************************
                      * MAYER POPULATION ANALYSIS *
                      *****************************

  NA   - Mulliken gross atomic population
  ZA   - Total nuclear charge
  QA   - Mulliken gross atomic charge
  VA   - Mayer's total valence
  BVA  - Mayer's bonded valence
  FA   - Mayer's free valence

  ATOM       NA         ZA         QA         VA         BVA        FA
  0 Nb    41.0000    41.0000     0.0000     5.0018     0.0000     5.0018

  Mayer bond orders larger than 0.100000


-------
TIMINGS
-------

Total SCF time: 0 days 0 hours 5 min 15 sec 

Total time                  ....     315.743 sec
Sum of individual times     ....     277.852 sec  ( 88.0%)

Fock matrix formation       ....     262.201 sec  ( 83.0%)
  XC integration            ....      74.367 sec  ( 28.4% of F)
    Basis function eval.    ....       0.077 sec  (  0.1% of XC)
    Density eval.           ....       0.585 sec  (  0.8% of XC)
    XC-Functional eval.     ....       0.175 sec  (  0.2% of XC)
    XC-Potential eval.      ....       0.246 sec  (  0.3% of XC)
Diagonalization             ....       0.110 sec  (  0.0%)
Density matrix formation    ....       0.011 sec  (  0.0%)
Population analysis         ....       3.850 sec  (  1.2%)
Initial guess               ....      10.164 sec  (  3.2%)
Orbital Transformation      ....       0.000 sec  (  0.0%)
Orbital Orthonormalization  ....       0.000 sec  (  0.0%)
DIIS solution               ....       0.028 sec  (  0.0%)
SOSCF solution              ....       0.326 sec  (  0.1%)
Grid generation             ....       1.162 sec  (  0.4%)

Maximum memory used throughout the entire SCF-calculation: 229.7 MB

-------------------------   --------------------
FINAL SINGLE POINT ENERGY     -3869.552744715085
-------------------------   --------------------


                            ***************************************
                            *     ORCA property calculations      *
                            ***************************************

                                    ---------------------
                                    Active property flags
                                    ---------------------
   (+) Dipole Moment


------------------------------------------------------------------------------
                       ORCA ELECTRIC PROPERTIES CALCULATION
------------------------------------------------------------------------------

Dipole Moment Calculation                       ... on
Quadrupole Moment Calculation                   ... off
Polarizability Calculation                      ... off
GBWName                                         ... Nb_sarc-zora-tzvpp_pbe.gbw
Electron density                                ... Nb_sarc-zora-tzvpp_pbe.scfp
The origin for moment calculation is the CENTER OF MASS  = ( 0.000000,  0.000000  0.000000)

-------------
DIPOLE MOMENT
-------------
                                X             Y             Z
Electronic contribution:      0.00000       0.00000      -0.00000
Nuclear contribution   :      0.00000       0.00000       0.00000
                        -----------------------------------------
Total Dipole Moment    :      0.00000       0.00000      -0.00000
                        -----------------------------------------
Magnitude (a.u.)       :      0.00000
Magnitude (Debye)      :      0.00000



--------------------
Rotational spectrum 
--------------------
 
Rotational constants in cm-1:     0.000000     0.000000     0.000000 
Rotational constants in MHz :     0.000000     0.000000     0.000000 

 Dipole components along the rotational axes: 
x,y,z [a.u.] :     0.000000     0.000000    -0.000000 
x,y,z [Debye]:     0.000000     0.000000    -0.000000 

 

Timings for individual modules:

Sum of individual times         ...      410.873 sec (=   6.848 min)
GTO integral calculation        ...       76.452 sec (=   1.274 min)  18.6 %
Relativistic integrals          ...       15.507 sec (=   0.258 min)   3.8 %
SCF iterations                  ...      318.914 sec (=   5.315 min)  77.6 %
                             ****ORCA TERMINATED NORMALLY****
TOTAL RUN TIME: 0 days 0 hours 7 minutes 3 seconds 722 msec
