
                                 *****************
                                 * O   R   C   A *
                                 *****************

                                            #,                                       
                                            ###                                      
                                            ####                                     
                                            #####                                    
                                            ######                                   
                                           ########,                                 
                                     ,,################,,,,,                         
                               ,,#################################,,                 
                          ,,##########################################,,             
                       ,#########################################, ''#####,          
                    ,#############################################,,   '####,        
                  ,##################################################,,,,####,       
                ,###########''''           ''''###############################       
              ,#####''   ,,,,##########,,,,          '''####'''          '####       
            ,##' ,,,,###########################,,,                        '##       
           ' ,,###''''                  '''############,,,                           
         ,,##''                                '''############,,,,        ,,,,,,###''
      ,#''                                            '''#######################'''  
     '                                                          ''''####''''         
             ,#######,   #######,   ,#######,      ##                                
            ,#'     '#,  ##    ##  ,#'     '#,    #''#        ######   ,####,        
            ##       ##  ##   ,#'  ##            #'  '#       #        #'  '#        
            ##       ##  #######   ##           ,######,      #####,   #    #        
            '#,     ,#'  ##    ##  '#,     ,#' ,#      #,         ##   #,  ,#        
             '#######'   ##     ##  '#######'  #'      '#     #####' # '####'        



                  #######################################################
                  #                        -***-                        #
                  #          Department of theory and spectroscopy      #
                  #    Directorship and core code : Frank Neese         #
                  #        Max Planck Institute fuer Kohlenforschung    #
                  #                Kaiser Wilhelm Platz 1               #
                  #                 D-45470 Muelheim/Ruhr               #
                  #                      Germany                        #
                  #                                                     #
                  #                  All rights reserved                #
                  #                        -***-                        #
                  #######################################################


                         Program Version 5.0.1 -  RELEASE  -


 With contributions from (in alphabetic order):
   Daniel Aravena         : Magnetic Suceptibility
   Michael Atanasov       : Ab Initio Ligand Field Theory (pilot matlab implementation)
   Alexander A. Auer      : GIAO ZORA, VPT2 properties, NMR spectrum
   Ute Becker             : Parallelization
   Giovanni Bistoni       : ED, misc. LED, open-shell LED, HFLD
   Martin Brehm           : Molecular dynamics
   Dmytro Bykov           : SCF Hessian
   Vijay G. Chilkuri      : MRCI spin determinant printing, contributions to CSF-ICE
   Dipayan Datta          : RHF DLPNO-CCSD density
   Achintya Kumar Dutta   : EOM-CC, STEOM-CC
   Dmitry Ganyushin       : Spin-Orbit,Spin-Spin,Magnetic field MRCI
   Miquel Garcia          : C-PCM and meta-GGA Hessian, CC/C-PCM, Gaussian charge scheme
   Yang Guo               : DLPNO-NEVPT2, F12-NEVPT2, CIM, IAO-localization
   Andreas Hansen         : Spin unrestricted coupled pair/coupled cluster methods
   Benjamin Helmich-Paris : MC-RPA, TRAH-SCF, COSX integrals
   Lee Huntington         : MR-EOM, pCC
   Robert Izsak           : Overlap fitted RIJCOSX, COSX-SCS-MP3, EOM
   Marcus Kettner         : VPT2
   Christian Kollmar      : KDIIS, OOCD, Brueckner-CCSD(T), CCSD density, CASPT2, CASPT2-K
   Simone Kossmann        : Meta GGA functionals, TD-DFT gradient, OOMP2, MP2 Hessian
   Martin Krupicka        : Initial AUTO-CI
   Lucas Lang             : DCDCAS
   Marvin Lechner         : AUTO-CI (C++ implementation), FIC-MRCC
   Dagmar Lenk            : GEPOL surface, SMD
   Dimitrios Liakos       : Extrapolation schemes; Compound Job, initial MDCI parallelization
   Dimitrios Manganas     : Further ROCIS development; embedding schemes
   Dimitrios Pantazis     : SARC Basis sets
   Anastasios Papadopoulos: AUTO-CI, single reference methods and gradients
   Taras Petrenko         : DFT Hessian,TD-DFT gradient, ASA, ECA, R-Raman, ABS, FL, XAS/XES, NRVS
   Peter Pinski           : DLPNO-MP2, DLPNO-MP2 Gradient
   Christoph Reimann      : Effective Core Potentials
   Marius Retegan         : Local ZFS, SOC
   Christoph Riplinger    : Optimizer, TS searches, QM/MM, DLPNO-CCSD(T), (RO)-DLPNO pert. Triples
   Tobias Risthaus        : Range-separated hybrids, TD-DFT gradient, RPA, STAB
   Michael Roemelt        : Original ROCIS implementation
   Masaaki Saitow         : Open-shell DLPNO-CCSD energy and density
   Barbara Sandhoefer     : DKH picture change effects
   Avijit Sen             : IP-ROCIS
   Kantharuban Sivalingam : CASSCF convergence, NEVPT2, FIC-MRCI
   Bernardo de Souza      : ESD, SOC TD-DFT
   Georgi Stoychev        : AutoAux, RI-MP2 NMR, DLPNO-MP2 response
   Willem Van den Heuvel  : Paramagnetic NMR
   Boris Wezisla          : Elementary symmetry handling
   Frank Wennmohs         : Technical directorship


 We gratefully acknowledge several colleagues who have allowed us to
 interface, adapt or use parts of their codes:
   Stefan Grimme, W. Hujo, H. Kruse, P. Pracht,  : VdW corrections, initial TS optimization,
                  C. Bannwarth, S. Ehlert          DFT functionals, gCP, sTDA/sTD-DF
   Ed Valeev, F. Pavosevic, A. Kumar             : LibInt (2-el integral package), F12 methods
   Garnet Chan, S. Sharma, J. Yang, R. Olivares  : DMRG
   Ulf Ekstrom                                   : XCFun DFT Library
   Mihaly Kallay                                 : mrcc  (arbitrary order and MRCC methods)
   Jiri Pittner, Ondrej Demel                    : Mk-CCSD
   Frank Weinhold                                : gennbo (NPA and NBO analysis)
   Christopher J. Cramer and Donald G. Truhlar   : smd solvation model
   Lars Goerigk                                  : TD-DFT with DH, B97 family of functionals
   V. Asgeirsson, H. Jonsson                     : NEB implementation
   FAccTs GmbH                                   : IRC, NEB, NEB-TS, DLPNO-Multilevel, CI-OPT
                                                   MM, QMMM, 2- and 3-layer-ONIOM, Crystal-QMMM,
                                                   LR-CPCM, SF, NACMEs, symmetry and pop. for TD-DFT,
                                                   nearIR, NL-DFT gradient (VV10), updates on ESD,
                                                   ML-optimized integration grids
   S Lehtola, MJT Oliveira, MAL Marques          : LibXC Library
   Liviu Ungur et al                             : ANISO software


 Your calculation uses the libint2 library for the computation of 2-el integrals
 For citations please refer to: http://libint.valeyev.net

 Your ORCA version has been built with support for libXC version: 5.1.0
 For citations please refer to: https://tddft.org/programs/libxc/

 This ORCA versions uses:
   CBLAS   interface :  Fast vector & matrix operations
   LAPACKE interface :  Fast linear algebra routines
   SCALAPACK package :  Parallel linear algebra routines
   Shared memory     :  Shared parallel matrices
   BLAS/LAPACK       :  OpenBLAS 0.3.15  USE64BITINT DYNAMIC_ARCH NO_AFFINITY Haswell SINGLE_THREADED
        Core in use  :  Haswell
   Copyright (c) 2011-2014, The OpenBLAS Project


SCAN-COORDS

Reading of a custom basis requested
Basis file         : Nb_sapporo-qzp-2012-diffuse.basis
READING GTO-BASIS: NIOBIUM
Basis successfully read

================================================================================

----- Orbital basis set information -----
================================================================================
                                        WARNINGS
                       Please study these warnings very carefully!
================================================================================


INFO   : the flag for use of the SHARK integral package has been found!

================================================================================
                                       INPUT FILE
================================================================================
NAME = Nb_sapporo-qzp-2012-diffuse_pbe.inp
|  1> !uks pbe nori verytightscf soscf notrah
|  2> 
|  3> %pal
|  4>   nprocs 32
|  5> end
|  6> %coords
|  7>   charge 0
|  8>   mult 6
|  9>   units bohrs
| 10>   coords
| 11>     Nb 0.0 0.0 0.0
| 12>   end
| 13> end
| 14> %basis
| 15>   gtoname "Nb_sapporo-qzp-2012-diffuse.basis"
| 16>   delECP Nb
| 17> end
| 18> %rel
| 19>   method zora
| 20>   modelpot 1, 0, 0, 0
| 21>   c 137.035999084
| 22> endd                         ****END OF INPUT****
================================================================================

                       ****************************
                       * Single Point Calculation *
                       ****************************

---------------------------------
CARTESIAN COORDINATES (ANGSTROEM)
---------------------------------
  Nb     0.000000    0.000000    0.000000

----------------------------
CARTESIAN COORDINATES (A.U.)
----------------------------
  NO LB      ZA    FRAG     MASS         X           Y           Z
   0 Nb   41.0000    0    92.910    0.000000    0.000000    0.000000

--------------------------------
INTERNAL COORDINATES (ANGSTROEM)
--------------------------------
 Nb     0   0   0     0.000000000000     0.00000000     0.00000000

---------------------------
INTERNAL COORDINATES (A.U.)
---------------------------
 Nb     0   0   0     0.000000000000     0.00000000     0.00000000

---------------------
BASIS SET INFORMATION
---------------------
There are 1 groups of distinct atoms

 Group   1 Type Nb  : 22s17p13d4f3g2h contracted to 11s9p7d4f3g2h pattern {74221111111/731111111/7111111/1111/111/11}

Atom   0Nb   basis set group =>   1


           ************************************************************
           *        Program running with 32 parallel MPI-processes    *
           *              working on a common directory               *
           ************************************************************
------------------------------------------------------------------------------
                           ORCA GTO INTEGRAL CALCULATION
------------------------------------------------------------------------------
------------------------------------------------------------------------------
                   ___                                                        
                  /   \      - P O W E R E D   B Y -                         
                 /     \                                                     
                 |  |  |   _    _      __       _____    __    __             
                 |  |  |  | |  | |    /  \     |  _  \  |  |  /  |          
                  \  \/   | |  | |   /    \    | | | |  |  | /  /          
                 / \  \   | |__| |  /  /\  \   | |_| |  |  |/  /          
                |  |  |   |  __  | /  /__\  \  |    /   |      \           
                |  |  |   | |  | | |   __   |  |    \   |  |\   \          
                \     /   | |  | | |  |  |  |  | |\  \  |  | \   \       
                 \___/    |_|  |_| |__|  |__|  |_| \__\ |__|  \__/        
                                                                              
                      - O R C A' S   B I G   F R I E N D -                    
                                      &                                       
                       - I N T E G R A L  F E E D E R -                       
                                                                              
 v1 FN, 2020, v2 2021                                                         
------------------------------------------------------------------------------


Reading SHARK input file Nb_sapporo-qzp-2012-diffuse_pbe.SHARKINP.tmp ... ok
----------------------
SHARK INTEGRAL PACKAGE
----------------------

Number of atoms                             ...      1
Number of basis functions                   ...    150
Number of shells                            ...     36
Maximum angular momentum                    ...      5
Integral batch strategy                     ... SHARK/LIBINT Hybrid
RI-J (if used) integral strategy            ... SPLIT-RIJ (Revised 2003 algorithm where possible)
Printlevel                                  ...      1
Contraction scheme used                     ... SEGMENTED contraction
Coulomb Range Separation                    ... NOT USED
Exchange Range Separation                   ... NOT USED
Finite Nucleus Model                        ... NOT USED
Auxiliary Coulomb fitting basis             ... NOT available
Auxiliary J/K fitting basis                 ... NOT available
Auxiliary Correlation fitting basis         ... NOT available
Auxiliary 'external' fitting basis          ... NOT available
Integral threshold                          ...     1.000000e-12
Primitive cut-off                           ...     1.000000e-14
Primitive pair pre-selection threshold      ...     1.000000e-14

Calculating pre-screening integrals         ... done (  6.1 sec) Dimension = 36
Organizing shell pair data                  ... done (  0.8 sec)
Shell pair information
Total number of shell pairs                 ...       666
Shell pairs after pre-screening             ...       666
Total number of primitive shell pairs       ...      1965
Primitive shell pairs kept                  ...      1965
          la=0 lb=0:     66 shell pairs
          la=1 lb=0:     99 shell pairs
          la=1 lb=1:     45 shell pairs
          la=2 lb=0:     77 shell pairs
          la=2 lb=1:     63 shell pairs
          la=2 lb=2:     28 shell pairs
          la=3 lb=0:     44 shell pairs
          la=3 lb=1:     36 shell pairs
          la=3 lb=2:     28 shell pairs
          la=3 lb=3:     10 shell pairs
          la=4 lb=0:     33 shell pairs
          la=4 lb=1:     27 shell pairs
          la=4 lb=2:     21 shell pairs
          la=4 lb=3:     12 shell pairs
          la=4 lb=4:      6 shell pairs
          la=5 lb=0:     22 shell pairs
          la=5 lb=1:     18 shell pairs
          la=5 lb=2:     14 shell pairs
          la=5 lb=3:      8 shell pairs
          la=5 lb=4:      6 shell pairs
          la=5 lb=5:      3 shell pairs

Calculating one electron integrals          ... done (  0.7 sec)
Calculating Nuclear repulsion               ... done (  0.0 sec) ENN=      0.000000000000 Eh

SHARK setup successfully completed in  10.3 seconds

Maximum memory used throughout the entire GTOINT-calculation: 39.4 MB


           ************************************************************
           *        Program running with 32 parallel MPI-processes    *
           *              working on a common directory               *
           ************************************************************
------------------------------------------------------------------------------
                          ORCA RELATIVISTIC HAMILTONIAN
------------------------------------------------------------------------------

Relativistic Method            ... ZORA(MP)
Treatment of potential         ... Van Wuellen
Nucleus model                  ... Point Nucleus
Speed of light used            ... 137.03599908400000


            *************************************************
            *         ZERO ORDER REGULAR APPROXIMATION      *
            *                     ZORA(MP)                  *
            *            Programmed by FN according to      *
            *                   C. van Wuellen              *
            *       J. Chem. Phys. (1998) vol 109, 392-399  *
            *************************************************

Terms included in model potential: +V(e,N)
Basis function cutoff value   ... 1.000000e-12
Loading the fitted atomic densities  (DKH4)  ... done
Calculating the cutoffs                      ... done
Number of fit functions                      ... 28
Setting up the integration grid ... done

Maximum memory used throughout the entire REL-calculation: 10.4 MB


           ************************************************************
           *        Program running with 32 parallel MPI-processes    *
           *              working on a common directory               *
           ************************************************************
-------------------------------------------------------------------------------
                                 ORCA SCF
-------------------------------------------------------------------------------

------------
SCF SETTINGS
------------
Hamiltonian:
 Density Functional     Method          .... DFT(GTOs)
 Exchange Functional    Exchange        .... PBE
   PBE kappa parameter   XKappa         ....  0.804000
   PBE mue parameter    XMuePBE         ....  0.219520
 Correlation Functional Correlation     .... PBE
   PBE beta parameter  CBetaPBE         ....  0.066725
 LDA part of GGA corr.  LDAOpt          .... PW91-LDA
 Gradients option       PostSCFGGA      .... off
   Density functional embedding theory  .... OFF
   NL short-range parameter             ....  6.400000

Relativistic Settings:
 Scalar relativistic method             .... ZORA
 Speed of light used       Velit        ....       137.035999
Orbital energies will be scaled


General Settings:
 Integral files         IntName         .... Nb_sapporo-qzp-2012-diffuse_pbe
 Hartree-Fock type      HFTyp           .... UHF
 Total Charge           Charge          ....    0
 Multiplicity           Mult            ....    6
 Number of Electrons    NEL             ....   41
 Basis Dimension        Dim             ....  150
 Nuclear Repulsion      ENuc            ....      0.0000000000 Eh

Convergence Acceleration:
 DIIS                   CNVDIIS         .... on
   Start iteration      DIISMaxIt       ....    12
   Startup error        DIISStart       ....  0.200000
   # of expansion vecs  DIISMaxEq       ....     5
   Bias factor          DIISBfac        ....   1.050
   Max. coefficient     DIISMaxC        ....  10.000
 Trust-Rad. Augm. Hess. CNVTRAH         .... off
 SOSCF                  CNVSOSCF        .... on
   Start iteration      SOSCFMaxIt      ....   150
   Startup grad/error   SOSCFStart      ....  0.003300
 Level Shifting         CNVShift        .... on
   Level shift para.    LevelShift      ....    0.2500
   Turn off err/grad.   ShiftErr        ....    0.0010
 Zerner damping         CNVZerner       .... off
 Static damping         CNVDamp         .... on
   Fraction old density DampFac         ....    0.7000
   Max. Damping (<1)    DampMax         ....    0.9800
   Min. Damping (>=0)   DampMin         ....    0.0000
   Turn off err/grad.   DampErr         ....    0.1000
 Fernandez-Rico         CNVRico         .... off

SCF Procedure:
 Maximum # iterations   MaxIter         ....   125
 SCF integral mode      SCFMode         .... Direct
   Integral package                     .... SHARK and LIBINT hybrid scheme
 Reset frequency        DirectResetFreq ....    20
 Integral Threshold     Thresh          ....  1.000e-12 Eh
 Primitive CutOff       TCut            ....  1.000e-14 Eh

Convergence Tolerance:
 Convergence Check Mode ConvCheckMode   .... Total+1el-Energy
 Convergence forced     ConvForced      .... 0
 Energy Change          TolE            ....  1.000e-09 Eh
 1-El. energy change                    ....  1.000e-06 Eh
 Orbital Gradient       TolG            ....  2.000e-06
 Orbital Rotation angle TolX            ....  2.000e-06
 DIIS Error             TolErr          ....  1.000e-08


Diagonalization of the overlap matrix:
Smallest eigenvalue                        ... 1.885e-04
Time for diagonalization                   ...    0.114 sec
Threshold for overlap eigenvalues          ... 1.000e-08
Number of eigenvalues below threshold      ... 0
Time for construction of square roots      ...    0.235 sec
Total time needed                          ...    0.350 sec

Time for model grid setup =    0.395 sec

------------------------------
INITIAL GUESS: MODEL POTENTIAL
------------------------------
Loading ZORA relativistic densities                ... done
Calculating cut-offs                               ... done
Initializing the effective Hamiltonian             ... done
Setting up the integral package (SHARK)            ... done
Starting the Coulomb interaction                   ... done (   2.8 sec)
Reading the grid                                   ... done
Mapping shells                                     ... done
Starting the XC term evaluation                    ... done (   0.8 sec)
  promolecular density results
     # of electrons  =     41.000391489
     EX              =   -119.354590319
     EC              =     -2.038692211
     EX+EC           =   -121.393282530
Transforming the Hamiltonian                       ... done (   0.0 sec)
Diagonalizing the Hamiltonian                      ... done (   0.1 sec)
Back transforming the eigenvectors                 ... done (   0.0 sec)
Now organizing SCF variables                       ... done
                      ------------------
                      INITIAL GUESS DONE (   4.5 sec)
                      ------------------
-------------------
DFT GRID GENERATION
-------------------

General Integration Accuracy     IntAcc      ... 4.388
Radial Grid Type                 RadialGrid  ... OptM3 with GC (2021)
Angular Grid (max. ang.)         AngularGrid ... 4 (Lebedev-302)
Angular grid pruning method      GridPruning ... 4 (adaptive)
Weight generation scheme         WeightScheme... Becke
Basis function cutoff            BFCut       ... 1.0000e-12
Integration weight cutoff        WCut        ... 1.0000e-14
Angular grids for H and He will be reduced by one unit
Partially contracted basis set               ... off
Rotationally invariant grid construction     ... off

Total number of grid points                  ...    27544
Total number of batches                      ...      431
Average number of points per batch           ...       63
Average number of grid points per atom       ...    27544
Time for grid setup =    0.779 sec

--------------
SCF ITERATIONS
--------------
ITER       Energy         Delta-E        Max-DP      RMS-DP      [F,P]     Damp
               ***  Starting incremental Fock matrix formation  ***
  0  -3857.8962929482   0.000000000000 0.02363206  0.00054046  0.1407010 0.7000
  1  -3857.9109480784  -0.014655130214 0.02556249  0.00039300  0.0929674 0.7000
                               ***Turning on DIIS***
  2  -3857.9182269374  -0.007278858981 0.06462669  0.00088411  0.0619236 0.0000
  3  -3857.9303915081  -0.012164570699 0.01470146  0.00028821  0.0245677 0.0000
  4  -3857.9321590034  -0.001767495225 0.01011308  0.00010235  0.0117328 0.0000
                      *** Initiating the SOSCF procedure ***
                           *** Shutting down DIIS ***
                      *** Re-Reading the Fockian *** 
                      *** Removing any level shift *** 
ITER      Energy       Delta-E        Grad      Rot      Max-DP    RMS-DP
  5  -3857.93240445  -0.0002454448  0.001105  0.001105  0.004348  0.000040
               *** Restarting incremental Fock matrix formation ***
  6  -3857.93243223  -0.0000277824  0.000495  0.007073  0.002057  0.000034
  7  -3857.93243469  -0.0000024622  0.000589  0.003833  0.000984  0.000018
  8  -3857.93243930  -0.0000046096  0.000132  0.002499  0.000398  0.000009
  9  -3857.93243993  -0.0000006274  0.000086  0.005761  0.000620  0.000015
 10  -3857.93244067  -0.0000007404  0.000082  0.006454  0.000689  0.000016
 11  -3857.93244120  -0.0000005336  0.000096  0.003469  0.000367  0.000009
 12  -3857.93244139  -0.0000001900  0.000040  0.000518  0.000121  0.000002
 13  -3857.93244141  -0.0000000194  0.000014  0.000200  0.000022  0.000001
 14  -3857.93244141  -0.0000000011  0.000006  0.000056  0.000007  0.000000
 15  -3857.93244141  -0.0000000003  0.000002  0.000292  0.000029  0.000001
 16  -3857.93244142  -0.0000000013  0.000010  0.000866  0.000084  0.000002
 17  -3857.93244142  -0.0000000030  0.000026  0.002632  0.000261  0.000007
 18  -3857.93244143  -0.0000000082  0.000052  0.007092  0.000708  0.000018
 19  -3857.93244145  -0.0000000206  0.000093  0.016935  0.001704  0.000043
 20  -3857.93244149  -0.0000000440  0.000149  0.023218  0.002367  0.000059
 21  -3857.93244155  -0.0000000599  0.000176  0.020284  0.002123  0.000051
 22  -3857.93244164  -0.0000000898  0.000134  0.011697  0.001284  0.000030
 23  -3857.93244172  -0.0000000751  0.000014  0.007720  0.000834  0.000020
 24  -3857.93244172  -0.0000000031  0.000012  0.001519  0.000166  0.000004
 25  -3857.93244172  -0.0000000019  0.000005  0.000214  0.000027  0.000001
               *** Restarting incremental Fock matrix formation ***
 26  -3857.93244172  -0.0000000017  0.000005  0.001305  0.000146  0.000004
 27  -3857.93244173  -0.0000000020  0.000007  0.001323  0.000142  0.000003
 28  -3857.93244173  -0.0000000006  0.000003  0.000484  0.000052  0.000001
                  ***Gradient check signals convergence***
              ***Rediagonalizing the Fockian in SOSCF/NRSCF***

               *****************************************************
               *                     SUCCESS                       *
               *           SCF CONVERGED AFTER  29 CYCLES          *
               *****************************************************


----------------
TOTAL SCF ENERGY
----------------

Total Energy       :        -3857.93244173 Eh         -104979.67880 eV

Components:
Nuclear Repulsion  :            0.00000000 Eh               0.00000 eV
Electronic Energy  :        -3857.93244173 Eh         -104979.67880 eV
One Electron Energy:        -5307.03165341 Eh         -144411.67304 eV
Two Electron Energy:         1449.09921168 Eh           39431.99423 eV

Virial components:
Potential Energy   :        -7557.79431908 Eh         -205658.03887 eV
Kinetic Energy     :         3699.86187736 Eh          100678.36007 eV
Virial Ratio       :            2.04272337


DFT components:
N(Alpha)           :       22.999999999965 electrons
N(Beta)            :       18.000000000012 electrons
N(Total)           :       40.999999999977 electrons
E(X)               :     -115.715791495403 Eh       
E(C)               :       -2.020608052915 Eh       
E(XC)              :     -117.736399548317 Eh       
DFET-embed. en.    :        0.000000000000 Eh       

---------------
SCF CONVERGENCE
---------------

  Last Energy change         ...   -5.1386e-11  Tolerance :   1.0000e-09
  Last MAX-Density change    ...    3.5713e-06  Tolerance :   1.0000e-08
  Last RMS-Density change    ...    6.8473e-08  Tolerance :   1.0000e-09
  Last Orbital Gradient      ...    4.8010e-07  Tolerance :   2.0000e-06
  Last Orbital Rotation      ...    1.9977e-05  Tolerance :   2.0000e-06

             **** THE GBW FILE WAS UPDATED (Nb_sapporo-qzp-2012-diffuse_pbe.gbw) ****
             **** DENSITY Nb_sapporo-qzp-2012-diffuse_pbe.scfp WAS UPDATED ****
             **** ENERGY FILE WAS UPDATED (Nb_sapporo-qzp-2012-diffuse_pbe.en.tmp) ****
----------------------
UHF SPIN CONTAMINATION
----------------------

Warning: in a DFT calculation there is little theoretical justification to 
         calculate <S**2> as in Hartree-Fock theory. We will do it anyways
         but you should keep in mind that the values have only limited relevance

Expectation value of <S**2>     :     8.750946
Ideal value S*(S+1) for S=2.5   :     8.750000
Deviation                       :     0.000946

             **** THE GBW FILE WAS UPDATED (Nb_sapporo-qzp-2012-diffuse_pbe.gbw) ****
             **** DENSITY Nb_sapporo-qzp-2012-diffuse_pbe.scfp WAS UPDATED ****
----------------
ORBITAL ENERGIES
----------------
                 SPIN UP ORBITALS
  NO   OCC          E(Eh)            E(eV) 
   0   1.0000    -707.607224    -19254.9715 
   1   1.0000     -97.129404     -2643.0254 
   2   1.0000     -87.319201     -2376.0763 
   3   1.0000     -87.315441     -2375.9739 
   4   1.0000     -87.315440     -2375.9739 
   5   1.0000     -16.080075      -437.5611 
   6   1.0000     -12.807665      -348.5143 
   7   1.0000     -12.798105      -348.2542 
   8   1.0000     -12.798104      -348.2541 
   9   1.0000      -7.222497      -196.5341 
  10   1.0000      -7.220737      -196.4863 
  11   1.0000      -7.220736      -196.4862 
  12   1.0000      -7.214046      -196.3042 
  13   1.0000      -7.214046      -196.3042 
  14   1.0000      -2.150336       -58.5136 
  15   1.0000      -1.299771       -35.3686 
  16   1.0000      -1.287814       -35.0432 
  17   1.0000      -1.287811       -35.0431 
  18   1.0000      -0.163158        -4.4397 
  19   1.0000      -0.145055        -3.9471 
  20   1.0000      -0.145050        -3.9470 
  21   1.0000      -0.130022        -3.5381 
  22   1.0000      -0.130022        -3.5381 
  23   0.0000      -0.127064        -3.4576 
  24   0.0000      -0.051952        -1.4137 
  25   0.0000      -0.049051        -1.3347 
  26   0.0000      -0.049050        -1.3347 
  27   0.0000      -0.001472        -0.0401 
  28   0.0000       0.026512         0.7214 
  29   0.0000       0.026512         0.7214 
  30   0.0000       0.027555         0.7498 
  31   0.0000       0.027760         0.7554 
  32   0.0000       0.027760         0.7554 
  33   0.0000       0.079853         2.1729 
  34   0.0000       0.081970         2.2305 
  35   0.0000       0.081971         2.2305 
  36   0.0000       0.094956         2.5839 
  37   0.0000       0.131185         3.5697 
  38   0.0000       0.131185         3.5697 
  39   0.0000       0.135227         3.6797 
  40   0.0000       0.135495         3.6870 
  41   0.0000       0.135495         3.6870 
  42   0.0000       0.180868         4.9217 
  43   0.0000       0.180868         4.9217 
  44   0.0000       0.182202         4.9580 
  45   0.0000       0.182203         4.9580 
  46   0.0000       0.184467         5.0196 
  47   0.0000       0.185410         5.0453 
  48   0.0000       0.185410         5.0453 
  49   0.0000       0.416007        11.3201 
  50   0.0000       0.416007        11.3201 
  51   0.0000       0.416203        11.3255 
  52   0.0000       0.416203        11.3255 
  53   0.0000       0.417443        11.3592 
  54   0.0000       0.417444        11.3592 
  55   0.0000       0.419600        11.4179 
  56   0.0000       0.421191        11.4612 
  57   0.0000       0.421191        11.4612 
  58   0.0000       0.463398        12.6097 
  59   0.0000       0.545181        14.8351 
  60   0.0000       0.545184        14.8352 
  61   0.0000       0.555338        15.1115 
  62   0.0000       0.555338        15.1115 
  63   0.0000       0.556798        15.1512 
  64   0.0000       0.575798        15.6683 
  65   0.0000       0.579020        15.7559 
  66   0.0000       0.579024        15.7561 
  67   0.0000       0.583520        15.8784 
  68   0.0000       0.583520        15.8784 
  69   0.0000       0.591705        16.1011 
  70   0.0000       0.591710        16.1013 
  71   0.0000       0.596480        16.2311 
  72   0.0000       0.596481        16.2311 
  73   0.0000       0.602036        16.3822 
  74   0.0000       1.334742        36.3202 
  75   0.0000       1.334743        36.3202 
  76   0.0000       1.335249        36.3340 
  77   0.0000       1.335252        36.3341 
  78   0.0000       1.341623        36.5074 
  79   0.0000       1.341644        36.5080 
  80   0.0000       1.348711        36.7003 
  81   0.0000       1.348711        36.7003 
  82   0.0000       1.352804        36.8117 
  83   0.0000       1.559972        42.4490 
  84   0.0000       1.559973        42.4490 
  85   0.0000       1.561910        42.5017 
  86   0.0000       1.561910        42.5017 
  87   0.0000       1.561915        42.5019 
  88   0.0000       1.561922        42.5020 
  89   0.0000       1.568090        42.6699 
  90   0.0000       1.568121        42.6708 
  91   0.0000       1.573699        42.8225 
  92   0.0000       1.573699        42.8225 
  93   0.0000       1.574618        42.8475 
  94   0.0000       1.599199        43.5164 
  95   0.0000       1.599200        43.5164 
  96   0.0000       1.602294        43.6006 
  97   0.0000       1.602300        43.6008 
  98   0.0000       1.611290        43.8454 
  99   0.0000       1.614777        43.9403 
 100   0.0000       1.614777        43.9403 
 101   0.0000       1.920326        52.2547 
 102   0.0000       2.072763        56.4027 
 103   0.0000       2.072767        56.4029 
 104   0.0000       2.086892        56.7872 
 105   0.0000       2.086892        56.7872 
 106   0.0000       2.088566        56.8328 
 107   0.0000       2.519123        68.5488 
 108   0.0000       2.526923        68.7611 
 109   0.0000       2.526926        68.7611 
 110   0.0000       3.915587       106.5486 
 111   0.0000       3.915592       106.5487 
 112   0.0000       3.917573       106.6026 
 113   0.0000       3.917573       106.6026 
 114   0.0000       3.920403       106.6796 
 115   0.0000       3.920416       106.6799 
 116   0.0000       3.928661       106.9043 
 117   0.0000       3.933597       107.0386 
 118   0.0000       3.933598       107.0386 
 119   0.0000       4.855252       132.1181 
 120   0.0000       4.855254       132.1182 
 121   0.0000       4.857078       132.1678 
 122   0.0000       4.857103       132.1685 
 123   0.0000       4.859223       132.2262 
 124   0.0000       4.859223       132.2262 
 125   0.0000       4.865100       132.3861 
 126   0.0000       4.865145       132.3873 
 127   0.0000       4.871595       132.5628 
 128   0.0000       4.875247       132.6622 
 129   0.0000       4.875247       132.6622 
 130   0.0000       5.074548       138.0855 
 131   0.0000       5.074553       138.0856 
 132   0.0000       5.075389       138.1084 
 133   0.0000       5.075390       138.1084 
 134   0.0000       5.078496       138.1929 
 135   0.0000       5.087980       138.4510 
 136   0.0000       5.087980       138.4510 
 137   0.0000       6.396752       174.0645 
 138   0.0000       7.574537       206.1136 
 139   0.0000       7.574540       206.1137 
 140   0.0000       7.579438       206.2470 
 141   0.0000       7.586706       206.4448 
 142   0.0000       7.586706       206.4448 
 143   0.0000       8.591668       233.7912 
 144   0.0000       8.603621       234.1164 
 145   0.0000       8.603624       234.1165 
 146   0.0000      14.180365       385.8673 
 147   0.0000      32.963458       896.9813 
 148   0.0000      32.972395       897.2245 
 149   0.0000      32.972397       897.2245 

                 SPIN DOWN ORBITALS
  NO   OCC          E(Eh)            E(eV) 
   0   1.0000    -707.607199    -19254.9708 
   1   1.0000     -97.118275     -2642.7226 
   2   1.0000     -87.312492     -2375.8937 
   3   1.0000     -87.306804     -2375.7389 
   4   1.0000     -87.306803     -2375.7389 
   5   1.0000     -16.073377      -437.3788 
   6   1.0000     -12.801630      -348.3501 
   7   1.0000     -12.789971      -348.0328 
   8   1.0000     -12.789968      -348.0327 
   9   1.0000      -7.216401      -196.3683 
  10   1.0000      -7.208337      -196.1488 
  11   1.0000      -7.208336      -196.1488 
  12   1.0000      -7.202310      -195.9848 
  13   1.0000      -7.202310      -195.9848 
  14   1.0000      -2.080234       -56.6060 
  15   1.0000      -1.233152       -33.5558 
  16   1.0000      -1.200167       -32.6582 
  17   1.0000      -1.200161       -32.6580 
  18   0.0000      -0.071886        -1.9561 
  19   0.0000      -0.055663        -1.5147 
  20   0.0000      -0.035751        -0.9728 
  21   0.0000      -0.035749        -0.9728 
  22   0.0000      -0.025327        -0.6892 
  23   0.0000      -0.025327        -0.6892 
  24   0.0000       0.023061         0.6275 
  25   0.0000       0.025418         0.6917 
  26   0.0000       0.032016         0.8712 
  27   0.0000       0.032023         0.8714 
  28   0.0000       0.054214         1.4752 
  29   0.0000       0.055058         1.4982 
  30   0.0000       0.055059         1.4982 
  31   0.0000       0.055835         1.5193 
  32   0.0000       0.055836         1.5194 
  33   0.0000       0.141794         3.8584 
  34   0.0000       0.150180         4.0866 
  35   0.0000       0.150182         4.0867 
  36   0.0000       0.152370         4.1462 
  37   0.0000       0.199876         5.4389 
  38   0.0000       0.205865         5.6019 
  39   0.0000       0.205872         5.6021 
  40   0.0000       0.208989         5.6869 
  41   0.0000       0.208996         5.6871 
  42   0.0000       0.263267         7.1639 
  43   0.0000       0.264664         7.2019 
  44   0.0000       0.264672         7.2021 
  45   0.0000       0.268057         7.2942 
  46   0.0000       0.268076         7.2947 
  47   0.0000       0.269306         7.3282 
  48   0.0000       0.269312         7.3284 
  49   0.0000       0.504843        13.7375 
  50   0.0000       0.506130        13.7725 
  51   0.0000       0.506139        13.7727 
  52   0.0000       0.508536        13.8380 
  53   0.0000       0.508544        13.8382 
  54   0.0000       0.511350        13.9145 
  55   0.0000       0.511364        13.9149 
  56   0.0000       0.511995        13.9321 
  57   0.0000       0.512000        13.9322 
  58   0.0000       0.550999        14.9934 
  59   0.0000       0.624591        16.9960 
  60   0.0000       0.637683        17.3522 
  61   0.0000       0.637685        17.3523 
  62   0.0000       0.644231        17.5304 
  63   0.0000       0.644231        17.5304 
  64   0.0000       0.656416        17.8620 
  65   0.0000       0.674156        18.3447 
  66   0.0000       0.674159        18.3448 
  67   0.0000       0.681145        18.5349 
  68   0.0000       0.683018        18.5859 
  69   0.0000       0.683021        18.5860 
  70   0.0000       0.692151        18.8344 
  71   0.0000       0.692155        18.8345 
  72   0.0000       0.695499        18.9255 
  73   0.0000       0.695500        18.9255 
  74   0.0000       1.429793        38.9067 
  75   0.0000       1.432718        38.9862 
  76   0.0000       1.432721        38.9863 
  77   0.0000       1.439172        39.1619 
  78   0.0000       1.439173        39.1619 
  79   0.0000       1.446912        39.3725 
  80   0.0000       1.446915        39.3725 
  81   0.0000       1.448510        39.4160 
  82   0.0000       1.448511        39.4160 
  83   0.0000       1.656108        45.0650 
  84   0.0000       1.658353        45.1261 
  85   0.0000       1.658360        45.1263 
  86   0.0000       1.661940        45.2237 
  87   0.0000       1.661941        45.2237 
  88   0.0000       1.666554        45.3492 
  89   0.0000       1.666554        45.3492 
  90   0.0000       1.671163        45.4747 
  91   0.0000       1.671163        45.4747 
  92   0.0000       1.671762        45.4910 
  93   0.0000       1.671762        45.4910 
  94   0.0000       1.683918        45.8217 
  95   0.0000       1.693663        46.0869 
  96   0.0000       1.693665        46.0870 
  97   0.0000       1.714323        46.6491 
  98   0.0000       1.714324        46.6491 
  99   0.0000       1.718012        46.7495 
 100   0.0000       1.718013        46.7495 
 101   0.0000       2.007711        54.6326 
 102   0.0000       2.149649        58.4949 
 103   0.0000       2.169841        59.0444 
 104   0.0000       2.169842        59.0444 
 105   0.0000       2.179631        59.3108 
 106   0.0000       2.179631        59.3108 
 107   0.0000       2.599016        70.7228 
 108   0.0000       2.624723        71.4223 
 109   0.0000       2.624729        71.4225 
 110   0.0000       4.005591       108.9977 
 111   0.0000       4.011768       109.1657 
 112   0.0000       4.011770       109.1658 
 113   0.0000       4.027521       109.5944 
 114   0.0000       4.027521       109.5944 
 115   0.0000       4.043032       110.0165 
 116   0.0000       4.043032       110.0165 
 117   0.0000       4.043346       110.0250 
 118   0.0000       4.043346       110.0251 
 119   0.0000       4.960001       134.9685 
 120   0.0000       4.963637       135.0674 
 121   0.0000       4.963640       135.0675 
 122   0.0000       4.973888       135.3464 
 123   0.0000       4.973888       135.3464 
 124   0.0000       4.987079       135.7053 
 125   0.0000       4.987079       135.7053 
 126   0.0000       4.995103       135.9237 
 127   0.0000       4.995103       135.9237 
 128   0.0000       4.997003       135.9754 
 129   0.0000       4.997003       135.9754 
 130   0.0000       5.117585       139.2566 
 131   0.0000       5.125245       139.4650 
 132   0.0000       5.125247       139.4651 
 133   0.0000       5.142064       139.9227 
 134   0.0000       5.142064       139.9227 
 135   0.0000       5.146314       140.0383 
 136   0.0000       5.146314       140.0383 
 137   0.0000       6.488221       176.5535 
 138   0.0000       7.609168       207.0560 
 139   0.0000       7.628843       207.5914 
 140   0.0000       7.628844       207.5914 
 141   0.0000       7.638453       207.8529 
 142   0.0000       7.638453       207.8529 
 143   0.0000       8.638566       235.0673 
 144   0.0000       8.663775       235.7533 
 145   0.0000       8.663780       235.7534 
 146   0.0000      14.224156       387.0590 
 147   0.0000      32.981178       897.4635 
 148   0.0000      32.995811       897.8617 
 149   0.0000      32.995814       897.8618 

                    ********************************
                    * MULLIKEN POPULATION ANALYSIS *
                    ********************************

--------------------------------------------
MULLIKEN ATOMIC CHARGES AND SPIN POPULATIONS
--------------------------------------------
   0 Nb:    0.000000    5.000000
Sum of atomic charges         :    0.0000000
Sum of atomic spin populations:    5.0000000

-----------------------------------------------------
MULLIKEN REDUCED ORBITAL CHARGES AND SPIN POPULATIONS
-----------------------------------------------------
CHARGE
  0 Nbs       :     8.998868  s :     8.998868
      pz      :     5.999957  p :    17.999740
      px      :     5.999821
      py      :     5.999962
      dz2     :     2.801066  d :    14.000865
      dxz     :     2.896719
      dyz     :     2.999519
      dx2y2   :     2.314790
      dxy     :     2.988770
      f0      :     0.000021  f :     0.000243
      f+1     :     0.000051
      f-1     :     0.000002
      f+2     :     0.000038
      f-2     :     0.000004
      f+3     :     0.000096
      f-3     :     0.000032
      g0      :     0.000019  g :     0.000267
      g+1     :     0.000038
      g-1     :     0.000004
      g+2     :     0.000033
      g-2     :     0.000013
      g+3     :     0.000022
      g-3     :     0.000040
      g+4     :     0.000086
      g-4     :     0.000012
      h0      :     0.000001  h :     0.000017
      h+1     :     0.000002
      h-1     :     0.000000
      h+2     :     0.000002
      h-2     :     0.000000
      h+3     :     0.000002
      h-3     :     0.000000
      h+4     :     0.000002
      h-4     :     0.000001
      h+5     :     0.000004
      h-5     :     0.000003

SPIN
  0 Nbs       :     0.999110  s :     0.999110
      pz      :    -0.000003  p :     0.000142
      px      :     0.000154
      py      :    -0.000009
      dz2     :     0.801021  d :     4.000636
      dxz     :     0.896695
      dyz     :     0.999519
      dx2y2   :     0.314633
      dxy     :     0.988768
      f0      :    -0.000009  f :    -0.000143
      f+1     :    -0.000037
      f-1     :     0.000000
      f+2     :    -0.000015
      f-2     :     0.000001
      f+3     :    -0.000088
      f-3     :     0.000005
      g0      :     0.000018  g :     0.000254
      g+1     :     0.000036
      g-1     :     0.000004
      g+2     :     0.000031
      g-2     :     0.000013
      g+3     :     0.000020
      g-3     :     0.000040
      g+4     :     0.000081
      g-4     :     0.000012
      h0      :     0.000000  h :     0.000001
      h+1     :    -0.000000
      h-1     :    -0.000000
      h+2     :     0.000000
      h-2     :    -0.000000
      h+3     :     0.000000
      h-3     :    -0.000000
      h+4     :     0.000000
      h-4     :    -0.000000
      h+5     :     0.000001
      h-5     :    -0.000000


                     *******************************
                     * LOEWDIN POPULATION ANALYSIS *
                     *******************************

-------------------------------------------
LOEWDIN ATOMIC CHARGES AND SPIN POPULATIONS
-------------------------------------------
   0 Nb:    0.000000    5.000000

----------------------------------------------------
LOEWDIN REDUCED ORBITAL CHARGES AND SPIN POPULATIONS
----------------------------------------------------
CHARGE
  0 Nbs       :     8.998868  s :     8.998868
      pz      :     5.999957  p :    17.999740
      px      :     5.999821
      py      :     5.999962
      dz2     :     2.801066  d :    14.000865
      dxz     :     2.896719
      dyz     :     2.999519
      dx2y2   :     2.314790
      dxy     :     2.988770
      f0      :     0.000021  f :     0.000243
      f+1     :     0.000051
      f-1     :     0.000002
      f+2     :     0.000038
      f-2     :     0.000004
      f+3     :     0.000096
      f-3     :     0.000032
      g0      :     0.000019  g :     0.000267
      g+1     :     0.000038
      g-1     :     0.000004
      g+2     :     0.000033
      g-2     :     0.000013
      g+3     :     0.000022
      g-3     :     0.000040
      g+4     :     0.000086
      g-4     :     0.000012
      h0      :     0.000001  h :     0.000017
      h+1     :     0.000002
      h-1     :     0.000000
      h+2     :     0.000002
      h-2     :     0.000000
      h+3     :     0.000002
      h-3     :     0.000000
      h+4     :     0.000002
      h-4     :     0.000001
      h+5     :     0.000004
      h-5     :     0.000003

SPIN
  0 Nbs       :     0.999110  s :     0.999110
      pz      :    -0.000003  p :     0.000142
      px      :     0.000154
      py      :    -0.000009
      dz2     :     0.801021  d :     4.000636
      dxz     :     0.896695
      dyz     :     0.999519
      dx2y2   :     0.314633
      dxy     :     0.988768
      f0      :    -0.000009  f :    -0.000143
      f+1     :    -0.000037
      f-1     :     0.000000
      f+2     :    -0.000015
      f-2     :     0.000001
      f+3     :    -0.000088
      f-3     :     0.000005
      g0      :     0.000018  g :     0.000254
      g+1     :     0.000036
      g-1     :     0.000004
      g+2     :     0.000031
      g-2     :     0.000013
      g+3     :     0.000020
      g-3     :     0.000040
      g+4     :     0.000081
      g-4     :     0.000012
      h0      :     0.000000  h :     0.000001
      h+1     :    -0.000000
      h-1     :    -0.000000
      h+2     :     0.000000
      h-2     :    -0.000000
      h+3     :     0.000000
      h-3     :    -0.000000
      h+4     :     0.000000
      h-4     :    -0.000000
      h+5     :     0.000001
      h-5     :    -0.000000


                      *****************************
                      * MAYER POPULATION ANALYSIS *
                      *****************************

  NA   - Mulliken gross atomic population
  ZA   - Total nuclear charge
  QA   - Mulliken gross atomic charge
  VA   - Mayer's total valence
  BVA  - Mayer's bonded valence
  FA   - Mayer's free valence

  ATOM       NA         ZA         QA         VA         BVA        FA
  0 Nb    41.0000    41.0000     0.0000     5.0019     0.0000     5.0019

  Mayer bond orders larger than 0.100000


-------
TIMINGS
-------

Total SCF time: 0 days 0 hours 4 min 33 sec 

Total time                  ....     273.978 sec
Sum of individual times     ....     188.930 sec  ( 69.0%)

Fock matrix formation       ....     181.820 sec  ( 66.4%)
  XC integration            ....      38.381 sec  ( 21.1% of F)
    Basis function eval.    ....       0.112 sec  (  0.3% of XC)
    Density eval.           ....       0.209 sec  (  0.5% of XC)
    XC-Functional eval.     ....       0.080 sec  (  0.2% of XC)
    XC-Potential eval.      ....       0.243 sec  (  0.6% of XC)
Diagonalization             ....       0.699 sec  (  0.3%)
Density matrix formation    ....       0.020 sec  (  0.0%)
Population analysis         ....       0.092 sec  (  0.0%)
Initial guess               ....       4.065 sec  (  1.5%)
Orbital Transformation      ....       0.000 sec  (  0.0%)
Orbital Orthonormalization  ....       0.000 sec  (  0.0%)
DIIS solution               ....       0.728 sec  (  0.3%)
SOSCF solution              ....       0.333 sec  (  0.1%)
Grid generation             ....       1.174 sec  (  0.4%)

Maximum memory used throughout the entire SCF-calculation: 233.7 MB

-------------------------   --------------------
FINAL SINGLE POINT ENERGY     -3857.932441726120
-------------------------   --------------------


                            ***************************************
                            *     ORCA property calculations      *
                            ***************************************

                                    ---------------------
                                    Active property flags
                                    ---------------------
   (+) Dipole Moment


------------------------------------------------------------------------------
                       ORCA ELECTRIC PROPERTIES CALCULATION
------------------------------------------------------------------------------

Dipole Moment Calculation                       ... on
Quadrupole Moment Calculation                   ... off
Polarizability Calculation                      ... off
GBWName                                         ... Nb_sapporo-qzp-2012-diffuse_pbe.gbw
Electron density                                ... Nb_sapporo-qzp-2012-diffuse_pbe.scfp
The origin for moment calculation is the CENTER OF MASS  = ( 0.000000,  0.000000  0.000000)

-------------
DIPOLE MOMENT
-------------
                                X             Y             Z
Electronic contribution:      0.00000       0.00000       0.00000
Nuclear contribution   :      0.00000       0.00000       0.00000
                        -----------------------------------------
Total Dipole Moment    :      0.00000       0.00000       0.00000
                        -----------------------------------------
Magnitude (a.u.)       :      0.00000
Magnitude (Debye)      :      0.00000



--------------------
Rotational spectrum 
--------------------
 
Rotational constants in cm-1:     0.000000     0.000000     0.000000 
Rotational constants in MHz :     0.000000     0.000000     0.000000 

 Dipole components along the rotational axes: 
x,y,z [a.u.] :     0.000000     0.000000     0.000000 
x,y,z [Debye]:     0.000000     0.000000     0.000000 

 

Timings for individual modules:

Sum of individual times         ...      367.357 sec (=   6.123 min)
GTO integral calculation        ...       81.671 sec (=   1.361 min)  22.2 %
Relativistic integrals          ...        8.472 sec (=   0.141 min)   2.3 %
SCF iterations                  ...      277.214 sec (=   4.620 min)  75.5 %
                             ****ORCA TERMINATED NORMALLY****
TOTAL RUN TIME: 0 days 0 hours 6 minutes 16 seconds 14 msec
