
                                 *****************
                                 * O   R   C   A *
                                 *****************

                                            #,                                       
                                            ###                                      
                                            ####                                     
                                            #####                                    
                                            ######                                   
                                           ########,                                 
                                     ,,################,,,,,                         
                               ,,#################################,,                 
                          ,,##########################################,,             
                       ,#########################################, ''#####,          
                    ,#############################################,,   '####,        
                  ,##################################################,,,,####,       
                ,###########''''           ''''###############################       
              ,#####''   ,,,,##########,,,,          '''####'''          '####       
            ,##' ,,,,###########################,,,                        '##       
           ' ,,###''''                  '''############,,,                           
         ,,##''                                '''############,,,,        ,,,,,,###''
      ,#''                                            '''#######################'''  
     '                                                          ''''####''''         
             ,#######,   #######,   ,#######,      ##                                
            ,#'     '#,  ##    ##  ,#'     '#,    #''#        ######   ,####,        
            ##       ##  ##   ,#'  ##            #'  '#       #        #'  '#        
            ##       ##  #######   ##           ,######,      #####,   #    #        
            '#,     ,#'  ##    ##  '#,     ,#' ,#      #,         ##   #,  ,#        
             '#######'   ##     ##  '#######'  #'      '#     #####' # '####'        



                  #######################################################
                  #                        -***-                        #
                  #          Department of theory and spectroscopy      #
                  #    Directorship and core code : Frank Neese         #
                  #        Max Planck Institute fuer Kohlenforschung    #
                  #                Kaiser Wilhelm Platz 1               #
                  #                 D-45470 Muelheim/Ruhr               #
                  #                      Germany                        #
                  #                                                     #
                  #                  All rights reserved                #
                  #                        -***-                        #
                  #######################################################


                         Program Version 5.0.1 -  RELEASE  -


 With contributions from (in alphabetic order):
   Daniel Aravena         : Magnetic Suceptibility
   Michael Atanasov       : Ab Initio Ligand Field Theory (pilot matlab implementation)
   Alexander A. Auer      : GIAO ZORA, VPT2 properties, NMR spectrum
   Ute Becker             : Parallelization
   Giovanni Bistoni       : ED, misc. LED, open-shell LED, HFLD
   Martin Brehm           : Molecular dynamics
   Dmytro Bykov           : SCF Hessian
   Vijay G. Chilkuri      : MRCI spin determinant printing, contributions to CSF-ICE
   Dipayan Datta          : RHF DLPNO-CCSD density
   Achintya Kumar Dutta   : EOM-CC, STEOM-CC
   Dmitry Ganyushin       : Spin-Orbit,Spin-Spin,Magnetic field MRCI
   Miquel Garcia          : C-PCM and meta-GGA Hessian, CC/C-PCM, Gaussian charge scheme
   Yang Guo               : DLPNO-NEVPT2, F12-NEVPT2, CIM, IAO-localization
   Andreas Hansen         : Spin unrestricted coupled pair/coupled cluster methods
   Benjamin Helmich-Paris : MC-RPA, TRAH-SCF, COSX integrals
   Lee Huntington         : MR-EOM, pCC
   Robert Izsak           : Overlap fitted RIJCOSX, COSX-SCS-MP3, EOM
   Marcus Kettner         : VPT2
   Christian Kollmar      : KDIIS, OOCD, Brueckner-CCSD(T), CCSD density, CASPT2, CASPT2-K
   Simone Kossmann        : Meta GGA functionals, TD-DFT gradient, OOMP2, MP2 Hessian
   Martin Krupicka        : Initial AUTO-CI
   Lucas Lang             : DCDCAS
   Marvin Lechner         : AUTO-CI (C++ implementation), FIC-MRCC
   Dagmar Lenk            : GEPOL surface, SMD
   Dimitrios Liakos       : Extrapolation schemes; Compound Job, initial MDCI parallelization
   Dimitrios Manganas     : Further ROCIS development; embedding schemes
   Dimitrios Pantazis     : SARC Basis sets
   Anastasios Papadopoulos: AUTO-CI, single reference methods and gradients
   Taras Petrenko         : DFT Hessian,TD-DFT gradient, ASA, ECA, R-Raman, ABS, FL, XAS/XES, NRVS
   Peter Pinski           : DLPNO-MP2, DLPNO-MP2 Gradient
   Christoph Reimann      : Effective Core Potentials
   Marius Retegan         : Local ZFS, SOC
   Christoph Riplinger    : Optimizer, TS searches, QM/MM, DLPNO-CCSD(T), (RO)-DLPNO pert. Triples
   Tobias Risthaus        : Range-separated hybrids, TD-DFT gradient, RPA, STAB
   Michael Roemelt        : Original ROCIS implementation
   Masaaki Saitow         : Open-shell DLPNO-CCSD energy and density
   Barbara Sandhoefer     : DKH picture change effects
   Avijit Sen             : IP-ROCIS
   Kantharuban Sivalingam : CASSCF convergence, NEVPT2, FIC-MRCI
   Bernardo de Souza      : ESD, SOC TD-DFT
   Georgi Stoychev        : AutoAux, RI-MP2 NMR, DLPNO-MP2 response
   Willem Van den Heuvel  : Paramagnetic NMR
   Boris Wezisla          : Elementary symmetry handling
   Frank Wennmohs         : Technical directorship


 We gratefully acknowledge several colleagues who have allowed us to
 interface, adapt or use parts of their codes:
   Stefan Grimme, W. Hujo, H. Kruse, P. Pracht,  : VdW corrections, initial TS optimization,
                  C. Bannwarth, S. Ehlert          DFT functionals, gCP, sTDA/sTD-DF
   Ed Valeev, F. Pavosevic, A. Kumar             : LibInt (2-el integral package), F12 methods
   Garnet Chan, S. Sharma, J. Yang, R. Olivares  : DMRG
   Ulf Ekstrom                                   : XCFun DFT Library
   Mihaly Kallay                                 : mrcc  (arbitrary order and MRCC methods)
   Jiri Pittner, Ondrej Demel                    : Mk-CCSD
   Frank Weinhold                                : gennbo (NPA and NBO analysis)
   Christopher J. Cramer and Donald G. Truhlar   : smd solvation model
   Lars Goerigk                                  : TD-DFT with DH, B97 family of functionals
   V. Asgeirsson, H. Jonsson                     : NEB implementation
   FAccTs GmbH                                   : IRC, NEB, NEB-TS, DLPNO-Multilevel, CI-OPT
                                                   MM, QMMM, 2- and 3-layer-ONIOM, Crystal-QMMM,
                                                   LR-CPCM, SF, NACMEs, symmetry and pop. for TD-DFT,
                                                   nearIR, NL-DFT gradient (VV10), updates on ESD,
                                                   ML-optimized integration grids
   S Lehtola, MJT Oliveira, MAL Marques          : LibXC Library
   Liviu Ungur et al                             : ANISO software


 Your calculation uses the libint2 library for the computation of 2-el integrals
 For citations please refer to: http://libint.valeyev.net

 Your ORCA version has been built with support for libXC version: 5.1.0
 For citations please refer to: https://tddft.org/programs/libxc/

 This ORCA versions uses:
   CBLAS   interface :  Fast vector & matrix operations
   LAPACKE interface :  Fast linear algebra routines
   SCALAPACK package :  Parallel linear algebra routines
   Shared memory     :  Shared parallel matrices
   BLAS/LAPACK       :  OpenBLAS 0.3.15  USE64BITINT DYNAMIC_ARCH NO_AFFINITY Haswell SINGLE_THREADED
        Core in use  :  Haswell
   Copyright (c) 2011-2014, The OpenBLAS Project


SCAN-COORDS

Reading of a custom basis requested
Basis file         : Nb_ugbs.basis
READING GTO-BASIS: NIOBIUM
Basis successfully read

================================================================================

----- Orbital basis set information -----
================================================================================
                                        WARNINGS
                       Please study these warnings very carefully!
================================================================================


INFO   : the flag for use of the SHARK integral package has been found!

================================================================================
                                       INPUT FILE
================================================================================
NAME = Nb_ugbs_pbe.inp
|  1> !uks pbe nori verytightscf soscf notrah
|  2> 
|  3> %pal
|  4>   nprocs 32
|  5> end
|  6> %coords
|  7>   charge 0
|  8>   mult 6
|  9>   units bohrs
| 10>   coords
| 11>     Nb 0.0 0.0 0.0
| 12>   end
| 13> end
| 14> %basis
| 15>   gtoname "Nb_ugbs.basis"
| 16>   delECP Nb
| 17> end
| 18> %rel
| 19>   method zora
| 20>   modelpot 1, 0, 0, 0
| 21>   c 137.035999084
| 22> endd                         ****END OF INPUT****
================================================================================

                       ****************************
                       * Single Point Calculation *
                       ****************************

---------------------------------
CARTESIAN COORDINATES (ANGSTROEM)
---------------------------------
  Nb     0.000000    0.000000    0.000000

----------------------------
CARTESIAN COORDINATES (A.U.)
----------------------------
  NO LB      ZA    FRAG     MASS         X           Y           Z
   0 Nb   41.0000    0    92.910    0.000000    0.000000    0.000000

--------------------------------
INTERNAL COORDINATES (ANGSTROEM)
--------------------------------
 Nb     0   0   0     0.000000000000     0.00000000     0.00000000

---------------------------
INTERNAL COORDINATES (A.U.)
---------------------------
 Nb     0   0   0     0.000000000000     0.00000000     0.00000000

---------------------
BASIS SET INFORMATION
---------------------
There are 1 groups of distinct atoms

 Group   1 Type Nb  : 31s23p18d contracted to 31s23p18d pattern {1111111111111111111111111111111/11111111111111111111111/111111111111111111}

Atom   0Nb   basis set group =>   1


           ************************************************************
           *        Program running with 32 parallel MPI-processes    *
           *              working on a common directory               *
           ************************************************************
------------------------------------------------------------------------------
                           ORCA GTO INTEGRAL CALCULATION
------------------------------------------------------------------------------
------------------------------------------------------------------------------
                   ___                                                        
                  /   \      - P O W E R E D   B Y -                         
                 /     \                                                     
                 |  |  |   _    _      __       _____    __    __             
                 |  |  |  | |  | |    /  \     |  _  \  |  |  /  |          
                  \  \/   | |  | |   /    \    | | | |  |  | /  /          
                 / \  \   | |__| |  /  /\  \   | |_| |  |  |/  /          
                |  |  |   |  __  | /  /__\  \  |    /   |      \           
                |  |  |   | |  | | |   __   |  |    \   |  |\   \          
                \     /   | |  | | |  |  |  |  | |\  \  |  | \   \       
                 \___/    |_|  |_| |__|  |__|  |_| \__\ |__|  \__/        
                                                                              
                      - O R C A' S   B I G   F R I E N D -                    
                                      &                                       
                       - I N T E G R A L  F E E D E R -                       
                                                                              
 v1 FN, 2020, v2 2021                                                         
------------------------------------------------------------------------------


Reading SHARK input file Nb_ugbs_pbe.SHARKINP.tmp ... ok
----------------------
SHARK INTEGRAL PACKAGE
----------------------

Number of atoms                             ...      1
Number of basis functions                   ...    190
Number of shells                            ...     72
Maximum angular momentum                    ...      2
Integral batch strategy                     ... SHARK/LIBINT Hybrid
RI-J (if used) integral strategy            ... SPLIT-RIJ (Revised 2003 algorithm where possible)
Printlevel                                  ...      1
Contraction scheme used                     ... SEGMENTED contraction
Coulomb Range Separation                    ... NOT USED
Exchange Range Separation                   ... NOT USED
Finite Nucleus Model                        ... NOT USED
Auxiliary Coulomb fitting basis             ... NOT available
Auxiliary J/K fitting basis                 ... NOT available
Auxiliary Correlation fitting basis         ... NOT available
Auxiliary 'external' fitting basis          ... NOT available
Integral threshold                          ...     1.000000e-12
Primitive cut-off                           ...     1.000000e-14
Primitive pair pre-selection threshold      ...     1.000000e-14

Calculating pre-screening integrals         ... done (  0.2 sec) Dimension = 72
Organizing shell pair data                  ... done (  1.2 sec)
Shell pair information
Total number of shell pairs                 ...      2628
Shell pairs after pre-screening             ...      2628
Total number of primitive shell pairs       ...      2628
Primitive shell pairs kept                  ...      2628
          la=0 lb=0:    496 shell pairs
          la=1 lb=0:    713 shell pairs
          la=1 lb=1:    276 shell pairs
          la=2 lb=0:    558 shell pairs
          la=2 lb=1:    414 shell pairs
          la=2 lb=2:    171 shell pairs

Calculating one electron integrals          ... done (  0.4 sec)
Calculating Nuclear repulsion               ... done (  0.0 sec) ENN=      0.000000000000 Eh

SHARK setup successfully completed in   2.2 seconds

Maximum memory used throughout the entire GTOINT-calculation: 6.0 MB


           ************************************************************
           *        Program running with 32 parallel MPI-processes    *
           *              working on a common directory               *
           ************************************************************
------------------------------------------------------------------------------
                          ORCA RELATIVISTIC HAMILTONIAN
------------------------------------------------------------------------------

Relativistic Method            ... ZORA(MP)
Treatment of potential         ... Van Wuellen
Nucleus model                  ... Point Nucleus
Speed of light used            ... 137.03599908400000


            *************************************************
            *         ZERO ORDER REGULAR APPROXIMATION      *
            *                     ZORA(MP)                  *
            *            Programmed by FN according to      *
            *                   C. van Wuellen              *
            *       J. Chem. Phys. (1998) vol 109, 392-399  *
            *************************************************

Terms included in model potential: +V(e,N)
Basis function cutoff value   ... 1.000000e-12
Loading the fitted atomic densities  (DKH4)  ... done
Calculating the cutoffs                      ... done
Number of fit functions                      ... 28
Setting up the integration grid ... done

Maximum memory used throughout the entire REL-calculation: 10.5 MB


           ************************************************************
           *        Program running with 32 parallel MPI-processes    *
           *              working on a common directory               *
           ************************************************************
-------------------------------------------------------------------------------
                                 ORCA SCF
-------------------------------------------------------------------------------

------------
SCF SETTINGS
------------
Hamiltonian:
 Density Functional     Method          .... DFT(GTOs)
 Exchange Functional    Exchange        .... PBE
   PBE kappa parameter   XKappa         ....  0.804000
   PBE mue parameter    XMuePBE         ....  0.219520
 Correlation Functional Correlation     .... PBE
   PBE beta parameter  CBetaPBE         ....  0.066725
 LDA part of GGA corr.  LDAOpt          .... PW91-LDA
 Gradients option       PostSCFGGA      .... off
   Density functional embedding theory  .... OFF
   NL short-range parameter             ....  6.400000

Relativistic Settings:
 Scalar relativistic method             .... ZORA
 Speed of light used       Velit        ....       137.035999
Orbital energies will be scaled


General Settings:
 Integral files         IntName         .... Nb_ugbs_pbe
 Hartree-Fock type      HFTyp           .... UHF
 Total Charge           Charge          ....    0
 Multiplicity           Mult            ....    6
 Number of Electrons    NEL             ....   41
 Basis Dimension        Dim             ....  190
 Nuclear Repulsion      ENuc            ....      0.0000000000 Eh

Convergence Acceleration:
 DIIS                   CNVDIIS         .... on
   Start iteration      DIISMaxIt       ....    12
   Startup error        DIISStart       ....  0.200000
   # of expansion vecs  DIISMaxEq       ....     5
   Bias factor          DIISBfac        ....   1.050
   Max. coefficient     DIISMaxC        ....  10.000
 Trust-Rad. Augm. Hess. CNVTRAH         .... off
 SOSCF                  CNVSOSCF        .... on
   Start iteration      SOSCFMaxIt      ....   150
   Startup grad/error   SOSCFStart      ....  0.003300
 Level Shifting         CNVShift        .... on
   Level shift para.    LevelShift      ....    0.2500
   Turn off err/grad.   ShiftErr        ....    0.0010
 Zerner damping         CNVZerner       .... off
 Static damping         CNVDamp         .... on
   Fraction old density DampFac         ....    0.7000
   Max. Damping (<1)    DampMax         ....    0.9800
   Min. Damping (>=0)   DampMin         ....    0.0000
   Turn off err/grad.   DampErr         ....    0.1000
 Fernandez-Rico         CNVRico         .... off

SCF Procedure:
 Maximum # iterations   MaxIter         ....   125
 SCF integral mode      SCFMode         .... Direct
   Integral package                     .... SHARK and LIBINT hybrid scheme
 Reset frequency        DirectResetFreq ....    20
 Integral Threshold     Thresh          ....  1.000e-12 Eh
 Primitive CutOff       TCut            ....  1.000e-14 Eh

Convergence Tolerance:
 Convergence Check Mode ConvCheckMode   .... Total+1el-Energy
 Convergence forced     ConvForced      .... 0
 Energy Change          TolE            ....  1.000e-09 Eh
 1-El. energy change                    ....  1.000e-06 Eh
 Orbital Gradient       TolG            ....  2.000e-06
 Orbital Rotation angle TolX            ....  2.000e-06
 DIIS Error             TolErr          ....  1.000e-08


Diagonalization of the overlap matrix:
Smallest eigenvalue                        ... 6.074e-05
Time for diagonalization                   ...    0.138 sec
Threshold for overlap eigenvalues          ... 1.000e-08
Number of eigenvalues below threshold      ... 0
Time for construction of square roots      ...    0.135 sec
Total time needed                          ...    0.275 sec

Time for model grid setup =    0.301 sec

------------------------------
INITIAL GUESS: MODEL POTENTIAL
------------------------------
Loading ZORA relativistic densities                ... done
Calculating cut-offs                               ... done
Initializing the effective Hamiltonian             ... done
Setting up the integral package (SHARK)            ... done
Starting the Coulomb interaction                   ... done (   0.3 sec)
Reading the grid                                   ... done
Mapping shells                                     ... done
Starting the XC term evaluation                    ... done (   0.0 sec)
  promolecular density results
     # of electrons  =     41.000391489
     EX              =   -119.354590319
     EC              =     -2.038692211
     EX+EC           =   -121.393282530
Transforming the Hamiltonian                       ... done (   0.0 sec)
Diagonalizing the Hamiltonian                      ... done (   0.0 sec)
Back transforming the eigenvectors                 ... done (   0.0 sec)
Now organizing SCF variables                       ... done
                      ------------------
                      INITIAL GUESS DONE (   0.7 sec)
                      ------------------
-------------------
DFT GRID GENERATION
-------------------

General Integration Accuracy     IntAcc      ... 4.388
Radial Grid Type                 RadialGrid  ... OptM3 with GC (2021)
Angular Grid (max. ang.)         AngularGrid ... 4 (Lebedev-302)
Angular grid pruning method      GridPruning ... 4 (adaptive)
Weight generation scheme         WeightScheme... Becke
Basis function cutoff            BFCut       ... 1.0000e-12
Integration weight cutoff        WCut        ... 1.0000e-14
Angular grids for H and He will be reduced by one unit
Partially contracted basis set               ... off
Rotationally invariant grid construction     ... off

Total number of grid points                  ...    27544
Total number of batches                      ...      431
Average number of points per batch           ...       63
Average number of grid points per atom       ...    27544
Time for grid setup =    0.667 sec

--------------
SCF ITERATIONS
--------------
ITER       Energy         Delta-E        Max-DP      RMS-DP      [F,P]     Damp
               ***  Starting incremental Fock matrix formation  ***
  0  -3869.7187143986   0.000000000000 0.01979524  0.00022277  1.3867320 0.7000
  1  -3869.7274552102  -0.008740811636 0.02059601  0.00019983  0.9567418 0.7000
  2  -3869.7318074096  -0.004352199409 0.01510552  0.00014454  0.6607927 0.7000
  3  -3869.7343011604  -0.002493750751 0.00960286  0.00009728  0.4568885 0.7000
                      *** Initiating the SOSCF procedure ***
                      *** Re-Reading the Fockian *** 
                      *** Removing any level shift *** 
ITER      Energy       Delta-E        Grad      Rot      Max-DP    RMS-DP
  4  -3869.73600279  -0.0017016287  0.002582  0.002582  0.019507  0.000228
               *** Restarting incremental Fock matrix formation ***
  5  -3869.73999121  -0.0039884205  0.002892  0.018833  0.029509  0.000171
  6  -3869.74005227  -0.0000610630  0.001551  0.019565  0.005682  0.000054
  7  -3869.74011531  -0.0000630334  0.001269  0.032536  0.006802  0.000057
  8  -3869.74016876  -0.0000534533  0.000657  0.085671  0.005715  0.000110
  9  -3869.74023646  -0.0000677058  0.000632  0.022825  0.001127  0.000033
 10  -3869.74025262  -0.0000161545  0.000267  0.007489  0.001244  0.000018
 11  -3869.74025609  -0.0000034689  0.000148  0.000855  0.000565  0.000004
 12  -3869.74025620  -0.0000001071  0.000050  0.000108  0.000107  0.000001
 13  -3869.74025620  -0.0000000078  0.000003  0.000064  0.000010  0.000000
 14  -3869.74025620  -0.0000000005  0.000003  0.000221  0.000015  0.000000
 15  -3869.74025620  -0.0000000011  0.000007  0.000726  0.000049  0.000001
 16  -3869.74025621  -0.0000000027  0.000016  0.002088  0.000138  0.000003
 17  -3869.74025621  -0.0000000073  0.000030  0.005847  0.000384  0.000007
 18  -3869.74025623  -0.0000000189  0.000054  0.015506  0.001018  0.000020
 19  -3869.74025628  -0.0000000471  0.000091  0.032002  0.002111  0.000041
 20  -3869.74025636  -0.0000000828  0.000133  0.023925  0.001572  0.000030
 21  -3869.74025646  -0.0000000958  0.000122  0.023832  0.001538  0.000030
 22  -3869.74025660  -0.0000001428  0.000033  0.001580  0.000108  0.000002
 23  -3869.74025661  -0.0000000116  0.000011  0.000261  0.000014  0.000000
 24  -3869.74025661  -0.0000000010  0.000003  0.001214  0.000077  0.000002
               *** Restarting incremental Fock matrix formation ***
 25  -3869.74025662  -0.0000000004  0.000003  0.000168  0.000011  0.000000
 26  -3869.74025662  -0.0000000003  0.000003  0.000701  0.000051  0.000001
 27  -3869.74025662  -0.0000000003  0.000001  0.000608  0.000040  0.000001
                  ***Gradient check signals convergence***
              ***Rediagonalizing the Fockian in SOSCF/NRSCF***

               *****************************************************
               *                     SUCCESS                       *
               *           SCF CONVERGED AFTER  28 CYCLES          *
               *****************************************************


----------------
TOTAL SCF ENERGY
----------------

Total Energy       :        -3869.74025662 Eh         -105300.98578 eV

Components:
Nuclear Repulsion  :            0.00000000 Eh               0.00000 eV
Electronic Energy  :        -3869.74025662 Eh         -105300.98578 eV
One Electron Energy:        -5326.40720040 Eh         -144938.90847 eV
Two Electron Energy:         1456.66694378 Eh           39637.92269 eV

Virial components:
Potential Energy   :        -7857.93656526 Eh         -213825.32461 eV
Kinetic Energy     :         3988.19630865 Eh          108524.33883 eV
Virial Ratio       :            1.97029834


DFT components:
N(Alpha)           :       23.000000000032 electrons
N(Beta)            :       18.000000000089 electrons
N(Total)           :       41.000000000122 electrons
E(X)               :     -117.760079687195 Eh       
E(C)               :       -2.012825302014 Eh       
E(XC)              :     -119.772904989209 Eh       
DFET-embed. en.    :        0.000000000000 Eh       

---------------
SCF CONVERGENCE
---------------

  Last Energy change         ...   -4.0927e-11  Tolerance :   1.0000e-09
  Last MAX-Density change    ...    1.1594e-05  Tolerance :   1.0000e-08
  Last RMS-Density change    ...    2.3163e-07  Tolerance :   1.0000e-09
  Last Orbital Gradient      ...    3.8927e-07  Tolerance :   2.0000e-06
  Last Orbital Rotation      ...    1.8301e-04  Tolerance :   2.0000e-06

             **** THE GBW FILE WAS UPDATED (Nb_ugbs_pbe.gbw) ****
             **** DENSITY Nb_ugbs_pbe.scfp WAS UPDATED ****
             **** ENERGY FILE WAS UPDATED (Nb_ugbs_pbe.en.tmp) ****
----------------------
UHF SPIN CONTAMINATION
----------------------

Warning: in a DFT calculation there is little theoretical justification to 
         calculate <S**2> as in Hartree-Fock theory. We will do it anyways
         but you should keep in mind that the values have only limited relevance

Expectation value of <S**2>     :     8.750674
Ideal value S*(S+1) for S=2.5   :     8.750000
Deviation                       :     0.000674

             **** THE GBW FILE WAS UPDATED (Nb_ugbs_pbe.gbw) ****
             **** DENSITY Nb_ugbs_pbe.scfp WAS UPDATED ****
----------------
ORBITAL ENERGIES
----------------
                 SPIN UP ORBITALS
  NO   OCC          E(Eh)            E(eV) 
   0   1.0000    -709.708573    -19312.1521 
   1   1.0000     -97.490276     -2652.8453 
   2   1.0000     -86.955728     -2366.1857 
   3   1.0000     -86.951795     -2366.0786 
   4   1.0000     -86.951794     -2366.0786 
   5   1.0000     -16.198299      -440.7781 
   6   1.0000     -12.786707      -347.9440 
   7   1.0000     -12.775617      -347.6422 
   8   1.0000     -12.775615      -347.6421 
   9   1.0000      -7.210344      -196.2034 
  10   1.0000      -7.208234      -196.1460 
  11   1.0000      -7.208232      -196.1460 
  12   1.0000      -7.200543      -195.9367 
  13   1.0000      -7.200543      -195.9367 
  14   1.0000      -2.167285       -58.9748 
  15   1.0000      -1.298653       -35.3382 
  16   1.0000      -1.283300       -34.9204 
  17   1.0000      -1.283295       -34.9202 
  18   1.0000      -0.164847        -4.4857 
  19   1.0000      -0.144118        -3.9216 
  20   1.0000      -0.144111        -3.9215 
  21   1.0000      -0.128134        -3.4867 
  22   1.0000      -0.128134        -3.4867 
  23   0.0000      -0.128529        -3.4974 
  24   0.0000      -0.037596        -1.0230 
  25   0.0000      -0.033218        -0.9039 
  26   0.0000      -0.033216        -0.9039 
  27   0.0000       0.005510         0.1499 
  28   0.0000       0.052099         1.4177 
  29   0.0000       0.052100         1.4177 
  30   0.0000       0.053895         1.4666 
  31   0.0000       0.054692         1.4882 
  32   0.0000       0.054692         1.4882 
  33   0.0000       0.137426         3.7396 
  34   0.0000       0.231651         6.3036 
  35   0.0000       0.231653         6.3036 
  36   0.0000       0.235983         6.4214 
  37   0.0000       0.237110         6.4521 
  38   0.0000       0.237110         6.4521 
  39   0.0000       0.291145         7.9225 
  40   0.0000       0.295429         8.0390 
  41   0.0000       0.295431         8.0391 
  42   0.0000       0.481371        13.0988 
  43   0.0000       0.635222        17.2853 
  44   0.0000       0.635224        17.2853 
  45   0.0000       0.642787        17.4911 
  46   0.0000       0.643738        17.5170 
  47   0.0000       0.643738        17.5170 
  48   0.0000       1.132493        30.8167 
  49   0.0000       1.138676        30.9849 
  50   0.0000       1.138678        30.9850 
  51   0.0000       1.373001        37.3613 
  52   0.0000       1.540190        41.9107 
  53   0.0000       1.540195        41.9108 
  54   0.0000       1.552351        42.2416 
  55   0.0000       1.552351        42.2416 
  56   0.0000       1.553210        42.2650 
  57   0.0000       3.229724        87.8853 
  58   0.0000       3.239451        88.1499 
  59   0.0000       3.239455        88.1501 
  60   0.0000       3.576242        97.3145 
  61   0.0000       3.576250        97.3147 
  62   0.0000       3.589672        97.6799 
  63   0.0000       3.591133        97.7197 
  64   0.0000       3.591133        97.7197 
  65   0.0000       3.716605       101.1340 
  66   0.0000       8.217157       223.6002 
  67   0.0000       8.217163       223.6004 
  68   0.0000       8.225067       223.8154 
  69   0.0000       8.232422       224.0156 
  70   0.0000       8.232422       224.0156 
  71   0.0000       8.534907       232.2466 
  72   0.0000       8.548993       232.6299 
  73   0.0000       8.548998       232.6301 
  74   0.0000      10.010182       272.3909 
  75   0.0000      18.842059       512.7185 
  76   0.0000      18.842063       512.7186 
  77   0.0000      18.844176       512.7761 
  78   0.0000      18.854988       513.0703 
  79   0.0000      18.854988       513.0703 
  80   0.0000      22.124873       602.0484 
  81   0.0000      22.138834       602.4283 
  82   0.0000      22.138838       602.4284 
  83   0.0000      27.146565       738.6956 
  84   0.0000      42.964015      1169.1103 
  85   0.0000      42.965818      1169.1593 
  86   0.0000      42.965820      1169.1594 
  87   0.0000      42.975567      1169.4246 
  88   0.0000      42.975567      1169.4246 
  89   0.0000      56.362828      1533.7105 
  90   0.0000      56.374330      1534.0235 
  91   0.0000      56.374333      1534.0236 
  92   0.0000      72.941731      1984.8454 
  93   0.0000      96.570726      2627.8231 
  94   0.0000      96.571963      2627.8567 
  95   0.0000      96.571965      2627.8568 
  96   0.0000      96.579181      2628.0531 
  97   0.0000      96.579181      2628.0531 
  98   0.0000     138.986635      3782.0186 
  99   0.0000     138.994289      3782.2269 
 100   0.0000     138.994291      3782.2270 
 101   0.0000     190.216121      5176.0438 
 102   0.0000     213.610052      5812.6250 
 103   0.0000     213.610053      5812.6251 
 104   0.0000     213.611083      5812.6531 
 105   0.0000     213.615779      5812.7809 
 106   0.0000     213.615779      5812.7809 
 107   0.0000     328.497902      8938.8823 
 108   0.0000     328.502980      8939.0205 
 109   0.0000     328.502981      8939.0206 
 110   0.0000     463.849227     12621.9792 
 111   0.0000     463.849228     12621.9792 
 112   0.0000     463.850365     12622.0101 
 113   0.0000     463.853776     12622.1029 
 114   0.0000     463.853776     12622.1029 
 115   0.0000     474.154347     12902.3957 
 116   0.0000     743.039253     20219.1260 
 117   0.0000     743.043110     20219.2309 
 118   0.0000     743.043111     20219.2310 
 119   0.0000     988.440927     26896.8450 
 120   0.0000     988.440928     26896.8451 
 121   0.0000     988.441497     26896.8605 
 122   0.0000     988.444240     26896.9352 
 123   0.0000     988.444240     26896.9352 
 124   0.0000    1122.098063     30533.8406 
 125   0.0000    1617.606228     44017.3033 
 126   0.0000    1617.609009     44017.3789 
 127   0.0000    1617.609009     44017.3789 
 128   0.0000    2071.981664     56381.4875 
 129   0.0000    2071.981665     56381.4875 
 130   0.0000    2071.981687     56381.4881 
 131   0.0000    2071.983854     56381.5470 
 132   0.0000    2071.983854     56381.5470 
 133   0.0000    2524.625518     68698.5529 
 134   0.0000    3413.969774     92898.8404 
 135   0.0000    3413.971619     92898.8906 
 136   0.0000    3413.971619     92898.8906 
 137   0.0000    4288.720766    116702.0251 
 138   0.0000    4288.720899    116702.0287 
 139   0.0000    4288.720899    116702.0287 
 140   0.0000    4288.722231    116702.0649 
 141   0.0000    4288.722231    116702.0649 
 142   0.0000    5440.232218    148036.2447 
 143   0.0000    7028.966449    191267.9009 
 144   0.0000    7028.967580    191267.9317 
 145   0.0000    7028.967580    191267.9317 
 146   0.0000    8899.592327    242170.2189 
 147   0.0000    8899.592462    242170.2226 
 148   0.0000    8899.592462    242170.2226 
 149   0.0000    8899.593199    242170.2427 
 150   0.0000    8899.593199    242170.2427 
 151   0.0000   11326.839395    308218.9695 
 152   0.0000   14182.338440    385921.0488 
 153   0.0000   14182.339100    385921.0668 
 154   0.0000   14182.339100    385921.0668 
 155   0.0000   18708.845694    509093.5731 
 156   0.0000   18708.845773    509093.5753 
 157   0.0000   18708.845774    509093.5753 
 158   0.0000   18708.846128    509093.5850 
 159   0.0000   18708.846128    509093.5850 
 160   0.0000   22950.393706    624511.9623 
 161   0.0000   28144.796130    765858.8382 
 162   0.0000   28144.796502    765858.8483 
 163   0.0000   28144.796502    765858.8483 
 164   0.0000   45459.744691   1237022.5421 
 165   0.0000   54989.991718   1496353.7478 
 166   0.0000   54989.991924   1496353.7534 
 167   0.0000   54989.991924   1496353.7534 
 168   0.0000   88235.293478   2401004.4002 
 169   0.0000   106209.961488   2890119.9829 
 170   0.0000   106209.961600   2890119.9860 
 171   0.0000   106209.961600   2890119.9860 
 172   0.0000   167866.032566   4567866.9720 
 173   0.0000   201785.416909   5490860.3440 
 174   0.0000   201785.416969   5490860.3457 
 175   0.0000   201785.416969   5490860.3457 
 176   0.0000   312839.055258   8512783.4751 
 177   0.0000   386623.532092   10520561.1632 
 178   0.0000   386623.532122   10520561.1640 
 179   0.0000   386623.532122   10520561.1640 
 180   0.0000   569758.074208   15503905.4025 
 181   0.0000   712158.375289   19378814.5915 
 182   0.0000   712158.375304   19378814.5919 
 183   0.0000   712158.375304   19378814.5919 
 184   0.0000   1013431.937212   27576884.9933 
 185   0.0000   1750709.669077   47639232.0274 
 186   0.0000   2961002.964770   80572986.9229 
 187   0.0000   4778699.092778   130035013.1668 
 188   0.0000   8069880.306400   219592607.0096 
 189   0.0000   12941294.497881   352150526.2741 

                 SPIN DOWN ORBITALS
  NO   OCC          E(Eh)            E(eV) 
   0   1.0000    -709.708522    -19312.1507 
   1   1.0000     -97.478705     -2652.5304 
   2   1.0000     -86.948522     -2365.9896 
   3   1.0000     -86.942554     -2365.8272 
   4   1.0000     -86.942552     -2365.8271 
   5   1.0000     -16.191796      -440.6012 
   6   1.0000     -12.780846      -347.7845 
   7   1.0000     -12.767713      -347.4271 
   8   1.0000     -12.767709      -347.4270 
   9   1.0000      -7.204072      -196.0328 
  10   1.0000      -7.195713      -195.8053 
  11   1.0000      -7.195711      -195.8052 
  12   1.0000      -7.188641      -195.6129 
  13   1.0000      -7.188641      -195.6129 
  14   1.0000      -2.097607       -57.0788 
  15   1.0000      -1.230738       -33.4901 
  16   1.0000      -1.196136       -32.5485 
  17   1.0000      -1.196127       -32.5483 
  18   0.0000      -0.071794        -1.9536 
  19   0.0000      -0.054072        -1.4714 
  20   0.0000      -0.035466        -0.9651 
  21   0.0000      -0.035463        -0.9650 
  22   0.0000      -0.023415        -0.6371 
  23   0.0000      -0.023415        -0.6371 
  24   0.0000       0.044076         1.1994 
  25   0.0000       0.054873         1.4932 
  26   0.0000       0.065529         1.7831 
  27   0.0000       0.065532         1.7832 
  28   0.0000       0.108776         2.9599 
  29   0.0000       0.111161         3.0249 
  30   0.0000       0.111162         3.0249 
  31   0.0000       0.112945         3.0734 
  32   0.0000       0.112945         3.0734 
  33   0.0000       0.199365         5.4250 
  34   0.0000       0.307859         8.3773 
  35   0.0000       0.314949         8.5702 
  36   0.0000       0.314950         8.5702 
  37   0.0000       0.319013         8.6808 
  38   0.0000       0.319013         8.6808 
  39   0.0000       0.374010        10.1773 
  40   0.0000       0.385550        10.4913 
  41   0.0000       0.385553        10.4914 
  42   0.0000       0.567609        15.4454 
  43   0.0000       0.713886        19.4258 
  44   0.0000       0.724021        19.7016 
  45   0.0000       0.724023        19.7017 
  46   0.0000       0.730008        19.8645 
  47   0.0000       0.730008        19.8645 
  48   0.0000       1.222088        33.2547 
  49   0.0000       1.240213        33.7479 
  50   0.0000       1.240218        33.7480 
  51   0.0000       1.467352        39.9287 
  52   0.0000       1.622538        44.1515 
  53   0.0000       1.636099        44.5205 
  54   0.0000       1.636102        44.5206 
  55   0.0000       1.644687        44.7542 
  56   0.0000       1.644687        44.7542 
  57   0.0000       3.310765        90.0905 
  58   0.0000       3.336550        90.7921 
  59   0.0000       3.336557        90.7923 
  60   0.0000       3.654427        99.4420 
  61   0.0000       3.674678        99.9931 
  62   0.0000       3.674681        99.9932 
  63   0.0000       3.686036       100.3022 
  64   0.0000       3.686036       100.3022 
  65   0.0000       3.805947       103.5651 
  66   0.0000       8.271552       225.0804 
  67   0.0000       8.293836       225.6868 
  68   0.0000       8.293839       225.6868 
  69   0.0000       8.306429       226.0294 
  70   0.0000       8.306429       226.0294 
  71   0.0000       8.593555       233.8425 
  72   0.0000       8.622385       234.6270 
  73   0.0000       8.622392       234.6272 
  74   0.0000      10.074102       274.1302 
  75   0.0000      18.871235       513.5124 
  76   0.0000      18.889877       514.0197 
  77   0.0000      18.889880       514.0198 
  78   0.0000      18.901116       514.3255 
  79   0.0000      18.901116       514.3255 
  80   0.0000      22.156926       602.9206 
  81   0.0000      22.180301       603.5567 
  82   0.0000      22.180308       603.5569 
  83   0.0000      27.178961       739.5771 
  84   0.0000      42.974965      1169.4082 
  85   0.0000      42.986836      1169.7313 
  86   0.0000      42.986839      1169.7313 
  87   0.0000      42.995537      1169.9681 
  88   0.0000      42.995537      1169.9681 
  89   0.0000      56.376316      1534.0776 
  90   0.0000      56.392012      1534.5047 
  91   0.0000      56.392016      1534.5048 
  92   0.0000      72.957800      1985.2827 
  93   0.0000      96.578067      2628.0228 
  94   0.0000      96.586074      2628.2407 
  95   0.0000      96.586076      2628.2407 
  96   0.0000      96.592564      2628.4173 
  97   0.0000      96.592564      2628.4173 
  98   0.0000     138.997471      3782.3135 
  99   0.0000     139.008481      3782.6131 
 100   0.0000     139.008484      3782.6132 
 101   0.0000     190.229997      5176.4214 
 102   0.0000     213.619331      5812.8775 
 103   0.0000     213.625686      5813.0504 
 104   0.0000     213.625687      5813.0505 
 105   0.0000     213.630624      5813.1848 
 106   0.0000     213.630624      5813.1848 
 107   0.0000     328.508148      8939.1612 
 108   0.0000     328.516318      8939.3835 
 109   0.0000     328.516320      8939.3835 
 110   0.0000     463.856478     12622.1765 
 111   0.0000     463.861290     12622.3074 
 112   0.0000     463.861291     12622.3074 
 113   0.0000     463.865038     12622.4094 
 114   0.0000     463.865038     12622.4094 
 115   0.0000     474.165424     12902.6971 
 116   0.0000     743.045612     20219.2990 
 117   0.0000     743.051305     20219.4539 
 118   0.0000     743.051306     20219.4540 
 119   0.0000     988.444868     26896.9523 
 120   0.0000     988.448059     26897.0391 
 121   0.0000     988.448060     26897.0391 
 122   0.0000     988.450746     26897.1122 
 123   0.0000     988.450746     26897.1122 
 124   0.0000    1122.103571     30533.9905 
 125   0.0000    1617.609339     44017.3879 
 126   0.0000    1617.612972     44017.4868 
 127   0.0000    1617.612973     44017.4868 
 128   0.0000    2071.982836     56381.5193 
 129   0.0000    2071.984703     56381.5702 
 130   0.0000    2071.984704     56381.5702 
 131   0.0000    2071.986491     56381.6188 
 132   0.0000    2071.986491     56381.6188 
 133   0.0000    2524.627695     68698.6122 
 134   0.0000    3413.970781     92898.8678 
 135   0.0000    3413.972945     92898.9267 
 136   0.0000    3413.972945     92898.9267 
 137   0.0000    4288.720888    116702.0284 
 138   0.0000    4288.721872    116702.0551 
 139   0.0000    4288.721872    116702.0552 
 140   0.0000    4288.722971    116702.0850 
 141   0.0000    4288.722971    116702.0850 
 142   0.0000    5440.232913    148036.2636 
 143   0.0000    7028.966849    191267.9118 
 144   0.0000    7028.968091    191267.9456 
 145   0.0000    7028.968091    191267.9456 
 146   0.0000    8899.592341    242170.2193 
 147   0.0000    8899.592812    242170.2321 
 148   0.0000    8899.592812    242170.2321 
 149   0.0000    8899.593439    242170.2492 
 150   0.0000    8899.593439    242170.2492 
 151   0.0000   11326.839903    308218.9833 
 152   0.0000   14182.338886    385921.0609 
 153   0.0000   14182.339583    385921.0799 
 154   0.0000   14182.339583    385921.0799 
 155   0.0000   18708.846259    509093.5885 
 156   0.0000   18708.846460    509093.5940 
 157   0.0000   18708.846461    509093.5940 
 158   0.0000   18708.846772    509093.6025 
 159   0.0000   18708.846772    509093.6025 
 160   0.0000   22950.394432    624511.9821 
 161   0.0000   28144.796900    765858.8592 
 162   0.0000   28144.797286    765858.8697 
 163   0.0000   28144.797286    765858.8697 
 164   0.0000   45459.745696   1237022.5694 
 165   0.0000   54989.992805   1496353.7774 
 166   0.0000   54989.993017   1496353.7831 
 167   0.0000   54989.993017   1496353.7831 
 168   0.0000   88235.294679   2401004.4329 
 169   0.0000   106209.962802   2890120.0187 
 170   0.0000   106209.962916   2890120.0218 
 171   0.0000   106209.962916   2890120.0218 
 172   0.0000   167866.033849   4567867.0069 
 173   0.0000   201785.418332   5490860.3828 
 174   0.0000   201785.418393   5490860.3844 
 175   0.0000   201785.418393   5490860.3844 
 176   0.0000   312839.056510   8512783.5092 
 177   0.0000   386623.533536   10520561.2025 
 178   0.0000   386623.533566   10520561.2033 
 179   0.0000   386623.533566   10520561.2033 
 180   0.0000   569758.075374   15503905.4342 
 181   0.0000   712158.376525   19378814.6252 
 182   0.0000   712158.376540   19378814.6256 
 183   0.0000   712158.376540   19378814.6256 
 184   0.0000   1013431.938340   27576885.0240 
 185   0.0000   1750709.670673   47639232.0708 
 186   0.0000   2961002.967320   80572986.9923 
 187   0.0000   4778699.097112   130035013.2848 
 188   0.0000   8069880.309726   219592607.1001 
 189   0.0000   12941294.499540   352150526.3193 

                    ********************************
                    * MULLIKEN POPULATION ANALYSIS *
                    ********************************

--------------------------------------------
MULLIKEN ATOMIC CHARGES AND SPIN POPULATIONS
--------------------------------------------
   0 Nb:    0.000000    5.000000
Sum of atomic charges         :    0.0000000
Sum of atomic spin populations:    5.0000000

-----------------------------------------------------
MULLIKEN REDUCED ORBITAL CHARGES AND SPIN POPULATIONS
-----------------------------------------------------
CHARGE
  0 Nbs       :     8.997799  s :     8.997799
      pz      :     6.000000  p :    18.000000
      px      :     6.000000
      py      :     6.000000
      dz2     :     2.591177  d :    14.002201
      dxz     :     2.854956
      dyz     :     2.599191
      dx2y2   :     2.990542
      dxy     :     2.966335

SPIN
  0 Nbs       :     0.998050  s :     0.998050
      pz      :    -0.000000  p :    -0.000000
      px      :    -0.000000
      py      :     0.000000
      dz2     :     0.591074  d :     4.001950
      dxz     :     0.854920
      dyz     :     0.599090
      dx2y2   :     0.990540
      dxy     :     0.966327


                     *******************************
                     * LOEWDIN POPULATION ANALYSIS *
                     *******************************

-------------------------------------------
LOEWDIN ATOMIC CHARGES AND SPIN POPULATIONS
-------------------------------------------
   0 Nb:    0.000000    5.000000

----------------------------------------------------
LOEWDIN REDUCED ORBITAL CHARGES AND SPIN POPULATIONS
----------------------------------------------------
CHARGE
  0 Nbs       :     8.997799  s :     8.997799
      pz      :     6.000000  p :    18.000000
      px      :     6.000000
      py      :     6.000000
      dz2     :     2.591177  d :    14.002201
      dxz     :     2.854956
      dyz     :     2.599191
      dx2y2   :     2.990542
      dxy     :     2.966335

SPIN
  0 Nbs       :     0.998050  s :     0.998050
      pz      :    -0.000000  p :    -0.000000
      px      :    -0.000000
      py      :     0.000000
      dz2     :     0.591074  d :     4.001950
      dxz     :     0.854920
      dyz     :     0.599090
      dx2y2   :     0.990540
      dxy     :     0.966327


                      *****************************
                      * MAYER POPULATION ANALYSIS *
                      *****************************

  NA   - Mulliken gross atomic population
  ZA   - Total nuclear charge
  QA   - Mulliken gross atomic charge
  VA   - Mayer's total valence
  BVA  - Mayer's bonded valence
  FA   - Mayer's free valence

  ATOM       NA         ZA         QA         VA         BVA        FA
  0 Nb    41.0000    41.0000     0.0000     5.0013     0.0000     5.0013

  Mayer bond orders larger than 0.100000


-------
TIMINGS
-------

Total SCF time: 0 days 0 hours 5 min 5 sec 

Total time                  ....     305.358 sec
Sum of individual times     ....     274.980 sec  ( 90.1%)

Fock matrix formation       ....     272.263 sec  ( 89.2%)
  XC integration            ....      53.365 sec  ( 19.6% of F)
    Basis function eval.    ....       0.068 sec  (  0.1% of XC)
    Density eval.           ....       0.153 sec  (  0.3% of XC)
    XC-Functional eval.     ....       0.177 sec  (  0.3% of XC)
    XC-Potential eval.      ....       0.188 sec  (  0.4% of XC)
Diagonalization             ....       0.162 sec  (  0.1%)
Density matrix formation    ....       0.026 sec  (  0.0%)
Population analysis         ....       0.446 sec  (  0.1%)
Initial guess               ....       0.367 sec  (  0.1%)
Orbital Transformation      ....       0.000 sec  (  0.0%)
Orbital Orthonormalization  ....       0.000 sec  (  0.0%)
DIIS solution               ....       0.042 sec  (  0.0%)
SOSCF solution              ....       0.706 sec  (  0.2%)
Grid generation             ....       0.968 sec  (  0.3%)

Maximum memory used throughout the entire SCF-calculation: 229.7 MB

-------------------------   --------------------
FINAL SINGLE POINT ENERGY     -3869.740256615857
-------------------------   --------------------


                            ***************************************
                            *     ORCA property calculations      *
                            ***************************************

                                    ---------------------
                                    Active property flags
                                    ---------------------
   (+) Dipole Moment


------------------------------------------------------------------------------
                       ORCA ELECTRIC PROPERTIES CALCULATION
------------------------------------------------------------------------------

Dipole Moment Calculation                       ... on
Quadrupole Moment Calculation                   ... off
Polarizability Calculation                      ... off
GBWName                                         ... Nb_ugbs_pbe.gbw
Electron density                                ... Nb_ugbs_pbe.scfp
The origin for moment calculation is the CENTER OF MASS  = ( 0.000000,  0.000000  0.000000)

-------------
DIPOLE MOMENT
-------------
                                X             Y             Z
Electronic contribution:     -0.00000      -0.00000       0.00000
Nuclear contribution   :      0.00000       0.00000       0.00000
                        -----------------------------------------
Total Dipole Moment    :     -0.00000      -0.00000       0.00000
                        -----------------------------------------
Magnitude (a.u.)       :      0.00000
Magnitude (Debye)      :      0.00000



--------------------
Rotational spectrum 
--------------------
 
Rotational constants in cm-1:     0.000000     0.000000     0.000000 
Rotational constants in MHz :     0.000000     0.000000     0.000000 

 Dipole components along the rotational axes: 
x,y,z [a.u.] :    -0.000000    -0.000000     0.000000 
x,y,z [Debye]:    -0.000000    -0.000000     0.000000 

 

Timings for individual modules:

Sum of individual times         ...      380.573 sec (=   6.343 min)
GTO integral calculation        ...       63.643 sec (=   1.061 min)  16.7 %
Relativistic integrals          ...        8.581 sec (=   0.143 min)   2.3 %
SCF iterations                  ...      308.349 sec (=   5.139 min)  81.0 %
                             ****ORCA TERMINATED NORMALLY****
TOTAL RUN TIME: 0 days 0 hours 6 minutes 29 seconds 887 msec
