
                                 *****************
                                 * O   R   C   A *
                                 *****************

                                            #,                                       
                                            ###                                      
                                            ####                                     
                                            #####                                    
                                            ######                                   
                                           ########,                                 
                                     ,,################,,,,,                         
                               ,,#################################,,                 
                          ,,##########################################,,             
                       ,#########################################, ''#####,          
                    ,#############################################,,   '####,        
                  ,##################################################,,,,####,       
                ,###########''''           ''''###############################       
              ,#####''   ,,,,##########,,,,          '''####'''          '####       
            ,##' ,,,,###########################,,,                        '##       
           ' ,,###''''                  '''############,,,                           
         ,,##''                                '''############,,,,        ,,,,,,###''
      ,#''                                            '''#######################'''  
     '                                                          ''''####''''         
             ,#######,   #######,   ,#######,      ##                                
            ,#'     '#,  ##    ##  ,#'     '#,    #''#        ######   ,####,        
            ##       ##  ##   ,#'  ##            #'  '#       #        #'  '#        
            ##       ##  #######   ##           ,######,      #####,   #    #        
            '#,     ,#'  ##    ##  '#,     ,#' ,#      #,         ##   #,  ,#        
             '#######'   ##     ##  '#######'  #'      '#     #####' # '####'        



                  #######################################################
                  #                        -***-                        #
                  #          Department of theory and spectroscopy      #
                  #    Directorship and core code : Frank Neese         #
                  #        Max Planck Institute fuer Kohlenforschung    #
                  #                Kaiser Wilhelm Platz 1               #
                  #                 D-45470 Muelheim/Ruhr               #
                  #                      Germany                        #
                  #                                                     #
                  #                  All rights reserved                #
                  #                        -***-                        #
                  #######################################################


                         Program Version 5.0.1 -  RELEASE  -


 With contributions from (in alphabetic order):
   Daniel Aravena         : Magnetic Suceptibility
   Michael Atanasov       : Ab Initio Ligand Field Theory (pilot matlab implementation)
   Alexander A. Auer      : GIAO ZORA, VPT2 properties, NMR spectrum
   Ute Becker             : Parallelization
   Giovanni Bistoni       : ED, misc. LED, open-shell LED, HFLD
   Martin Brehm           : Molecular dynamics
   Dmytro Bykov           : SCF Hessian
   Vijay G. Chilkuri      : MRCI spin determinant printing, contributions to CSF-ICE
   Dipayan Datta          : RHF DLPNO-CCSD density
   Achintya Kumar Dutta   : EOM-CC, STEOM-CC
   Dmitry Ganyushin       : Spin-Orbit,Spin-Spin,Magnetic field MRCI
   Miquel Garcia          : C-PCM and meta-GGA Hessian, CC/C-PCM, Gaussian charge scheme
   Yang Guo               : DLPNO-NEVPT2, F12-NEVPT2, CIM, IAO-localization
   Andreas Hansen         : Spin unrestricted coupled pair/coupled cluster methods
   Benjamin Helmich-Paris : MC-RPA, TRAH-SCF, COSX integrals
   Lee Huntington         : MR-EOM, pCC
   Robert Izsak           : Overlap fitted RIJCOSX, COSX-SCS-MP3, EOM
   Marcus Kettner         : VPT2
   Christian Kollmar      : KDIIS, OOCD, Brueckner-CCSD(T), CCSD density, CASPT2, CASPT2-K
   Simone Kossmann        : Meta GGA functionals, TD-DFT gradient, OOMP2, MP2 Hessian
   Martin Krupicka        : Initial AUTO-CI
   Lucas Lang             : DCDCAS
   Marvin Lechner         : AUTO-CI (C++ implementation), FIC-MRCC
   Dagmar Lenk            : GEPOL surface, SMD
   Dimitrios Liakos       : Extrapolation schemes; Compound Job, initial MDCI parallelization
   Dimitrios Manganas     : Further ROCIS development; embedding schemes
   Dimitrios Pantazis     : SARC Basis sets
   Anastasios Papadopoulos: AUTO-CI, single reference methods and gradients
   Taras Petrenko         : DFT Hessian,TD-DFT gradient, ASA, ECA, R-Raman, ABS, FL, XAS/XES, NRVS
   Peter Pinski           : DLPNO-MP2, DLPNO-MP2 Gradient
   Christoph Reimann      : Effective Core Potentials
   Marius Retegan         : Local ZFS, SOC
   Christoph Riplinger    : Optimizer, TS searches, QM/MM, DLPNO-CCSD(T), (RO)-DLPNO pert. Triples
   Tobias Risthaus        : Range-separated hybrids, TD-DFT gradient, RPA, STAB
   Michael Roemelt        : Original ROCIS implementation
   Masaaki Saitow         : Open-shell DLPNO-CCSD energy and density
   Barbara Sandhoefer     : DKH picture change effects
   Avijit Sen             : IP-ROCIS
   Kantharuban Sivalingam : CASSCF convergence, NEVPT2, FIC-MRCI
   Bernardo de Souza      : ESD, SOC TD-DFT
   Georgi Stoychev        : AutoAux, RI-MP2 NMR, DLPNO-MP2 response
   Willem Van den Heuvel  : Paramagnetic NMR
   Boris Wezisla          : Elementary symmetry handling
   Frank Wennmohs         : Technical directorship


 We gratefully acknowledge several colleagues who have allowed us to
 interface, adapt or use parts of their codes:
   Stefan Grimme, W. Hujo, H. Kruse, P. Pracht,  : VdW corrections, initial TS optimization,
                  C. Bannwarth, S. Ehlert          DFT functionals, gCP, sTDA/sTD-DF
   Ed Valeev, F. Pavosevic, A. Kumar             : LibInt (2-el integral package), F12 methods
   Garnet Chan, S. Sharma, J. Yang, R. Olivares  : DMRG
   Ulf Ekstrom                                   : XCFun DFT Library
   Mihaly Kallay                                 : mrcc  (arbitrary order and MRCC methods)
   Jiri Pittner, Ondrej Demel                    : Mk-CCSD
   Frank Weinhold                                : gennbo (NPA and NBO analysis)
   Christopher J. Cramer and Donald G. Truhlar   : smd solvation model
   Lars Goerigk                                  : TD-DFT with DH, B97 family of functionals
   V. Asgeirsson, H. Jonsson                     : NEB implementation
   FAccTs GmbH                                   : IRC, NEB, NEB-TS, DLPNO-Multilevel, CI-OPT
                                                   MM, QMMM, 2- and 3-layer-ONIOM, Crystal-QMMM,
                                                   LR-CPCM, SF, NACMEs, symmetry and pop. for TD-DFT,
                                                   nearIR, NL-DFT gradient (VV10), updates on ESD,
                                                   ML-optimized integration grids
   S Lehtola, MJT Oliveira, MAL Marques          : LibXC Library
   Liviu Ungur et al                             : ANISO software


 Your calculation uses the libint2 library for the computation of 2-el integrals
 For citations please refer to: http://libint.valeyev.net

 Your ORCA version has been built with support for libXC version: 5.1.0
 For citations please refer to: https://tddft.org/programs/libxc/

 This ORCA versions uses:
   CBLAS   interface :  Fast vector & matrix operations
   LAPACKE interface :  Fast linear algebra routines
   SCALAPACK package :  Parallel linear algebra routines
   Shared memory     :  Shared parallel matrices
   BLAS/LAPACK       :  OpenBLAS 0.3.15  USE64BITINT DYNAMIC_ARCH NO_AFFINITY Haswell SINGLE_THREADED
        Core in use  :  Haswell
   Copyright (c) 2011-2014, The OpenBLAS Project


SCAN-COORDS

Reading of a custom basis requested
Basis file         : Pd_ano-r3.basis
READING GTO-BASIS: PALLADIUM
Basis successfully read

================================================================================

----- Orbital basis set information -----
================================================================================
                                        WARNINGS
                       Please study these warnings very carefully!
================================================================================


INFO   : the flag for use of the SHARK integral package has been found!

================================================================================
                                       INPUT FILE
================================================================================
NAME = Pd_ano-r3_pbe.inp
|  1> !uks pbe nori verytightscf soscf notrah
|  2> 
|  3> %pal
|  4>   nprocs 32
|  5> end
|  6> %coords
|  7>   charge 0
|  8>   mult 1
|  9>   units bohrs
| 10>   coords
| 11>     Pd 0.0 0.0 0.0
| 12>   end
| 13> end
| 14> %basis
| 15>   gtoname "Pd_ano-r3.basis"
| 16>   delECP Pd
| 17> end
| 18> %rel
| 19>   method zora
| 20>   modelpot 1, 0, 0, 0
| 21>   c 137.035999084
| 22> endd                         ****END OF INPUT****
================================================================================

                       ****************************
                       * Single Point Calculation *
                       ****************************

---------------------------------
CARTESIAN COORDINATES (ANGSTROEM)
---------------------------------
  Pd     0.000000    0.000000    0.000000

----------------------------
CARTESIAN COORDINATES (A.U.)
----------------------------
  NO LB      ZA    FRAG     MASS         X           Y           Z
   0 Pd   46.0000    0   106.400    0.000000    0.000000    0.000000

--------------------------------
INTERNAL COORDINATES (ANGSTROEM)
--------------------------------
 Pd     0   0   0     0.000000000000     0.00000000     0.00000000

---------------------------
INTERNAL COORDINATES (A.U.)
---------------------------
 Pd     0   0   0     0.000000000000     0.00000000     0.00000000

---------------------
BASIS SET INFORMATION
---------------------
There are 1 groups of distinct atoms

 Group   1 Type Pd  : 176s96p60d18f10g3h contracted to 8s6p5d3f2g1h pattern {2222222222222222/161616161616/1212121212/666/55/3}

Atom   0Pd   basis set group =>   1


           ************************************************************
           *        Program running with 32 parallel MPI-processes    *
           *              working on a common directory               *
           ************************************************************
------------------------------------------------------------------------------
                           ORCA GTO INTEGRAL CALCULATION
------------------------------------------------------------------------------
------------------------------------------------------------------------------
                   ___                                                        
                  /   \      - P O W E R E D   B Y -                         
                 /     \                                                     
                 |  |  |   _    _      __       _____    __    __             
                 |  |  |  | |  | |    /  \     |  _  \  |  |  /  |          
                  \  \/   | |  | |   /    \    | | | |  |  | /  /          
                 / \  \   | |__| |  /  /\  \   | |_| |  |  |/  /          
                |  |  |   |  __  | /  /__\  \  |    /   |      \           
                |  |  |   | |  | | |   __   |  |    \   |  |\   \          
                \     /   | |  | | |  |  |  |  | |\  \  |  | \   \       
                 \___/    |_|  |_| |__|  |__|  |_| \__\ |__|  \__/        
                                                                              
                      - O R C A' S   B I G   F R I E N D -                    
                                      &                                       
                       - I N T E G R A L  F E E D E R -                       
                                                                              
 v1 FN, 2020, v2 2021                                                         
------------------------------------------------------------------------------


Reading SHARK input file Pd_ano-r3_pbe.SHARKINP.tmp ... ok
----------------------
SHARK INTEGRAL PACKAGE
----------------------

Number of atoms                             ...      1
Number of basis functions                   ...    101
Number of shells                            ...     25
Maximum angular momentum                    ...      5
Integral batch strategy                     ... SHARK/LIBINT Hybrid
RI-J (if used) integral strategy            ... SPLIT-RIJ (Revised 2003 algorithm where possible)
Printlevel                                  ...      1
Contraction scheme used                     ... SEGMENTED contraction
Coulomb Range Separation                    ... NOT USED
Exchange Range Separation                   ... NOT USED
Finite Nucleus Model                        ... NOT USED
Auxiliary Coulomb fitting basis             ... NOT available
Auxiliary J/K fitting basis                 ... NOT available
Auxiliary Correlation fitting basis         ... NOT available
Auxiliary 'external' fitting basis          ... NOT available
Integral threshold                          ...     1.000000e-12
Primitive cut-off                           ...     1.000000e-14
Primitive pair pre-selection threshold      ...     1.000000e-14

Calculating pre-screening integrals         ... done ( 36.0 sec) Dimension = 25
Organizing shell pair data                  ... done (  1.0 sec)
Shell pair information
Total number of shell pairs                 ...       325
Shell pairs after pre-screening             ...       325
Total number of primitive shell pairs       ...     69032
Primitive shell pairs kept                  ...     69032
          la=0 lb=0:     36 shell pairs
          la=1 lb=0:     48 shell pairs
          la=1 lb=1:     21 shell pairs
          la=2 lb=0:     40 shell pairs
          la=2 lb=1:     30 shell pairs
          la=2 lb=2:     15 shell pairs
          la=3 lb=0:     24 shell pairs
          la=3 lb=1:     18 shell pairs
          la=3 lb=2:     15 shell pairs
          la=3 lb=3:      6 shell pairs
          la=4 lb=0:     16 shell pairs
          la=4 lb=1:     12 shell pairs
          la=4 lb=2:     10 shell pairs
          la=4 lb=3:      6 shell pairs
          la=4 lb=4:      3 shell pairs
          la=5 lb=0:      8 shell pairs
          la=5 lb=1:      6 shell pairs
          la=5 lb=2:      5 shell pairs
          la=5 lb=3:      3 shell pairs
          la=5 lb=4:      2 shell pairs
          la=5 lb=5:      1 shell pairs

Calculating one electron integrals          ... done (  0.7 sec)
Calculating Nuclear repulsion               ... done (  0.0 sec) ENN=      0.000000000000 Eh

SHARK setup successfully completed in  39.8 seconds

Maximum memory used throughout the entire GTOINT-calculation: 329.5 MB


           ************************************************************
           *        Program running with 32 parallel MPI-processes    *
           *              working on a common directory               *
           ************************************************************
------------------------------------------------------------------------------
                          ORCA RELATIVISTIC HAMILTONIAN
------------------------------------------------------------------------------

Relativistic Method            ... ZORA(MP)
Treatment of potential         ... Van Wuellen
Nucleus model                  ... Point Nucleus
Speed of light used            ... 137.03599908400000


            *************************************************
            *         ZERO ORDER REGULAR APPROXIMATION      *
            *                     ZORA(MP)                  *
            *            Programmed by FN according to      *
            *                   C. van Wuellen              *
            *       J. Chem. Phys. (1998) vol 109, 392-399  *
            *************************************************

Terms included in model potential: +V(e,N)
Basis function cutoff value   ... 1.000000e-12
Loading the fitted atomic densities  (DKH4)  ... done
Calculating the cutoffs                      ... done
Number of fit functions                      ... 26
Setting up the integration grid ... done

Maximum memory used throughout the entire REL-calculation: 5.5 MB


           ************************************************************
           *        Program running with 32 parallel MPI-processes    *
           *              working on a common directory               *
           ************************************************************
-------------------------------------------------------------------------------
                                 ORCA SCF
-------------------------------------------------------------------------------

------------
SCF SETTINGS
------------
Hamiltonian:
 Density Functional     Method          .... DFT(GTOs)
 Exchange Functional    Exchange        .... PBE
   PBE kappa parameter   XKappa         ....  0.804000
   PBE mue parameter    XMuePBE         ....  0.219520
 Correlation Functional Correlation     .... PBE
   PBE beta parameter  CBetaPBE         ....  0.066725
 LDA part of GGA corr.  LDAOpt          .... PW91-LDA
 Gradients option       PostSCFGGA      .... off
   Density functional embedding theory  .... OFF
   NL short-range parameter             ....  6.400000

Relativistic Settings:
 Scalar relativistic method             .... ZORA
 Speed of light used       Velit        ....       137.035999
Orbital energies will be scaled


General Settings:
 Integral files         IntName         .... Pd_ano-r3_pbe
 Hartree-Fock type      HFTyp           .... UHF
 Total Charge           Charge          ....    0
 Multiplicity           Mult            ....    1
 Number of Electrons    NEL             ....   46
 Basis Dimension        Dim             ....  101
 Nuclear Repulsion      ENuc            ....      0.0000000000 Eh

Convergence Acceleration:
 DIIS                   CNVDIIS         .... on
   Start iteration      DIISMaxIt       ....    12
   Startup error        DIISStart       ....  0.200000
   # of expansion vecs  DIISMaxEq       ....     5
   Bias factor          DIISBfac        ....   1.050
   Max. coefficient     DIISMaxC        ....  10.000
 Trust-Rad. Augm. Hess. CNVTRAH         .... off
 SOSCF                  CNVSOSCF        .... on
   Start iteration      SOSCFMaxIt      ....   150
   Startup grad/error   SOSCFStart      ....  0.003300
 Level Shifting         CNVShift        .... on
   Level shift para.    LevelShift      ....    0.2500
   Turn off err/grad.   ShiftErr        ....    0.0010
 Zerner damping         CNVZerner       .... off
 Static damping         CNVDamp         .... on
   Fraction old density DampFac         ....    0.7000
   Max. Damping (<1)    DampMax         ....    0.9800
   Min. Damping (>=0)   DampMin         ....    0.0000
   Turn off err/grad.   DampErr         ....    0.1000
 Fernandez-Rico         CNVRico         .... off

SCF Procedure:
 Maximum # iterations   MaxIter         ....   125
 SCF integral mode      SCFMode         .... Direct
   Integral package                     .... SHARK and LIBINT hybrid scheme
 Reset frequency        DirectResetFreq ....    20
 Integral Threshold     Thresh          ....  1.000e-12 Eh
 Primitive CutOff       TCut            ....  1.000e-14 Eh

Convergence Tolerance:
 Convergence Check Mode ConvCheckMode   .... Total+1el-Energy
 Convergence forced     ConvForced      .... 0
 Energy Change          TolE            ....  1.000e-09 Eh
 1-El. energy change                    ....  1.000e-06 Eh
 Orbital Gradient       TolG            ....  2.000e-06
 Orbital Rotation angle TolX            ....  2.000e-06
 DIIS Error             TolErr          ....  1.000e-08


Diagonalization of the overlap matrix:
Smallest eigenvalue                        ... 1.000e+00
Time for diagonalization                   ...    0.120 sec
Threshold for overlap eigenvalues          ... 1.000e-08
Number of eigenvalues below threshold      ... 0
Time for construction of square roots      ...    0.488 sec
Total time needed                          ...    0.610 sec

Time for model grid setup =    0.141 sec

------------------------------
INITIAL GUESS: MODEL POTENTIAL
------------------------------
Loading ZORA relativistic densities                ... done
Calculating cut-offs                               ... done
Initializing the effective Hamiltonian             ... done
Setting up the integral package (SHARK)            ... done
Starting the Coulomb interaction                   ... done (   4.0 sec)
Reading the grid                                   ... done
Mapping shells                                     ... done
Starting the XC term evaluation                    ... done (   0.7 sec)
  promolecular density results
     # of electrons  =     45.999970582
     EX              =   -146.294866359
     EC              =     -2.406774569
     EX+EC           =   -148.701640927
Transforming the Hamiltonian                       ... done (   0.0 sec)
Diagonalizing the Hamiltonian                      ... done (   0.0 sec)
Back transforming the eigenvectors                 ... done (   0.1 sec)
Now organizing SCF variables                       ... done
                      ------------------
                      INITIAL GUESS DONE (   5.2 sec)
                      ------------------
-------------------
DFT GRID GENERATION
-------------------

General Integration Accuracy     IntAcc      ... 4.388
Radial Grid Type                 RadialGrid  ... OptM3 with GC (2021)
Angular Grid (max. ang.)         AngularGrid ... 4 (Lebedev-302)
Angular grid pruning method      GridPruning ... 4 (adaptive)
Weight generation scheme         WeightScheme... Becke
Basis function cutoff            BFCut       ... 1.0000e-12
Integration weight cutoff        WCut        ... 1.0000e-14
Angular grids for H and He will be reduced by one unit
Partially contracted basis set               ... off
Rotationally invariant grid construction     ... off

Total number of grid points                  ...    13826
Total number of batches                      ...      217
Average number of points per batch           ...       63
Average number of grid points per atom       ...    13826
Time for grid setup =    0.295 sec

--------------
SCF ITERATIONS
--------------
ITER       Energy         Delta-E        Max-DP      RMS-DP      [F,P]     Damp
               ***  Starting incremental Fock matrix formation  ***
  0  -5118.2197269829   0.000000000000 0.01434688  0.00034719  0.2960772 0.7000
  1  -5118.2297637514  -0.010036768460 0.00619793  0.00016143  0.1997142 0.7000
                               ***Turning on DIIS***
  2  -5118.2332200278  -0.003456276449 0.00098297  0.00003021  0.1361074 0.7000
  3  -5118.2358455335  -0.002625505696 0.00474081  0.00010983  0.0936961 0.0000
  4  -5118.2417543325  -0.005908798989 0.00568900  0.00013318  0.0135528 0.0000
  5  -5118.2415743870   0.000179945482 0.00218378  0.00005164  0.0188063 0.0000
  6  -5118.2419102960  -0.000335908945 0.00111607  0.00002717  0.0051875 0.0000
                      *** Initiating the SOSCF procedure ***
                           *** Shutting down DIIS ***
                      *** Re-Reading the Fockian *** 
                      *** Removing any level shift *** 
ITER      Energy       Delta-E        Grad      Rot      Max-DP    RMS-DP
  7  -5118.24193962  -0.0000293266  0.000097  0.000097  0.000164  0.000005
               *** Restarting incremental Fock matrix formation ***
  8  -5118.24193964  -0.0000000205  0.000137  0.000307  0.000306  0.000008
  9  -5118.24193874   0.0000009040  0.000349  0.000204  0.000210  0.000005
 10  -5118.24193983  -0.0000010926  0.000010  0.000004  0.000004  0.000000
 11  -5118.24193983  -0.0000000003  0.000004  0.000001  0.000001  0.000000
                  ***Gradient check signals convergence***
              ***Rediagonalizing the Fockian in SOSCF/NRSCF***

               *****************************************************
               *                     SUCCESS                       *
               *           SCF CONVERGED AFTER  12 CYCLES          *
               *****************************************************


----------------
TOTAL SCF ENERGY
----------------

Total Energy       :        -5118.24193983 Eh         -139274.44376 eV

Components:
Nuclear Repulsion  :            0.00000000 Eh               0.00000 eV
Electronic Energy  :        -5118.24193983 Eh         -139274.44376 eV
One Electron Energy:        -7039.03379152 Eh         -191541.84727 eV
Two Electron Energy:         1920.79185169 Eh           52267.40351 eV

Virial components:
Potential Energy   :       -10514.46935857 Eh         -286113.25696 eV
Kinetic Energy     :         5396.22741874 Eh          146838.81320 eV
Virial Ratio       :            1.94848522


DFT components:
N(Alpha)           :       22.999999470234 electrons
N(Beta)            :       22.999999470234 electrons
N(Total)           :       45.999998940468 electrons
E(X)               :     -142.841991250285 Eh       
E(C)               :       -2.406792806078 Eh       
E(XC)              :     -145.248784056362 Eh       
DFET-embed. en.    :        0.000000000000 Eh       

---------------
SCF CONVERGENCE
---------------

  Last Energy change         ...   -6.2755e-11  Tolerance :   1.0000e-09
  Last MAX-Density change    ...    3.0066e-08  Tolerance :   1.0000e-08
  Last RMS-Density change    ...    8.1023e-10  Tolerance :   1.0000e-09
  Last Orbital Gradient      ...    1.3620e-07  Tolerance :   2.0000e-06
  Last Orbital Rotation      ...    2.5433e-08  Tolerance :   2.0000e-06

             **** THE GBW FILE WAS UPDATED (Pd_ano-r3_pbe.gbw) ****
             **** DENSITY Pd_ano-r3_pbe.scfp WAS UPDATED ****
             **** ENERGY FILE WAS UPDATED (Pd_ano-r3_pbe.en.tmp) ****
----------------------
UHF SPIN CONTAMINATION
----------------------

Warning: in a DFT calculation there is little theoretical justification to 
         calculate <S**2> as in Hartree-Fock theory. We will do it anyways
         but you should keep in mind that the values have only limited relevance

Expectation value of <S**2>     :    -0.000000
Ideal value S*(S+1) for S=0.0   :     0.000000
Deviation                       :    -0.000000

             **** THE GBW FILE WAS UPDATED (Pd_ano-r3_pbe.gbw) ****
             **** DENSITY Pd_ano-r3_pbe.scfp WAS UPDATED ****
----------------
ORBITAL ENERGIES
----------------
                 SPIN UP ORBITALS
  NO   OCC          E(Eh)            E(eV) 
   0   1.0000    -914.662585    -24889.2343 
   1   1.0000    -130.715554     -3556.9511 
   2   1.0000    -117.518775     -3197.8484 
   3   1.0000    -117.518775     -3197.8484 
   4   1.0000    -117.518775     -3197.8484 
   5   1.0000     -23.453091      -638.1911 
   6   1.0000     -19.079970      -519.1924 
   7   1.0000     -19.079970      -519.1924 
   8   1.0000     -19.079970      -519.1924 
   9   1.0000     -12.008995      -326.7814 
  10   1.0000     -12.008995      -326.7814 
  11   1.0000     -12.008995      -326.7814 
  12   1.0000     -12.008995      -326.7814 
  13   1.0000     -12.008995      -326.7814 
  14   1.0000      -3.132553       -85.2411 
  15   1.0000      -1.883633       -51.2563 
  16   1.0000      -1.883633       -51.2563 
  17   1.0000      -1.883633       -51.2563 
  18   1.0000      -0.139917        -3.8073 
  19   1.0000      -0.139917        -3.8073 
  20   1.0000      -0.139917        -3.8073 
  21   1.0000      -0.139917        -3.8073 
  22   1.0000      -0.139917        -3.8073 
  23   0.0000      -0.113741        -3.0950 
  24   0.0000       0.130324         3.5463 
  25   0.0000       0.130324         3.5463 
  26   0.0000       0.130324         3.5463 
  27   0.0000       0.305706         8.3187 
  28   0.0000       0.305706         8.3187 
  29   0.0000       0.305706         8.3187 
  30   0.0000       0.305706         8.3187 
  31   0.0000       0.305706         8.3187 
  32   0.0000       0.342677         9.3247 
  33   0.0000       0.908432        24.7197 
  34   0.0000       0.908432        24.7197 
  35   0.0000       0.908432        24.7197 
  36   0.0000       0.908432        24.7197 
  37   0.0000       0.908432        24.7197 
  38   0.0000       0.908432        24.7197 
  39   0.0000       0.908432        24.7197 
  40   0.0000       1.621982        44.1364 
  41   0.0000       1.621982        44.1364 
  42   0.0000       1.621982        44.1364 
  43   0.0000       1.689685        45.9787 
  44   0.0000       1.689685        45.9787 
  45   0.0000       1.689685        45.9787 
  46   0.0000       1.689685        45.9787 
  47   0.0000       1.689685        45.9787 
  48   0.0000       2.395811        65.1933 
  49   0.0000       2.432149        66.1821 
  50   0.0000       2.432149        66.1821 
  51   0.0000       2.432149        66.1821 
  52   0.0000       2.432149        66.1821 
  53   0.0000       2.432149        66.1821 
  54   0.0000       2.432149        66.1821 
  55   0.0000       2.432149        66.1821 
  56   0.0000       2.711143        73.7740 
  57   0.0000       2.711143        73.7740 
  58   0.0000       2.711143        73.7740 
  59   0.0000       2.711143        73.7740 
  60   0.0000       2.711143        73.7740 
  61   0.0000       2.711143        73.7740 
  62   0.0000       2.711143        73.7740 
  63   0.0000       2.711143        73.7740 
  64   0.0000       2.711143        73.7740 
  65   0.0000       6.028385       164.0407 
  66   0.0000       6.028385       164.0407 
  67   0.0000       6.028385       164.0407 
  68   0.0000       6.028385       164.0407 
  69   0.0000       6.028385       164.0407 
  70   0.0000       6.028385       164.0407 
  71   0.0000       6.028385       164.0407 
  72   0.0000       6.384124       173.7209 
  73   0.0000       6.384124       173.7209 
  74   0.0000       6.384124       173.7209 
  75   0.0000       6.384124       173.7209 
  76   0.0000       6.384124       173.7209 
  77   0.0000       7.081371       192.6939 
  78   0.0000       7.081371       192.6939 
  79   0.0000       7.081371       192.6939 
  80   0.0000       7.081371       192.6939 
  81   0.0000       7.081371       192.6939 
  82   0.0000       7.081371       192.6939 
  83   0.0000       7.081371       192.6939 
  84   0.0000       7.081371       192.6939 
  85   0.0000       7.081371       192.6939 
  86   0.0000       7.081371       192.6939 
  87   0.0000       7.081371       192.6939 
  88   0.0000       7.619908       207.3483 
  89   0.0000       7.619908       207.3483 
  90   0.0000       7.619908       207.3483 
  91   0.0000       7.619908       207.3483 
  92   0.0000       7.619908       207.3483 
  93   0.0000       7.619908       207.3483 
  94   0.0000       7.619908       207.3483 
  95   0.0000       7.619908       207.3483 
  96   0.0000       7.619908       207.3483 
  97   0.0000       7.636005       207.7863 
  98   0.0000       7.636005       207.7863 
  99   0.0000       7.636005       207.7863 
 100   0.0000      10.331374       281.1310 

                 SPIN DOWN ORBITALS
  NO   OCC          E(Eh)            E(eV) 
   0   1.0000    -914.662585    -24889.2343 
   1   1.0000    -130.715554     -3556.9511 
   2   1.0000    -117.518775     -3197.8484 
   3   1.0000    -117.518775     -3197.8484 
   4   1.0000    -117.518775     -3197.8484 
   5   1.0000     -23.453091      -638.1911 
   6   1.0000     -19.079970      -519.1924 
   7   1.0000     -19.079970      -519.1924 
   8   1.0000     -19.079970      -519.1924 
   9   1.0000     -12.008995      -326.7814 
  10   1.0000     -12.008995      -326.7814 
  11   1.0000     -12.008995      -326.7814 
  12   1.0000     -12.008995      -326.7814 
  13   1.0000     -12.008995      -326.7814 
  14   1.0000      -3.132553       -85.2411 
  15   1.0000      -1.883633       -51.2563 
  16   1.0000      -1.883633       -51.2563 
  17   1.0000      -1.883633       -51.2563 
  18   1.0000      -0.139917        -3.8073 
  19   1.0000      -0.139917        -3.8073 
  20   1.0000      -0.139917        -3.8073 
  21   1.0000      -0.139917        -3.8073 
  22   1.0000      -0.139917        -3.8073 
  23   0.0000      -0.113741        -3.0950 
  24   0.0000       0.130324         3.5463 
  25   0.0000       0.130324         3.5463 
  26   0.0000       0.130324         3.5463 
  27   0.0000       0.305706         8.3187 
  28   0.0000       0.305706         8.3187 
  29   0.0000       0.305706         8.3187 
  30   0.0000       0.305706         8.3187 
  31   0.0000       0.305706         8.3187 
  32   0.0000       0.342677         9.3247 
  33   0.0000       0.908432        24.7197 
  34   0.0000       0.908432        24.7197 
  35   0.0000       0.908432        24.7197 
  36   0.0000       0.908432        24.7197 
  37   0.0000       0.908432        24.7197 
  38   0.0000       0.908432        24.7197 
  39   0.0000       0.908432        24.7197 
  40   0.0000       1.621982        44.1364 
  41   0.0000       1.621982        44.1364 
  42   0.0000       1.621982        44.1364 
  43   0.0000       1.689685        45.9787 
  44   0.0000       1.689685        45.9787 
  45   0.0000       1.689685        45.9787 
  46   0.0000       1.689685        45.9787 
  47   0.0000       1.689685        45.9787 
  48   0.0000       2.395811        65.1933 
  49   0.0000       2.432149        66.1821 
  50   0.0000       2.432149        66.1821 
  51   0.0000       2.432149        66.1821 
  52   0.0000       2.432149        66.1821 
  53   0.0000       2.432149        66.1821 
  54   0.0000       2.432149        66.1821 
  55   0.0000       2.432149        66.1821 
  56   0.0000       2.711143        73.7740 
  57   0.0000       2.711143        73.7740 
  58   0.0000       2.711143        73.7740 
  59   0.0000       2.711143        73.7740 
  60   0.0000       2.711143        73.7740 
  61   0.0000       2.711143        73.7740 
  62   0.0000       2.711143        73.7740 
  63   0.0000       2.711143        73.7740 
  64   0.0000       2.711143        73.7740 
  65   0.0000       6.028385       164.0407 
  66   0.0000       6.028385       164.0407 
  67   0.0000       6.028385       164.0407 
  68   0.0000       6.028385       164.0407 
  69   0.0000       6.028385       164.0407 
  70   0.0000       6.028385       164.0407 
  71   0.0000       6.028385       164.0407 
  72   0.0000       6.384124       173.7209 
  73   0.0000       6.384124       173.7209 
  74   0.0000       6.384124       173.7209 
  75   0.0000       6.384124       173.7209 
  76   0.0000       6.384124       173.7209 
  77   0.0000       7.081371       192.6939 
  78   0.0000       7.081371       192.6939 
  79   0.0000       7.081371       192.6939 
  80   0.0000       7.081371       192.6939 
  81   0.0000       7.081371       192.6939 
  82   0.0000       7.081371       192.6939 
  83   0.0000       7.081371       192.6939 
  84   0.0000       7.081371       192.6939 
  85   0.0000       7.081371       192.6939 
  86   0.0000       7.081371       192.6939 
  87   0.0000       7.081371       192.6939 
  88   0.0000       7.619908       207.3483 
  89   0.0000       7.619908       207.3483 
  90   0.0000       7.619908       207.3483 
  91   0.0000       7.619908       207.3483 
  92   0.0000       7.619908       207.3483 
  93   0.0000       7.619908       207.3483 
  94   0.0000       7.619908       207.3483 
  95   0.0000       7.619908       207.3483 
  96   0.0000       7.619908       207.3483 
  97   0.0000       7.636005       207.7863 
  98   0.0000       7.636005       207.7863 
  99   0.0000       7.636005       207.7863 
 100   0.0000      10.331374       281.1310 

                    ********************************
                    * MULLIKEN POPULATION ANALYSIS *
                    ********************************

--------------------------------------------
MULLIKEN ATOMIC CHARGES AND SPIN POPULATIONS
--------------------------------------------
   0 Pd:   -0.000000    0.000000
Sum of atomic charges         :   -0.0000000
Sum of atomic spin populations:    0.0000000

-----------------------------------------------------
MULLIKEN REDUCED ORBITAL CHARGES AND SPIN POPULATIONS
-----------------------------------------------------
CHARGE
  0 Pds       :     8.000000  s :     8.000000
      pz      :     6.000000  p :    18.000000
      px      :     6.000000
      py      :     6.000000
      dz2     :     4.000000  d :    20.000000
      dxz     :     4.000000
      dyz     :     4.000000
      dx2y2   :     4.000000
      dxy     :     4.000000
      f0      :     0.000000  f :     0.000000
      f+1     :     0.000000
      f-1     :     0.000000
      f+2     :     0.000000
      f-2     :     0.000000
      f+3     :     0.000000
      f-3     :     0.000000
      g0      :     0.000000  g :     0.000000
      g+1     :     0.000000
      g-1     :     0.000000
      g+2     :     0.000000
      g-2     :     0.000000
      g+3     :     0.000000
      g-3     :     0.000000
      g+4     :     0.000000
      g-4     :     0.000000
      h0      :     0.000000  h :     0.000000
      h+1     :     0.000000
      h-1     :     0.000000
      h+2     :     0.000000
      h-2     :     0.000000
      h+3     :     0.000000
      h-3     :     0.000000
      h+4     :     0.000000
      h-4     :     0.000000
      h+5     :     0.000000
      h-5     :     0.000000

SPIN
  0 Pds       :     0.000000  s :     0.000000
      pz      :     0.000000  p :     0.000000
      px      :     0.000000
      py      :     0.000000
      dz2     :     0.000000  d :     0.000000
      dxz     :     0.000000
      dyz     :     0.000000
      dx2y2   :     0.000000
      dxy     :     0.000000
      f0      :     0.000000  f :     0.000000
      f+1     :     0.000000
      f-1     :     0.000000
      f+2     :     0.000000
      f-2     :     0.000000
      f+3     :     0.000000
      f-3     :     0.000000
      g0      :     0.000000  g :     0.000000
      g+1     :     0.000000
      g-1     :     0.000000
      g+2     :     0.000000
      g-2     :     0.000000
      g+3     :     0.000000
      g-3     :     0.000000
      g+4     :     0.000000
      g-4     :     0.000000
      h0      :     0.000000  h :     0.000000
      h+1     :     0.000000
      h-1     :     0.000000
      h+2     :     0.000000
      h-2     :     0.000000
      h+3     :     0.000000
      h-3     :     0.000000
      h+4     :     0.000000
      h-4     :     0.000000
      h+5     :     0.000000
      h-5     :     0.000000


                     *******************************
                     * LOEWDIN POPULATION ANALYSIS *
                     *******************************

-------------------------------------------
LOEWDIN ATOMIC CHARGES AND SPIN POPULATIONS
-------------------------------------------
   0 Pd:   -0.000000    0.000000

----------------------------------------------------
LOEWDIN REDUCED ORBITAL CHARGES AND SPIN POPULATIONS
----------------------------------------------------
CHARGE
  0 Pds       :     8.000000  s :     8.000000
      pz      :     6.000000  p :    18.000000
      px      :     6.000000
      py      :     6.000000
      dz2     :     4.000000  d :    20.000000
      dxz     :     4.000000
      dyz     :     4.000000
      dx2y2   :     4.000000
      dxy     :     4.000000
      f0      :     0.000000  f :     0.000000
      f+1     :     0.000000
      f-1     :     0.000000
      f+2     :     0.000000
      f-2     :     0.000000
      f+3     :     0.000000
      f-3     :     0.000000
      g0      :     0.000000  g :     0.000000
      g+1     :     0.000000
      g-1     :     0.000000
      g+2     :     0.000000
      g-2     :     0.000000
      g+3     :     0.000000
      g-3     :     0.000000
      g+4     :     0.000000
      g-4     :     0.000000
      h0      :     0.000000  h :     0.000000
      h+1     :     0.000000
      h-1     :     0.000000
      h+2     :     0.000000
      h-2     :     0.000000
      h+3     :     0.000000
      h-3     :     0.000000
      h+4     :     0.000000
      h-4     :     0.000000
      h+5     :     0.000000
      h-5     :     0.000000

SPIN
  0 Pds       :     0.000000  s :     0.000000
      pz      :     0.000000  p :     0.000000
      px      :     0.000000
      py      :     0.000000
      dz2     :     0.000000  d :     0.000000
      dxz     :     0.000000
      dyz     :     0.000000
      dx2y2   :     0.000000
      dxy     :     0.000000
      f0      :     0.000000  f :     0.000000
      f+1     :     0.000000
      f-1     :     0.000000
      f+2     :     0.000000
      f-2     :     0.000000
      f+3     :     0.000000
      f-3     :     0.000000
      g0      :     0.000000  g :     0.000000
      g+1     :     0.000000
      g-1     :     0.000000
      g+2     :     0.000000
      g-2     :     0.000000
      g+3     :     0.000000
      g-3     :     0.000000
      g+4     :     0.000000
      g-4     :     0.000000
      h0      :     0.000000  h :     0.000000
      h+1     :     0.000000
      h-1     :     0.000000
      h+2     :     0.000000
      h-2     :     0.000000
      h+3     :     0.000000
      h-3     :     0.000000
      h+4     :     0.000000
      h-4     :     0.000000
      h+5     :     0.000000
      h-5     :     0.000000


                      *****************************
                      * MAYER POPULATION ANALYSIS *
                      *****************************

  NA   - Mulliken gross atomic population
  ZA   - Total nuclear charge
  QA   - Mulliken gross atomic charge
  VA   - Mayer's total valence
  BVA  - Mayer's bonded valence
  FA   - Mayer's free valence

  ATOM       NA         ZA         QA         VA         BVA        FA
  0 Pd    46.0000    46.0000    -0.0000    -0.0000     0.0000    -0.0000

  Mayer bond orders larger than 0.100000


-------
TIMINGS
-------

Total SCF time: 0 days 0 hours 15 min 59 sec 

Total time                  ....     959.706 sec
Sum of individual times     ....     923.774 sec  ( 96.3%)

Fock matrix formation       ....     916.630 sec  ( 95.5%)
  XC integration            ....       4.554 sec  (  0.5% of F)
    Basis function eval.    ....       0.047 sec  (  1.0% of XC)
    Density eval.           ....       0.177 sec  (  3.9% of XC)
    XC-Functional eval.     ....       0.198 sec  (  4.3% of XC)
    XC-Potential eval.      ....       0.125 sec  (  2.7% of XC)
Diagonalization             ....       0.879 sec  (  0.1%)
Density matrix formation    ....       0.006 sec  (  0.0%)
Population analysis         ....       0.066 sec  (  0.0%)
Initial guess               ....       5.091 sec  (  0.5%)
Orbital Transformation      ....       0.000 sec  (  0.0%)
Orbital Orthonormalization  ....       0.000 sec  (  0.0%)
DIIS solution               ....       0.608 sec  (  0.1%)
SOSCF solution              ....       0.059 sec  (  0.0%)
Grid generation             ....       0.436 sec  (  0.0%)

Maximum memory used throughout the entire SCF-calculation: 261.6 MB

-------------------------   --------------------
FINAL SINGLE POINT ENERGY     -5118.241939831914
-------------------------   --------------------


                            ***************************************
                            *     ORCA property calculations      *
                            ***************************************

                                    ---------------------
                                    Active property flags
                                    ---------------------
   (+) Dipole Moment


------------------------------------------------------------------------------
                       ORCA ELECTRIC PROPERTIES CALCULATION
------------------------------------------------------------------------------

Dipole Moment Calculation                       ... on
Quadrupole Moment Calculation                   ... off
Polarizability Calculation                      ... off
GBWName                                         ... Pd_ano-r3_pbe.gbw
Electron density                                ... Pd_ano-r3_pbe.scfp
The origin for moment calculation is the CENTER OF MASS  = ( 0.000000,  0.000000  0.000000)

-------------
DIPOLE MOMENT
-------------
                                X             Y             Z
Electronic contribution:     -0.00000      -0.00000       0.00000
Nuclear contribution   :      0.00000       0.00000       0.00000
                        -----------------------------------------
Total Dipole Moment    :     -0.00000      -0.00000       0.00000
                        -----------------------------------------
Magnitude (a.u.)       :      0.00000
Magnitude (Debye)      :      0.00000



--------------------
Rotational spectrum 
--------------------
 
Rotational constants in cm-1:     0.000000     0.000000     0.000000 
Rotational constants in MHz :     0.000000     0.000000     0.000000 

 Dipole components along the rotational axes: 
x,y,z [a.u.] :    -0.000000    -0.000000     0.000000 
x,y,z [Debye]:    -0.000000    -0.000000     0.000000 

 

Timings for individual modules:

Sum of individual times         ...     1060.335 sec (=  17.672 min)
GTO integral calculation        ...       89.589 sec (=   1.493 min)   8.4 %
Relativistic integrals          ...        8.196 sec (=   0.137 min)   0.8 %
SCF iterations                  ...      962.550 sec (=  16.043 min)  90.8 %
                             ****ORCA TERMINATED NORMALLY****
TOTAL RUN TIME: 0 days 0 hours 17 minutes 52 seconds 918 msec
