
                                 *****************
                                 * O   R   C   A *
                                 *****************

                                            #,                                       
                                            ###                                      
                                            ####                                     
                                            #####                                    
                                            ######                                   
                                           ########,                                 
                                     ,,################,,,,,                         
                               ,,#################################,,                 
                          ,,##########################################,,             
                       ,#########################################, ''#####,          
                    ,#############################################,,   '####,        
                  ,##################################################,,,,####,       
                ,###########''''           ''''###############################       
              ,#####''   ,,,,##########,,,,          '''####'''          '####       
            ,##' ,,,,###########################,,,                        '##       
           ' ,,###''''                  '''############,,,                           
         ,,##''                                '''############,,,,        ,,,,,,###''
      ,#''                                            '''#######################'''  
     '                                                          ''''####''''         
             ,#######,   #######,   ,#######,      ##                                
            ,#'     '#,  ##    ##  ,#'     '#,    #''#        ######   ,####,        
            ##       ##  ##   ,#'  ##            #'  '#       #        #'  '#        
            ##       ##  #######   ##           ,######,      #####,   #    #        
            '#,     ,#'  ##    ##  '#,     ,#' ,#      #,         ##   #,  ,#        
             '#######'   ##     ##  '#######'  #'      '#     #####' # '####'        



                  #######################################################
                  #                        -***-                        #
                  #          Department of theory and spectroscopy      #
                  #    Directorship and core code : Frank Neese         #
                  #        Max Planck Institute fuer Kohlenforschung    #
                  #                Kaiser Wilhelm Platz 1               #
                  #                 D-45470 Muelheim/Ruhr               #
                  #                      Germany                        #
                  #                                                     #
                  #                  All rights reserved                #
                  #                        -***-                        #
                  #######################################################


                         Program Version 5.0.1 -  RELEASE  -


 With contributions from (in alphabetic order):
   Daniel Aravena         : Magnetic Suceptibility
   Michael Atanasov       : Ab Initio Ligand Field Theory (pilot matlab implementation)
   Alexander A. Auer      : GIAO ZORA, VPT2 properties, NMR spectrum
   Ute Becker             : Parallelization
   Giovanni Bistoni       : ED, misc. LED, open-shell LED, HFLD
   Martin Brehm           : Molecular dynamics
   Dmytro Bykov           : SCF Hessian
   Vijay G. Chilkuri      : MRCI spin determinant printing, contributions to CSF-ICE
   Dipayan Datta          : RHF DLPNO-CCSD density
   Achintya Kumar Dutta   : EOM-CC, STEOM-CC
   Dmitry Ganyushin       : Spin-Orbit,Spin-Spin,Magnetic field MRCI
   Miquel Garcia          : C-PCM and meta-GGA Hessian, CC/C-PCM, Gaussian charge scheme
   Yang Guo               : DLPNO-NEVPT2, F12-NEVPT2, CIM, IAO-localization
   Andreas Hansen         : Spin unrestricted coupled pair/coupled cluster methods
   Benjamin Helmich-Paris : MC-RPA, TRAH-SCF, COSX integrals
   Lee Huntington         : MR-EOM, pCC
   Robert Izsak           : Overlap fitted RIJCOSX, COSX-SCS-MP3, EOM
   Marcus Kettner         : VPT2
   Christian Kollmar      : KDIIS, OOCD, Brueckner-CCSD(T), CCSD density, CASPT2, CASPT2-K
   Simone Kossmann        : Meta GGA functionals, TD-DFT gradient, OOMP2, MP2 Hessian
   Martin Krupicka        : Initial AUTO-CI
   Lucas Lang             : DCDCAS
   Marvin Lechner         : AUTO-CI (C++ implementation), FIC-MRCC
   Dagmar Lenk            : GEPOL surface, SMD
   Dimitrios Liakos       : Extrapolation schemes; Compound Job, initial MDCI parallelization
   Dimitrios Manganas     : Further ROCIS development; embedding schemes
   Dimitrios Pantazis     : SARC Basis sets
   Anastasios Papadopoulos: AUTO-CI, single reference methods and gradients
   Taras Petrenko         : DFT Hessian,TD-DFT gradient, ASA, ECA, R-Raman, ABS, FL, XAS/XES, NRVS
   Peter Pinski           : DLPNO-MP2, DLPNO-MP2 Gradient
   Christoph Reimann      : Effective Core Potentials
   Marius Retegan         : Local ZFS, SOC
   Christoph Riplinger    : Optimizer, TS searches, QM/MM, DLPNO-CCSD(T), (RO)-DLPNO pert. Triples
   Tobias Risthaus        : Range-separated hybrids, TD-DFT gradient, RPA, STAB
   Michael Roemelt        : Original ROCIS implementation
   Masaaki Saitow         : Open-shell DLPNO-CCSD energy and density
   Barbara Sandhoefer     : DKH picture change effects
   Avijit Sen             : IP-ROCIS
   Kantharuban Sivalingam : CASSCF convergence, NEVPT2, FIC-MRCI
   Bernardo de Souza      : ESD, SOC TD-DFT
   Georgi Stoychev        : AutoAux, RI-MP2 NMR, DLPNO-MP2 response
   Willem Van den Heuvel  : Paramagnetic NMR
   Boris Wezisla          : Elementary symmetry handling
   Frank Wennmohs         : Technical directorship


 We gratefully acknowledge several colleagues who have allowed us to
 interface, adapt or use parts of their codes:
   Stefan Grimme, W. Hujo, H. Kruse, P. Pracht,  : VdW corrections, initial TS optimization,
                  C. Bannwarth, S. Ehlert          DFT functionals, gCP, sTDA/sTD-DF
   Ed Valeev, F. Pavosevic, A. Kumar             : LibInt (2-el integral package), F12 methods
   Garnet Chan, S. Sharma, J. Yang, R. Olivares  : DMRG
   Ulf Ekstrom                                   : XCFun DFT Library
   Mihaly Kallay                                 : mrcc  (arbitrary order and MRCC methods)
   Jiri Pittner, Ondrej Demel                    : Mk-CCSD
   Frank Weinhold                                : gennbo (NPA and NBO analysis)
   Christopher J. Cramer and Donald G. Truhlar   : smd solvation model
   Lars Goerigk                                  : TD-DFT with DH, B97 family of functionals
   V. Asgeirsson, H. Jonsson                     : NEB implementation
   FAccTs GmbH                                   : IRC, NEB, NEB-TS, DLPNO-Multilevel, CI-OPT
                                                   MM, QMMM, 2- and 3-layer-ONIOM, Crystal-QMMM,
                                                   LR-CPCM, SF, NACMEs, symmetry and pop. for TD-DFT,
                                                   nearIR, NL-DFT gradient (VV10), updates on ESD,
                                                   ML-optimized integration grids
   S Lehtola, MJT Oliveira, MAL Marques          : LibXC Library
   Liviu Ungur et al                             : ANISO software


 Your calculation uses the libint2 library for the computation of 2-el integrals
 For citations please refer to: http://libint.valeyev.net

 Your ORCA version has been built with support for libXC version: 5.1.0
 For citations please refer to: https://tddft.org/programs/libxc/

 This ORCA versions uses:
   CBLAS   interface :  Fast vector & matrix operations
   LAPACKE interface :  Fast linear algebra routines
   SCALAPACK package :  Parallel linear algebra routines
   Shared memory     :  Shared parallel matrices
   BLAS/LAPACK       :  OpenBLAS 0.3.15  USE64BITINT DYNAMIC_ARCH NO_AFFINITY Haswell SINGLE_THREADED
        Core in use  :  Haswell
   Copyright (c) 2011-2014, The OpenBLAS Project


SCAN-COORDS

Reading of a custom basis requested
Basis file         : Pd_sapporo-qzp-2012-diffuse.basis
READING GTO-BASIS: PALLADIUM
Basis successfully read

================================================================================

----- Orbital basis set information -----
================================================================================
                                        WARNINGS
                       Please study these warnings very carefully!
================================================================================


INFO   : the flag for use of the SHARK integral package has been found!

================================================================================
                                       INPUT FILE
================================================================================
NAME = Pd_sapporo-qzp-2012-diffuse_pbe.inp
|  1> !uks pbe nori verytightscf soscf notrah
|  2> 
|  3> %pal
|  4>   nprocs 32
|  5> end
|  6> %coords
|  7>   charge 0
|  8>   mult 1
|  9>   units bohrs
| 10>   coords
| 11>     Pd 0.0 0.0 0.0
| 12>   end
| 13> end
| 14> %basis
| 15>   gtoname "Pd_sapporo-qzp-2012-diffuse.basis"
| 16>   delECP Pd
| 17> end
| 18> %rel
| 19>   method zora
| 20>   modelpot 1, 0, 0, 0
| 21>   c 137.035999084
| 22> endd                         ****END OF INPUT****
================================================================================

                       ****************************
                       * Single Point Calculation *
                       ****************************

---------------------------------
CARTESIAN COORDINATES (ANGSTROEM)
---------------------------------
  Pd     0.000000    0.000000    0.000000

----------------------------
CARTESIAN COORDINATES (A.U.)
----------------------------
  NO LB      ZA    FRAG     MASS         X           Y           Z
   0 Pd   46.0000    0   106.400    0.000000    0.000000    0.000000

--------------------------------
INTERNAL COORDINATES (ANGSTROEM)
--------------------------------
 Pd     0   0   0     0.000000000000     0.00000000     0.00000000

---------------------------
INTERNAL COORDINATES (A.U.)
---------------------------
 Pd     0   0   0     0.000000000000     0.00000000     0.00000000

---------------------
BASIS SET INFORMATION
---------------------
There are 1 groups of distinct atoms

 Group   1 Type Pd  : 22s16p13d4f3g2h contracted to 11s9p7d4f3g2h pattern {74221111111/721111111/7111111/1111/111/11}

Atom   0Pd   basis set group =>   1


           ************************************************************
           *        Program running with 32 parallel MPI-processes    *
           *              working on a common directory               *
           ************************************************************
------------------------------------------------------------------------------
                           ORCA GTO INTEGRAL CALCULATION
------------------------------------------------------------------------------
------------------------------------------------------------------------------
                   ___                                                        
                  /   \      - P O W E R E D   B Y -                         
                 /     \                                                     
                 |  |  |   _    _      __       _____    __    __             
                 |  |  |  | |  | |    /  \     |  _  \  |  |  /  |          
                  \  \/   | |  | |   /    \    | | | |  |  | /  /          
                 / \  \   | |__| |  /  /\  \   | |_| |  |  |/  /          
                |  |  |   |  __  | /  /__\  \  |    /   |      \           
                |  |  |   | |  | | |   __   |  |    \   |  |\   \          
                \     /   | |  | | |  |  |  |  | |\  \  |  | \   \       
                 \___/    |_|  |_| |__|  |__|  |_| \__\ |__|  \__/        
                                                                              
                      - O R C A' S   B I G   F R I E N D -                    
                                      &                                       
                       - I N T E G R A L  F E E D E R -                       
                                                                              
 v1 FN, 2020, v2 2021                                                         
------------------------------------------------------------------------------


Reading SHARK input file Pd_sapporo-qzp-2012-diffuse_pbe.SHARKINP.tmp ... ok
----------------------
SHARK INTEGRAL PACKAGE
----------------------

Number of atoms                             ...      1
Number of basis functions                   ...    150
Number of shells                            ...     36
Maximum angular momentum                    ...      5
Integral batch strategy                     ... SHARK/LIBINT Hybrid
RI-J (if used) integral strategy            ... SPLIT-RIJ (Revised 2003 algorithm where possible)
Printlevel                                  ...      1
Contraction scheme used                     ... SEGMENTED contraction
Coulomb Range Separation                    ... NOT USED
Exchange Range Separation                   ... NOT USED
Finite Nucleus Model                        ... NOT USED
Auxiliary Coulomb fitting basis             ... NOT available
Auxiliary J/K fitting basis                 ... NOT available
Auxiliary Correlation fitting basis         ... NOT available
Auxiliary 'external' fitting basis          ... NOT available
Integral threshold                          ...     1.000000e-12
Primitive cut-off                           ...     1.000000e-14
Primitive pair pre-selection threshold      ...     1.000000e-14

Calculating pre-screening integrals         ... done (  6.2 sec) Dimension = 36
Organizing shell pair data                  ... done (  0.9 sec)
Shell pair information
Total number of shell pairs                 ...       666
Shell pairs after pre-screening             ...       666
Total number of primitive shell pairs       ...      1902
Primitive shell pairs kept                  ...      1902
          la=0 lb=0:     66 shell pairs
          la=1 lb=0:     99 shell pairs
          la=1 lb=1:     45 shell pairs
          la=2 lb=0:     77 shell pairs
          la=2 lb=1:     63 shell pairs
          la=2 lb=2:     28 shell pairs
          la=3 lb=0:     44 shell pairs
          la=3 lb=1:     36 shell pairs
          la=3 lb=2:     28 shell pairs
          la=3 lb=3:     10 shell pairs
          la=4 lb=0:     33 shell pairs
          la=4 lb=1:     27 shell pairs
          la=4 lb=2:     21 shell pairs
          la=4 lb=3:     12 shell pairs
          la=4 lb=4:      6 shell pairs
          la=5 lb=0:     22 shell pairs
          la=5 lb=1:     18 shell pairs
          la=5 lb=2:     14 shell pairs
          la=5 lb=3:      8 shell pairs
          la=5 lb=4:      6 shell pairs
          la=5 lb=5:      3 shell pairs

Calculating one electron integrals          ... done (  1.0 sec)
Calculating Nuclear repulsion               ... done (  0.0 sec) ENN=      0.000000000000 Eh

SHARK setup successfully completed in  13.5 seconds

Maximum memory used throughout the entire GTOINT-calculation: 39.4 MB


           ************************************************************
           *        Program running with 32 parallel MPI-processes    *
           *              working on a common directory               *
           ************************************************************
------------------------------------------------------------------------------
                          ORCA RELATIVISTIC HAMILTONIAN
------------------------------------------------------------------------------

Relativistic Method            ... ZORA(MP)
Treatment of potential         ... Van Wuellen
Nucleus model                  ... Point Nucleus
Speed of light used            ... 137.03599908400000


            *************************************************
            *         ZERO ORDER REGULAR APPROXIMATION      *
            *                     ZORA(MP)                  *
            *            Programmed by FN according to      *
            *                   C. van Wuellen              *
            *       J. Chem. Phys. (1998) vol 109, 392-399  *
            *************************************************

Terms included in model potential: +V(e,N)
Basis function cutoff value   ... 1.000000e-12
Loading the fitted atomic densities  (DKH4)  ... done
Calculating the cutoffs                      ... done
Number of fit functions                      ... 26
Setting up the integration grid ... done

Maximum memory used throughout the entire REL-calculation: 5.6 MB


           ************************************************************
           *        Program running with 32 parallel MPI-processes    *
           *              working on a common directory               *
           ************************************************************
-------------------------------------------------------------------------------
                                 ORCA SCF
-------------------------------------------------------------------------------

------------
SCF SETTINGS
------------
Hamiltonian:
 Density Functional     Method          .... DFT(GTOs)
 Exchange Functional    Exchange        .... PBE
   PBE kappa parameter   XKappa         ....  0.804000
   PBE mue parameter    XMuePBE         ....  0.219520
 Correlation Functional Correlation     .... PBE
   PBE beta parameter  CBetaPBE         ....  0.066725
 LDA part of GGA corr.  LDAOpt          .... PW91-LDA
 Gradients option       PostSCFGGA      .... off
   Density functional embedding theory  .... OFF
   NL short-range parameter             ....  6.400000

Relativistic Settings:
 Scalar relativistic method             .... ZORA
 Speed of light used       Velit        ....       137.035999
Orbital energies will be scaled


General Settings:
 Integral files         IntName         .... Pd_sapporo-qzp-2012-diffuse_pbe
 Hartree-Fock type      HFTyp           .... UHF
 Total Charge           Charge          ....    0
 Multiplicity           Mult            ....    1
 Number of Electrons    NEL             ....   46
 Basis Dimension        Dim             ....  150
 Nuclear Repulsion      ENuc            ....      0.0000000000 Eh

Convergence Acceleration:
 DIIS                   CNVDIIS         .... on
   Start iteration      DIISMaxIt       ....    12
   Startup error        DIISStart       ....  0.200000
   # of expansion vecs  DIISMaxEq       ....     5
   Bias factor          DIISBfac        ....   1.050
   Max. coefficient     DIISMaxC        ....  10.000
 Trust-Rad. Augm. Hess. CNVTRAH         .... off
 SOSCF                  CNVSOSCF        .... on
   Start iteration      SOSCFMaxIt      ....   150
   Startup grad/error   SOSCFStart      ....  0.003300
 Level Shifting         CNVShift        .... on
   Level shift para.    LevelShift      ....    0.2500
   Turn off err/grad.   ShiftErr        ....    0.0010
 Zerner damping         CNVZerner       .... off
 Static damping         CNVDamp         .... on
   Fraction old density DampFac         ....    0.7000
   Max. Damping (<1)    DampMax         ....    0.9800
   Min. Damping (>=0)   DampMin         ....    0.0000
   Turn off err/grad.   DampErr         ....    0.1000
 Fernandez-Rico         CNVRico         .... off

SCF Procedure:
 Maximum # iterations   MaxIter         ....   125
 SCF integral mode      SCFMode         .... Direct
   Integral package                     .... SHARK and LIBINT hybrid scheme
 Reset frequency        DirectResetFreq ....    20
 Integral Threshold     Thresh          ....  1.000e-12 Eh
 Primitive CutOff       TCut            ....  1.000e-14 Eh

Convergence Tolerance:
 Convergence Check Mode ConvCheckMode   .... Total+1el-Energy
 Convergence forced     ConvForced      .... 0
 Energy Change          TolE            ....  1.000e-09 Eh
 1-El. energy change                    ....  1.000e-06 Eh
 Orbital Gradient       TolG            ....  2.000e-06
 Orbital Rotation angle TolX            ....  2.000e-06
 DIIS Error             TolErr          ....  1.000e-08


Diagonalization of the overlap matrix:
Smallest eigenvalue                        ... 1.138e-04
Time for diagonalization                   ...    0.018 sec
Threshold for overlap eigenvalues          ... 1.000e-08
Number of eigenvalues below threshold      ... 0
Time for construction of square roots      ...    0.140 sec
Total time needed                          ...    0.159 sec

Time for model grid setup =    0.133 sec

------------------------------
INITIAL GUESS: MODEL POTENTIAL
------------------------------
Loading ZORA relativistic densities                ... done
Calculating cut-offs                               ... done
Initializing the effective Hamiltonian             ... done
Setting up the integral package (SHARK)            ... done
Starting the Coulomb interaction                   ... done (   3.5 sec)
Reading the grid                                   ... done
Mapping shells                                     ... done
Starting the XC term evaluation                    ... done (   0.1 sec)
  promolecular density results
     # of electrons  =     45.999970582
     EX              =   -146.294866359
     EC              =     -2.406774569
     EX+EC           =   -148.701640927
Transforming the Hamiltonian                       ... done (   0.0 sec)
Diagonalizing the Hamiltonian                      ... done (   0.1 sec)
Back transforming the eigenvectors                 ... done (   0.0 sec)
Now organizing SCF variables                       ... done
                      ------------------
                      INITIAL GUESS DONE (   4.1 sec)
                      ------------------
-------------------
DFT GRID GENERATION
-------------------

General Integration Accuracy     IntAcc      ... 4.388
Radial Grid Type                 RadialGrid  ... OptM3 with GC (2021)
Angular Grid (max. ang.)         AngularGrid ... 4 (Lebedev-302)
Angular grid pruning method      GridPruning ... 4 (adaptive)
Weight generation scheme         WeightScheme... Becke
Basis function cutoff            BFCut       ... 1.0000e-12
Integration weight cutoff        WCut        ... 1.0000e-14
Angular grids for H and He will be reduced by one unit
Partially contracted basis set               ... off
Rotationally invariant grid construction     ... off

Total number of grid points                  ...    13826
Total number of batches                      ...      217
Average number of points per batch           ...       63
Average number of grid points per atom       ...    13826
Time for grid setup =    0.364 sec

--------------
SCF ITERATIONS
--------------
ITER       Energy         Delta-E        Max-DP      RMS-DP      [F,P]     Damp
               ***  Starting incremental Fock matrix formation  ***
  0  -5104.0304956996   0.000000000000 0.05735639  0.00090871  0.3723326 0.7000
  1  -5104.0542478307  -0.023752131019 0.03289822  0.00050971  0.2472697 0.7000
                               ***Turning on DIIS***
  2  -5104.0639871367  -0.009739305994 0.01942429  0.00029765  0.1660468 0.7000
  3  -5104.0710718659  -0.007084729232 0.01032540  0.00016649  0.1126934 0.7000
  4  -5104.0760352131  -0.004963347184 0.02480207  0.00039358  0.0785769 0.0000
  5  -5104.0873017899  -0.011266576811 0.00244483  0.00004514  0.0047497 0.0000
  6  -5104.0872827771   0.000019012791 0.00107037  0.00002082  0.0061075 0.0000
                      *** Initiating the SOSCF procedure ***
                           *** Shutting down DIIS ***
                      *** Re-Reading the Fockian *** 
                      *** Removing any level shift *** 
ITER      Energy       Delta-E        Grad      Rot      Max-DP    RMS-DP
  7  -5104.08734276  -0.0000599840  0.000203  0.000203  0.000123  0.000005
               *** Restarting incremental Fock matrix formation ***
  8  -5104.08734519  -0.0000024259  0.000053  0.000028  0.000040  0.000001
  9  -5104.08734521  -0.0000000184  0.000020  0.000002  0.000019  0.000000
 10  -5104.08734521  -0.0000000005  0.000003  0.000002  0.000001  0.000000
 11  -5104.08734521   0.0000000000  0.000002  0.000001  0.000002  0.000000
 12  -5104.08734521  -0.0000000001  0.000001  0.000000  0.000001  0.000000
                  ***Gradient check signals convergence***
              ***Rediagonalizing the Fockian in SOSCF/NRSCF***

               *****************************************************
               *                     SUCCESS                       *
               *           SCF CONVERGED AFTER  13 CYCLES          *
               *****************************************************


----------------
TOTAL SCF ENERGY
----------------

Total Energy       :        -5104.08734521 Eh         -138889.27766 eV

Components:
Nuclear Repulsion  :            0.00000000 Eh               0.00000 eV
Electronic Energy  :        -5104.08734521 Eh         -138889.27766 eV
One Electron Energy:        -7016.09374821 Eh         -190917.61695 eV
Two Electron Energy:         1912.00640301 Eh           52028.33930 eV

Virial components:
Potential Energy   :        -9963.54670454 Eh         -271121.88940 eV
Kinetic Energy     :         4859.45935934 Eh          132232.61174 eV
Virial Ratio       :            2.05034058


DFT components:
N(Alpha)           :       22.999999382514 electrons
N(Beta)            :       22.999999382513 electrons
N(Total)           :       45.999998765027 electrons
E(X)               :     -139.943536995169 Eh       
E(C)               :       -2.415691230616 Eh       
E(XC)              :     -142.359228225785 Eh       
DFET-embed. en.    :        0.000000000000 Eh       

---------------
SCF CONVERGENCE
---------------

  Last Energy change         ...   -5.4570e-12  Tolerance :   1.0000e-09
  Last MAX-Density change    ...    1.8429e-07  Tolerance :   1.0000e-08
  Last RMS-Density change    ...    4.1110e-09  Tolerance :   1.0000e-09
  Last Orbital Gradient      ...    3.0322e-07  Tolerance :   2.0000e-06
  Last Orbital Rotation      ...    1.3856e-07  Tolerance :   2.0000e-06

             **** THE GBW FILE WAS UPDATED (Pd_sapporo-qzp-2012-diffuse_pbe.gbw) ****
             **** DENSITY Pd_sapporo-qzp-2012-diffuse_pbe.scfp WAS UPDATED ****
             **** ENERGY FILE WAS UPDATED (Pd_sapporo-qzp-2012-diffuse_pbe.en.tmp) ****
----------------------
UHF SPIN CONTAMINATION
----------------------

Warning: in a DFT calculation there is little theoretical justification to 
         calculate <S**2> as in Hartree-Fock theory. We will do it anyways
         but you should keep in mind that the values have only limited relevance

Expectation value of <S**2>     :    -0.000000
Ideal value S*(S+1) for S=0.0   :     0.000000
Deviation                       :    -0.000000

             **** THE GBW FILE WAS UPDATED (Pd_sapporo-qzp-2012-diffuse_pbe.gbw) ****
             **** DENSITY Pd_sapporo-qzp-2012-diffuse_pbe.scfp WAS UPDATED ****
----------------
ORBITAL ENERGIES
----------------
                 SPIN UP ORBITALS
  NO   OCC          E(Eh)            E(eV) 
   0   1.0000    -912.877447    -24840.6582 
   1   1.0000    -130.108227     -3540.4249 
   2   1.0000    -117.812191     -3205.8327 
   3   1.0000    -117.812191     -3205.8327 
   4   1.0000    -117.812191     -3205.8327 
   5   1.0000     -23.268706      -633.1737 
   6   1.0000     -19.088055      -519.4124 
   7   1.0000     -19.088055      -519.4124 
   8   1.0000     -19.088055      -519.4124 
   9   1.0000     -12.015562      -326.9601 
  10   1.0000     -12.015562      -326.9601 
  11   1.0000     -12.015562      -326.9601 
  12   1.0000     -12.015562      -326.9601 
  13   1.0000     -12.015562      -326.9601 
  14   1.0000      -3.112133       -84.6854 
  15   1.0000      -1.893092       -51.5136 
  16   1.0000      -1.893092       -51.5136 
  17   1.0000      -1.893092       -51.5136 
  18   1.0000      -0.148659        -4.0452 
  19   1.0000      -0.148659        -4.0452 
  20   1.0000      -0.148659        -4.0452 
  21   1.0000      -0.148659        -4.0452 
  22   1.0000      -0.148659        -4.0452 
  23   0.0000      -0.120146        -3.2693 
  24   0.0000      -0.002634        -0.0717 
  25   0.0000      -0.002634        -0.0717 
  26   0.0000      -0.002634        -0.0717 
  27   0.0000       0.016299         0.4435 
  28   0.0000       0.069578         1.8933 
  29   0.0000       0.069578         1.8933 
  30   0.0000       0.069578         1.8933 
  31   0.0000       0.069578         1.8933 
  32   0.0000       0.069578         1.8933 
  33   0.0000       0.162216         4.4141 
  34   0.0000       0.232927         6.3383 
  35   0.0000       0.232927         6.3383 
  36   0.0000       0.232927         6.3383 
  37   0.0000       0.298496         8.1225 
  38   0.0000       0.298496         8.1225 
  39   0.0000       0.298496         8.1225 
  40   0.0000       0.298496         8.1225 
  41   0.0000       0.298496         8.1225 
  42   0.0000       0.478982        13.0338 
  43   0.0000       0.478982        13.0338 
  44   0.0000       0.478982        13.0338 
  45   0.0000       0.478982        13.0338 
  46   0.0000       0.478982        13.0338 
  47   0.0000       0.478982        13.0338 
  48   0.0000       0.478982        13.0338 
  49   0.0000       0.771570        20.9955 
  50   0.0000       0.972901        26.4740 
  51   0.0000       0.972901        26.4740 
  52   0.0000       0.972901        26.4740 
  53   0.0000       0.972901        26.4740 
  54   0.0000       0.972901        26.4740 
  55   0.0000       0.972901        26.4740 
  56   0.0000       0.972901        26.4740 
  57   0.0000       0.972901        26.4740 
  58   0.0000       0.972901        26.4740 
  59   0.0000       1.121506        30.5177 
  60   0.0000       1.121506        30.5177 
  61   0.0000       1.121506        30.5177 
  62   0.0000       1.121506        30.5177 
  63   0.0000       1.121506        30.5177 
  64   0.0000       1.136539        30.9268 
  65   0.0000       1.136539        30.9268 
  66   0.0000       1.136539        30.9268 
  67   0.0000       1.376979        37.4695 
  68   0.0000       1.376979        37.4695 
  69   0.0000       1.376979        37.4695 
  70   0.0000       1.376979        37.4695 
  71   0.0000       1.376979        37.4695 
  72   0.0000       1.376979        37.4695 
  73   0.0000       1.376979        37.4695 
  74   0.0000       2.689184        73.1764 
  75   0.0000       2.689184        73.1764 
  76   0.0000       2.689184        73.1764 
  77   0.0000       2.689184        73.1764 
  78   0.0000       2.689184        73.1764 
  79   0.0000       2.689184        73.1764 
  80   0.0000       2.689184        73.1764 
  81   0.0000       2.689184        73.1764 
  82   0.0000       2.689184        73.1764 
  83   0.0000       2.689184        73.1764 
  84   0.0000       2.689184        73.1764 
  85   0.0000       2.978836        81.0583 
  86   0.0000       2.978836        81.0583 
  87   0.0000       2.978836        81.0583 
  88   0.0000       2.978836        81.0583 
  89   0.0000       2.978836        81.0583 
  90   0.0000       2.978836        81.0583 
  91   0.0000       2.978836        81.0583 
  92   0.0000       2.978836        81.0583 
  93   0.0000       2.978836        81.0583 
  94   0.0000       3.106097        84.5212 
  95   0.0000       3.205518        87.2266 
  96   0.0000       3.205518        87.2266 
  97   0.0000       3.205518        87.2266 
  98   0.0000       3.205518        87.2266 
  99   0.0000       3.205518        87.2266 
 100   0.0000       3.205518        87.2266 
 101   0.0000       3.205518        87.2266 
 102   0.0000       3.967117       107.9507 
 103   0.0000       3.967117       107.9507 
 104   0.0000       3.967117       107.9507 
 105   0.0000       3.967117       107.9507 
 106   0.0000       3.967117       107.9507 
 107   0.0000       4.441240       120.8523 
 108   0.0000       4.441240       120.8523 
 109   0.0000       4.441240       120.8523 
 110   0.0000       7.549743       205.4390 
 111   0.0000       7.549743       205.4390 
 112   0.0000       7.549743       205.4390 
 113   0.0000       7.549743       205.4390 
 114   0.0000       7.549743       205.4390 
 115   0.0000       7.549743       205.4390 
 116   0.0000       7.549743       205.4390 
 117   0.0000       7.549743       205.4390 
 118   0.0000       7.549743       205.4390 
 119   0.0000       7.991754       217.4667 
 120   0.0000       7.991754       217.4667 
 121   0.0000       7.991754       217.4667 
 122   0.0000       7.991754       217.4667 
 123   0.0000       7.991754       217.4667 
 124   0.0000       7.991754       217.4667 
 125   0.0000       7.991754       217.4667 
 126   0.0000       7.991754       217.4667 
 127   0.0000       7.991754       217.4667 
 128   0.0000       7.991754       217.4667 
 129   0.0000       7.991754       217.4667 
 130   0.0000       8.942710       243.3435 
 131   0.0000       8.942710       243.3435 
 132   0.0000       8.942710       243.3435 
 133   0.0000       8.942710       243.3435 
 134   0.0000       8.942710       243.3435 
 135   0.0000       8.942710       243.3435 
 136   0.0000       8.942710       243.3435 
 137   0.0000      10.612551       288.7822 
 138   0.0000      13.994188       380.8012 
 139   0.0000      13.994188       380.8012 
 140   0.0000      13.994188       380.8012 
 141   0.0000      13.994188       380.8012 
 142   0.0000      13.994188       380.8012 
 143   0.0000      14.678360       399.4185 
 144   0.0000      14.678360       399.4185 
 145   0.0000      14.678360       399.4185 
 146   0.0000      20.393835       554.9445 
 147   0.0000      47.766808      1299.8009 
 148   0.0000      47.766808      1299.8009 
 149   0.0000      47.766808      1299.8009 

                 SPIN DOWN ORBITALS
  NO   OCC          E(Eh)            E(eV) 
   0   1.0000    -912.877447    -24840.6582 
   1   1.0000    -130.108227     -3540.4249 
   2   1.0000    -117.812191     -3205.8327 
   3   1.0000    -117.812191     -3205.8327 
   4   1.0000    -117.812191     -3205.8327 
   5   1.0000     -23.268706      -633.1737 
   6   1.0000     -19.088055      -519.4124 
   7   1.0000     -19.088055      -519.4124 
   8   1.0000     -19.088055      -519.4124 
   9   1.0000     -12.015562      -326.9601 
  10   1.0000     -12.015562      -326.9601 
  11   1.0000     -12.015562      -326.9601 
  12   1.0000     -12.015562      -326.9601 
  13   1.0000     -12.015562      -326.9601 
  14   1.0000      -3.112133       -84.6854 
  15   1.0000      -1.893092       -51.5136 
  16   1.0000      -1.893092       -51.5136 
  17   1.0000      -1.893092       -51.5136 
  18   1.0000      -0.148659        -4.0452 
  19   1.0000      -0.148659        -4.0452 
  20   1.0000      -0.148659        -4.0452 
  21   1.0000      -0.148659        -4.0452 
  22   1.0000      -0.148659        -4.0452 
  23   0.0000      -0.120146        -3.2693 
  24   0.0000      -0.002634        -0.0717 
  25   0.0000      -0.002634        -0.0717 
  26   0.0000      -0.002634        -0.0717 
  27   0.0000       0.016299         0.4435 
  28   0.0000       0.069578         1.8933 
  29   0.0000       0.069578         1.8933 
  30   0.0000       0.069578         1.8933 
  31   0.0000       0.069578         1.8933 
  32   0.0000       0.069578         1.8933 
  33   0.0000       0.162216         4.4141 
  34   0.0000       0.232927         6.3383 
  35   0.0000       0.232927         6.3383 
  36   0.0000       0.232927         6.3383 
  37   0.0000       0.298496         8.1225 
  38   0.0000       0.298496         8.1225 
  39   0.0000       0.298496         8.1225 
  40   0.0000       0.298496         8.1225 
  41   0.0000       0.298496         8.1225 
  42   0.0000       0.478982        13.0338 
  43   0.0000       0.478982        13.0338 
  44   0.0000       0.478982        13.0338 
  45   0.0000       0.478982        13.0338 
  46   0.0000       0.478982        13.0338 
  47   0.0000       0.478982        13.0338 
  48   0.0000       0.478982        13.0338 
  49   0.0000       0.771570        20.9955 
  50   0.0000       0.972901        26.4740 
  51   0.0000       0.972901        26.4740 
  52   0.0000       0.972901        26.4740 
  53   0.0000       0.972901        26.4740 
  54   0.0000       0.972901        26.4740 
  55   0.0000       0.972901        26.4740 
  56   0.0000       0.972901        26.4740 
  57   0.0000       0.972901        26.4740 
  58   0.0000       0.972901        26.4740 
  59   0.0000       1.121506        30.5177 
  60   0.0000       1.121506        30.5177 
  61   0.0000       1.121506        30.5177 
  62   0.0000       1.121506        30.5177 
  63   0.0000       1.121506        30.5177 
  64   0.0000       1.136539        30.9268 
  65   0.0000       1.136539        30.9268 
  66   0.0000       1.136539        30.9268 
  67   0.0000       1.376979        37.4695 
  68   0.0000       1.376979        37.4695 
  69   0.0000       1.376979        37.4695 
  70   0.0000       1.376979        37.4695 
  71   0.0000       1.376979        37.4695 
  72   0.0000       1.376979        37.4695 
  73   0.0000       1.376979        37.4695 
  74   0.0000       2.689184        73.1764 
  75   0.0000       2.689184        73.1764 
  76   0.0000       2.689184        73.1764 
  77   0.0000       2.689184        73.1764 
  78   0.0000       2.689184        73.1764 
  79   0.0000       2.689184        73.1764 
  80   0.0000       2.689184        73.1764 
  81   0.0000       2.689184        73.1764 
  82   0.0000       2.689184        73.1764 
  83   0.0000       2.689184        73.1764 
  84   0.0000       2.689184        73.1764 
  85   0.0000       2.978836        81.0583 
  86   0.0000       2.978836        81.0583 
  87   0.0000       2.978836        81.0583 
  88   0.0000       2.978836        81.0583 
  89   0.0000       2.978836        81.0583 
  90   0.0000       2.978836        81.0583 
  91   0.0000       2.978836        81.0583 
  92   0.0000       2.978836        81.0583 
  93   0.0000       2.978836        81.0583 
  94   0.0000       3.106097        84.5212 
  95   0.0000       3.205518        87.2266 
  96   0.0000       3.205518        87.2266 
  97   0.0000       3.205518        87.2266 
  98   0.0000       3.205518        87.2266 
  99   0.0000       3.205518        87.2266 
 100   0.0000       3.205518        87.2266 
 101   0.0000       3.205518        87.2266 
 102   0.0000       3.967117       107.9507 
 103   0.0000       3.967117       107.9507 
 104   0.0000       3.967117       107.9507 
 105   0.0000       3.967117       107.9507 
 106   0.0000       3.967117       107.9507 
 107   0.0000       4.441240       120.8523 
 108   0.0000       4.441240       120.8523 
 109   0.0000       4.441240       120.8523 
 110   0.0000       7.549743       205.4390 
 111   0.0000       7.549743       205.4390 
 112   0.0000       7.549743       205.4390 
 113   0.0000       7.549743       205.4390 
 114   0.0000       7.549743       205.4390 
 115   0.0000       7.549743       205.4390 
 116   0.0000       7.549743       205.4390 
 117   0.0000       7.549743       205.4390 
 118   0.0000       7.549743       205.4390 
 119   0.0000       7.991754       217.4667 
 120   0.0000       7.991754       217.4667 
 121   0.0000       7.991754       217.4667 
 122   0.0000       7.991754       217.4667 
 123   0.0000       7.991754       217.4667 
 124   0.0000       7.991754       217.4667 
 125   0.0000       7.991754       217.4667 
 126   0.0000       7.991754       217.4667 
 127   0.0000       7.991754       217.4667 
 128   0.0000       7.991754       217.4667 
 129   0.0000       7.991754       217.4667 
 130   0.0000       8.942710       243.3435 
 131   0.0000       8.942710       243.3435 
 132   0.0000       8.942710       243.3435 
 133   0.0000       8.942710       243.3435 
 134   0.0000       8.942710       243.3435 
 135   0.0000       8.942710       243.3435 
 136   0.0000       8.942710       243.3435 
 137   0.0000      10.612551       288.7822 
 138   0.0000      13.994188       380.8012 
 139   0.0000      13.994188       380.8012 
 140   0.0000      13.994188       380.8012 
 141   0.0000      13.994188       380.8012 
 142   0.0000      13.994188       380.8012 
 143   0.0000      14.678360       399.4185 
 144   0.0000      14.678360       399.4185 
 145   0.0000      14.678360       399.4185 
 146   0.0000      20.393835       554.9445 
 147   0.0000      47.766808      1299.8009 
 148   0.0000      47.766808      1299.8009 
 149   0.0000      47.766808      1299.8009 

                    ********************************
                    * MULLIKEN POPULATION ANALYSIS *
                    ********************************

--------------------------------------------
MULLIKEN ATOMIC CHARGES AND SPIN POPULATIONS
--------------------------------------------
   0 Pd:    0.000000    0.000000
Sum of atomic charges         :    0.0000000
Sum of atomic spin populations:    0.0000000

-----------------------------------------------------
MULLIKEN REDUCED ORBITAL CHARGES AND SPIN POPULATIONS
-----------------------------------------------------
CHARGE
  0 Pds       :     8.000000  s :     8.000000
      pz      :     6.000000  p :    18.000000
      px      :     6.000000
      py      :     6.000000
      dz2     :     4.000000  d :    20.000000
      dxz     :     4.000000
      dyz     :     4.000000
      dx2y2   :     4.000000
      dxy     :     4.000000
      f0      :     0.000000  f :     0.000000
      f+1     :     0.000000
      f-1     :     0.000000
      f+2     :     0.000000
      f-2     :     0.000000
      f+3     :     0.000000
      f-3     :     0.000000
      g0      :     0.000000  g :     0.000000
      g+1     :     0.000000
      g-1     :     0.000000
      g+2     :     0.000000
      g-2     :     0.000000
      g+3     :     0.000000
      g-3     :     0.000000
      g+4     :     0.000000
      g-4     :     0.000000
      h0      :     0.000000  h :     0.000000
      h+1     :     0.000000
      h-1     :     0.000000
      h+2     :     0.000000
      h-2     :     0.000000
      h+3     :     0.000000
      h-3     :     0.000000
      h+4     :     0.000000
      h-4     :     0.000000
      h+5     :     0.000000
      h-5     :     0.000000

SPIN
  0 Pds       :    -0.000000  s :    -0.000000
      pz      :     0.000000  p :     0.000000
      px      :     0.000000
      py      :     0.000000
      dz2     :     0.000000  d :    -0.000000
      dxz     :    -0.000000
      dyz     :     0.000000
      dx2y2   :    -0.000000
      dxy     :     0.000000
      f0      :    -0.000000  f :    -0.000000
      f+1     :     0.000000
      f-1     :    -0.000000
      f+2     :     0.000000
      f-2     :     0.000000
      f+3     :    -0.000000
      f-3     :    -0.000000
      g0      :    -0.000000  g :    -0.000000
      g+1     :    -0.000000
      g-1     :    -0.000000
      g+2     :    -0.000000
      g-2     :    -0.000000
      g+3     :    -0.000000
      g-3     :     0.000000
      g+4     :     0.000000
      g-4     :    -0.000000
      h0      :    -0.000000  h :     0.000000
      h+1     :    -0.000000
      h-1     :    -0.000000
      h+2     :    -0.000000
      h-2     :    -0.000000
      h+3     :    -0.000000
      h-3     :    -0.000000
      h+4     :     0.000000
      h-4     :     0.000000
      h+5     :     0.000000
      h-5     :     0.000000


                     *******************************
                     * LOEWDIN POPULATION ANALYSIS *
                     *******************************

-------------------------------------------
LOEWDIN ATOMIC CHARGES AND SPIN POPULATIONS
-------------------------------------------
   0 Pd:    0.000000    0.000000

----------------------------------------------------
LOEWDIN REDUCED ORBITAL CHARGES AND SPIN POPULATIONS
----------------------------------------------------
CHARGE
  0 Pds       :     8.000000  s :     8.000000
      pz      :     6.000000  p :    18.000000
      px      :     6.000000
      py      :     6.000000
      dz2     :     4.000000  d :    20.000000
      dxz     :     4.000000
      dyz     :     4.000000
      dx2y2   :     4.000000
      dxy     :     4.000000
      f0      :     0.000000  f :     0.000000
      f+1     :     0.000000
      f-1     :     0.000000
      f+2     :     0.000000
      f-2     :     0.000000
      f+3     :     0.000000
      f-3     :     0.000000
      g0      :     0.000000  g :     0.000000
      g+1     :     0.000000
      g-1     :     0.000000
      g+2     :     0.000000
      g-2     :     0.000000
      g+3     :     0.000000
      g-3     :     0.000000
      g+4     :     0.000000
      g-4     :     0.000000
      h0      :     0.000000  h :     0.000000
      h+1     :     0.000000
      h-1     :     0.000000
      h+2     :     0.000000
      h-2     :     0.000000
      h+3     :     0.000000
      h-3     :     0.000000
      h+4     :     0.000000
      h-4     :     0.000000
      h+5     :     0.000000
      h-5     :     0.000000

SPIN
  0 Pds       :    -0.000000  s :    -0.000000
      pz      :     0.000000  p :     0.000000
      px      :     0.000000
      py      :     0.000000
      dz2     :     0.000000  d :    -0.000000
      dxz     :    -0.000000
      dyz     :     0.000000
      dx2y2   :    -0.000000
      dxy     :     0.000000
      f0      :    -0.000000  f :    -0.000000
      f+1     :     0.000000
      f-1     :    -0.000000
      f+2     :     0.000000
      f-2     :     0.000000
      f+3     :    -0.000000
      f-3     :    -0.000000
      g0      :    -0.000000  g :    -0.000000
      g+1     :    -0.000000
      g-1     :    -0.000000
      g+2     :    -0.000000
      g-2     :    -0.000000
      g+3     :    -0.000000
      g-3     :     0.000000
      g+4     :     0.000000
      g-4     :    -0.000000
      h0      :    -0.000000  h :     0.000000
      h+1     :    -0.000000
      h-1     :    -0.000000
      h+2     :    -0.000000
      h-2     :    -0.000000
      h+3     :    -0.000000
      h-3     :    -0.000000
      h+4     :     0.000000
      h-4     :     0.000000
      h+5     :     0.000000
      h-5     :     0.000000


                      *****************************
                      * MAYER POPULATION ANALYSIS *
                      *****************************

  NA   - Mulliken gross atomic population
  ZA   - Total nuclear charge
  QA   - Mulliken gross atomic charge
  VA   - Mayer's total valence
  BVA  - Mayer's bonded valence
  FA   - Mayer's free valence

  ATOM       NA         ZA         QA         VA         BVA        FA
  0 Pd    46.0000    46.0000     0.0000     0.0000     0.0000     0.0000

  Mayer bond orders larger than 0.100000


-------
TIMINGS
-------

Total SCF time: 0 days 0 hours 2 min 10 sec 

Total time                  ....     130.970 sec
Sum of individual times     ....     102.099 sec  ( 78.0%)

Fock matrix formation       ....      95.571 sec  ( 73.0%)
  XC integration            ....      11.707 sec  ( 12.2% of F)
    Basis function eval.    ....       0.026 sec  (  0.2% of XC)
    Density eval.           ....       0.075 sec  (  0.6% of XC)
    XC-Functional eval.     ....       0.029 sec  (  0.2% of XC)
    XC-Potential eval.      ....       0.056 sec  (  0.5% of XC)
Diagonalization             ....       0.993 sec  (  0.8%)
Density matrix formation    ....       0.011 sec  (  0.0%)
Population analysis         ....       0.242 sec  (  0.2%)
Initial guess               ....       3.959 sec  (  3.0%)
Orbital Transformation      ....       0.000 sec  (  0.0%)
Orbital Orthonormalization  ....       0.000 sec  (  0.0%)
DIIS solution               ....       0.622 sec  (  0.5%)
SOSCF solution              ....       0.204 sec  (  0.2%)
Grid generation             ....       0.497 sec  (  0.4%)

Maximum memory used throughout the entire SCF-calculation: 232.7 MB

-------------------------   --------------------
FINAL SINGLE POINT ENERGY     -5104.087345205919
-------------------------   --------------------


                            ***************************************
                            *     ORCA property calculations      *
                            ***************************************

                                    ---------------------
                                    Active property flags
                                    ---------------------
   (+) Dipole Moment


------------------------------------------------------------------------------
                       ORCA ELECTRIC PROPERTIES CALCULATION
------------------------------------------------------------------------------

Dipole Moment Calculation                       ... on
Quadrupole Moment Calculation                   ... off
Polarizability Calculation                      ... off
GBWName                                         ... Pd_sapporo-qzp-2012-diffuse_pbe.gbw
Electron density                                ... Pd_sapporo-qzp-2012-diffuse_pbe.scfp
The origin for moment calculation is the CENTER OF MASS  = ( 0.000000,  0.000000  0.000000)

-------------
DIPOLE MOMENT
-------------
                                X             Y             Z
Electronic contribution:      0.00000       0.00000       0.00000
Nuclear contribution   :      0.00000       0.00000       0.00000
                        -----------------------------------------
Total Dipole Moment    :      0.00000       0.00000       0.00000
                        -----------------------------------------
Magnitude (a.u.)       :      0.00000
Magnitude (Debye)      :      0.00000



--------------------
Rotational spectrum 
--------------------
 
Rotational constants in cm-1:     0.000000     0.000000     0.000000 
Rotational constants in MHz :     0.000000     0.000000     0.000000 

 Dipole components along the rotational axes: 
x,y,z [a.u.] :     0.000000     0.000000     0.000000 
x,y,z [Debye]:     0.000000     0.000000     0.000000 

 

Timings for individual modules:

Sum of individual times         ...      219.833 sec (=   3.664 min)
GTO integral calculation        ...       77.951 sec (=   1.299 min)  35.5 %
Relativistic integrals          ...        8.224 sec (=   0.137 min)   3.7 %
SCF iterations                  ...      133.657 sec (=   2.228 min)  60.8 %
                             ****ORCA TERMINATED NORMALLY****
TOTAL RUN TIME: 0 days 0 hours 3 minutes 47 seconds 976 msec
