
                                 *****************
                                 * O   R   C   A *
                                 *****************

                                            #,                                       
                                            ###                                      
                                            ####                                     
                                            #####                                    
                                            ######                                   
                                           ########,                                 
                                     ,,################,,,,,                         
                               ,,#################################,,                 
                          ,,##########################################,,             
                       ,#########################################, ''#####,          
                    ,#############################################,,   '####,        
                  ,##################################################,,,,####,       
                ,###########''''           ''''###############################       
              ,#####''   ,,,,##########,,,,          '''####'''          '####       
            ,##' ,,,,###########################,,,                        '##       
           ' ,,###''''                  '''############,,,                           
         ,,##''                                '''############,,,,        ,,,,,,###''
      ,#''                                            '''#######################'''  
     '                                                          ''''####''''         
             ,#######,   #######,   ,#######,      ##                                
            ,#'     '#,  ##    ##  ,#'     '#,    #''#        ######   ,####,        
            ##       ##  ##   ,#'  ##            #'  '#       #        #'  '#        
            ##       ##  #######   ##           ,######,      #####,   #    #        
            '#,     ,#'  ##    ##  '#,     ,#' ,#      #,         ##   #,  ,#        
             '#######'   ##     ##  '#######'  #'      '#     #####' # '####'        



                  #######################################################
                  #                        -***-                        #
                  #          Department of theory and spectroscopy      #
                  #    Directorship and core code : Frank Neese         #
                  #        Max Planck Institute fuer Kohlenforschung    #
                  #                Kaiser Wilhelm Platz 1               #
                  #                 D-45470 Muelheim/Ruhr               #
                  #                      Germany                        #
                  #                                                     #
                  #                  All rights reserved                #
                  #                        -***-                        #
                  #######################################################


                         Program Version 5.0.1 -  RELEASE  -


 With contributions from (in alphabetic order):
   Daniel Aravena         : Magnetic Suceptibility
   Michael Atanasov       : Ab Initio Ligand Field Theory (pilot matlab implementation)
   Alexander A. Auer      : GIAO ZORA, VPT2 properties, NMR spectrum
   Ute Becker             : Parallelization
   Giovanni Bistoni       : ED, misc. LED, open-shell LED, HFLD
   Martin Brehm           : Molecular dynamics
   Dmytro Bykov           : SCF Hessian
   Vijay G. Chilkuri      : MRCI spin determinant printing, contributions to CSF-ICE
   Dipayan Datta          : RHF DLPNO-CCSD density
   Achintya Kumar Dutta   : EOM-CC, STEOM-CC
   Dmitry Ganyushin       : Spin-Orbit,Spin-Spin,Magnetic field MRCI
   Miquel Garcia          : C-PCM and meta-GGA Hessian, CC/C-PCM, Gaussian charge scheme
   Yang Guo               : DLPNO-NEVPT2, F12-NEVPT2, CIM, IAO-localization
   Andreas Hansen         : Spin unrestricted coupled pair/coupled cluster methods
   Benjamin Helmich-Paris : MC-RPA, TRAH-SCF, COSX integrals
   Lee Huntington         : MR-EOM, pCC
   Robert Izsak           : Overlap fitted RIJCOSX, COSX-SCS-MP3, EOM
   Marcus Kettner         : VPT2
   Christian Kollmar      : KDIIS, OOCD, Brueckner-CCSD(T), CCSD density, CASPT2, CASPT2-K
   Simone Kossmann        : Meta GGA functionals, TD-DFT gradient, OOMP2, MP2 Hessian
   Martin Krupicka        : Initial AUTO-CI
   Lucas Lang             : DCDCAS
   Marvin Lechner         : AUTO-CI (C++ implementation), FIC-MRCC
   Dagmar Lenk            : GEPOL surface, SMD
   Dimitrios Liakos       : Extrapolation schemes; Compound Job, initial MDCI parallelization
   Dimitrios Manganas     : Further ROCIS development; embedding schemes
   Dimitrios Pantazis     : SARC Basis sets
   Anastasios Papadopoulos: AUTO-CI, single reference methods and gradients
   Taras Petrenko         : DFT Hessian,TD-DFT gradient, ASA, ECA, R-Raman, ABS, FL, XAS/XES, NRVS
   Peter Pinski           : DLPNO-MP2, DLPNO-MP2 Gradient
   Christoph Reimann      : Effective Core Potentials
   Marius Retegan         : Local ZFS, SOC
   Christoph Riplinger    : Optimizer, TS searches, QM/MM, DLPNO-CCSD(T), (RO)-DLPNO pert. Triples
   Tobias Risthaus        : Range-separated hybrids, TD-DFT gradient, RPA, STAB
   Michael Roemelt        : Original ROCIS implementation
   Masaaki Saitow         : Open-shell DLPNO-CCSD energy and density
   Barbara Sandhoefer     : DKH picture change effects
   Avijit Sen             : IP-ROCIS
   Kantharuban Sivalingam : CASSCF convergence, NEVPT2, FIC-MRCI
   Bernardo de Souza      : ESD, SOC TD-DFT
   Georgi Stoychev        : AutoAux, RI-MP2 NMR, DLPNO-MP2 response
   Willem Van den Heuvel  : Paramagnetic NMR
   Boris Wezisla          : Elementary symmetry handling
   Frank Wennmohs         : Technical directorship


 We gratefully acknowledge several colleagues who have allowed us to
 interface, adapt or use parts of their codes:
   Stefan Grimme, W. Hujo, H. Kruse, P. Pracht,  : VdW corrections, initial TS optimization,
                  C. Bannwarth, S. Ehlert          DFT functionals, gCP, sTDA/sTD-DF
   Ed Valeev, F. Pavosevic, A. Kumar             : LibInt (2-el integral package), F12 methods
   Garnet Chan, S. Sharma, J. Yang, R. Olivares  : DMRG
   Ulf Ekstrom                                   : XCFun DFT Library
   Mihaly Kallay                                 : mrcc  (arbitrary order and MRCC methods)
   Jiri Pittner, Ondrej Demel                    : Mk-CCSD
   Frank Weinhold                                : gennbo (NPA and NBO analysis)
   Christopher J. Cramer and Donald G. Truhlar   : smd solvation model
   Lars Goerigk                                  : TD-DFT with DH, B97 family of functionals
   V. Asgeirsson, H. Jonsson                     : NEB implementation
   FAccTs GmbH                                   : IRC, NEB, NEB-TS, DLPNO-Multilevel, CI-OPT
                                                   MM, QMMM, 2- and 3-layer-ONIOM, Crystal-QMMM,
                                                   LR-CPCM, SF, NACMEs, symmetry and pop. for TD-DFT,
                                                   nearIR, NL-DFT gradient (VV10), updates on ESD,
                                                   ML-optimized integration grids
   S Lehtola, MJT Oliveira, MAL Marques          : LibXC Library
   Liviu Ungur et al                             : ANISO software


 Your calculation uses the libint2 library for the computation of 2-el integrals
 For citations please refer to: http://libint.valeyev.net

 Your ORCA version has been built with support for libXC version: 5.1.0
 For citations please refer to: https://tddft.org/programs/libxc/

 This ORCA versions uses:
   CBLAS   interface :  Fast vector & matrix operations
   LAPACKE interface :  Fast linear algebra routines
   SCALAPACK package :  Parallel linear algebra routines
   Shared memory     :  Shared parallel matrices
   BLAS/LAPACK       :  OpenBLAS 0.3.15  USE64BITINT DYNAMIC_ARCH NO_AFFINITY Haswell SINGLE_THREADED
        Core in use  :  Haswell
   Copyright (c) 2011-2014, The OpenBLAS Project


SCAN-COORDS

Reading of a custom basis requested
Basis file         : Pd_sarc-zora-tzvpp.basis
READING GTO-BASIS: PALLADIUM
Basis successfully read

================================================================================

----- Orbital basis set information -----
================================================================================
                                        WARNINGS
                       Please study these warnings very carefully!
================================================================================


INFO   : the flag for use of the SHARK integral package has been found!

================================================================================
                                       INPUT FILE
================================================================================
NAME = Pd_sarc-zora-tzvpp_pbe.inp
|  1> !uks pbe nori verytightscf soscf notrah
|  2> 
|  3> %pal
|  4>   nprocs 32
|  5> end
|  6> %coords
|  7>   charge 0
|  8>   mult 1
|  9>   units bohrs
| 10>   coords
| 11>     Pd 0.0 0.0 0.0
| 12>   end
| 13> end
| 14> %basis
| 15>   gtoname "Pd_sarc-zora-tzvpp.basis"
| 16>   delECP Pd
| 17> end
| 18> %rel
| 19>   method zora
| 20>   modelpot 1, 0, 0, 0
| 21>   c 137.035999084
| 22> endd                         ****END OF INPUT****
================================================================================

                       ****************************
                       * Single Point Calculation *
                       ****************************

---------------------------------
CARTESIAN COORDINATES (ANGSTROEM)
---------------------------------
  Pd     0.000000    0.000000    0.000000

----------------------------
CARTESIAN COORDINATES (A.U.)
----------------------------
  NO LB      ZA    FRAG     MASS         X           Y           Z
   0 Pd   46.0000    0   106.400    0.000000    0.000000    0.000000

--------------------------------
INTERNAL COORDINATES (ANGSTROEM)
--------------------------------
 Pd     0   0   0     0.000000000000     0.00000000     0.00000000

---------------------------
INTERNAL COORDINATES (A.U.)
---------------------------
 Pd     0   0   0     0.000000000000     0.00000000     0.00000000

---------------------
BASIS SET INFORMATION
---------------------
There are 1 groups of distinct atoms

 Group   1 Type Pd  : 22s15p10d2f1g contracted to 15s10p6d2f1g pattern {811111111111111/6111111111/511111/11/1}

Atom   0Pd   basis set group =>   1


           ************************************************************
           *        Program running with 32 parallel MPI-processes    *
           *              working on a common directory               *
           ************************************************************
------------------------------------------------------------------------------
                           ORCA GTO INTEGRAL CALCULATION
------------------------------------------------------------------------------
------------------------------------------------------------------------------
                   ___                                                        
                  /   \      - P O W E R E D   B Y -                         
                 /     \                                                     
                 |  |  |   _    _      __       _____    __    __             
                 |  |  |  | |  | |    /  \     |  _  \  |  |  /  |          
                  \  \/   | |  | |   /    \    | | | |  |  | /  /          
                 / \  \   | |__| |  /  /\  \   | |_| |  |  |/  /          
                |  |  |   |  __  | /  /__\  \  |    /   |      \           
                |  |  |   | |  | | |   __   |  |    \   |  |\   \          
                \     /   | |  | | |  |  |  |  | |\  \  |  | \   \       
                 \___/    |_|  |_| |__|  |__|  |_| \__\ |__|  \__/        
                                                                              
                      - O R C A' S   B I G   F R I E N D -                    
                                      &                                       
                       - I N T E G R A L  F E E D E R -                       
                                                                              
 v1 FN, 2020, v2 2021                                                         
------------------------------------------------------------------------------


Reading SHARK input file Pd_sarc-zora-tzvpp_pbe.SHARKINP.tmp ... ok
----------------------
SHARK INTEGRAL PACKAGE
----------------------

Number of atoms                             ...      1
Number of basis functions                   ...     98
Number of shells                            ...     34
Maximum angular momentum                    ...      4
Integral batch strategy                     ... SHARK/LIBINT Hybrid
RI-J (if used) integral strategy            ... SPLIT-RIJ (Revised 2003 algorithm where possible)
Printlevel                                  ...      1
Contraction scheme used                     ... SEGMENTED contraction
Coulomb Range Separation                    ... NOT USED
Exchange Range Separation                   ... NOT USED
Finite Nucleus Model                        ... NOT USED
Auxiliary Coulomb fitting basis             ... NOT available
Auxiliary J/K fitting basis                 ... NOT available
Auxiliary Correlation fitting basis         ... NOT available
Auxiliary 'external' fitting basis          ... NOT available
Integral threshold                          ...     1.000000e-12
Primitive cut-off                           ...     1.000000e-14
Primitive pair pre-selection threshold      ...     1.000000e-14

Calculating pre-screening integrals         ... done ( 18.2 sec) Dimension = 34
Organizing shell pair data                  ... done (  3.9 sec)
Shell pair information
Total number of shell pairs                 ...       595
Shell pairs after pre-screening             ...       595
Total number of primitive shell pairs       ...      1328
Primitive shell pairs kept                  ...      1328
          la=0 lb=0:    120 shell pairs
          la=1 lb=0:    150 shell pairs
          la=1 lb=1:     55 shell pairs
          la=2 lb=0:     90 shell pairs
          la=2 lb=1:     60 shell pairs
          la=2 lb=2:     21 shell pairs
          la=3 lb=0:     30 shell pairs
          la=3 lb=1:     20 shell pairs
          la=3 lb=2:     12 shell pairs
          la=3 lb=3:      3 shell pairs
          la=4 lb=0:     15 shell pairs
          la=4 lb=1:     10 shell pairs
          la=4 lb=2:      6 shell pairs
          la=4 lb=3:      2 shell pairs
          la=4 lb=4:      1 shell pairs

Calculating one electron integrals          ... done (  4.8 sec)
Calculating Nuclear repulsion               ... done (  0.0 sec) ENN=      0.000000000000 Eh

SHARK setup successfully completed in  36.0 seconds

Maximum memory used throughout the entire GTOINT-calculation: 25.8 MB


           ************************************************************
           *        Program running with 32 parallel MPI-processes    *
           *              working on a common directory               *
           ************************************************************
------------------------------------------------------------------------------
                          ORCA RELATIVISTIC HAMILTONIAN
------------------------------------------------------------------------------

Relativistic Method            ... ZORA(MP)
Treatment of potential         ... Van Wuellen
Nucleus model                  ... Point Nucleus
Speed of light used            ... 137.03599908400000


            *************************************************
            *         ZERO ORDER REGULAR APPROXIMATION      *
            *                     ZORA(MP)                  *
            *            Programmed by FN according to      *
            *                   C. van Wuellen              *
            *       J. Chem. Phys. (1998) vol 109, 392-399  *
            *************************************************

Terms included in model potential: +V(e,N)
Basis function cutoff value   ... 1.000000e-12
Loading the fitted atomic densities  (DKH4)  ... done
Calculating the cutoffs                      ... done
Number of fit functions                      ... 26
Setting up the integration grid ... done

Maximum memory used throughout the entire REL-calculation: 10.3 MB


           ************************************************************
           *        Program running with 32 parallel MPI-processes    *
           *              working on a common directory               *
           ************************************************************
-------------------------------------------------------------------------------
                                 ORCA SCF
-------------------------------------------------------------------------------

------------
SCF SETTINGS
------------
Hamiltonian:
 Density Functional     Method          .... DFT(GTOs)
 Exchange Functional    Exchange        .... PBE
   PBE kappa parameter   XKappa         ....  0.804000
   PBE mue parameter    XMuePBE         ....  0.219520
 Correlation Functional Correlation     .... PBE
   PBE beta parameter  CBetaPBE         ....  0.066725
 LDA part of GGA corr.  LDAOpt          .... PW91-LDA
 Gradients option       PostSCFGGA      .... off
   Density functional embedding theory  .... OFF
   NL short-range parameter             ....  6.400000

Relativistic Settings:
 Scalar relativistic method             .... ZORA
 Speed of light used       Velit        ....       137.035999
Orbital energies will be scaled


General Settings:
 Integral files         IntName         .... Pd_sarc-zora-tzvpp_pbe
 Hartree-Fock type      HFTyp           .... UHF
 Total Charge           Charge          ....    0
 Multiplicity           Mult            ....    1
 Number of Electrons    NEL             ....   46
 Basis Dimension        Dim             ....   98
 Nuclear Repulsion      ENuc            ....      0.0000000000 Eh

Convergence Acceleration:
 DIIS                   CNVDIIS         .... on
   Start iteration      DIISMaxIt       ....    12
   Startup error        DIISStart       ....  0.200000
   # of expansion vecs  DIISMaxEq       ....     5
   Bias factor          DIISBfac        ....   1.050
   Max. coefficient     DIISMaxC        ....  10.000
 Trust-Rad. Augm. Hess. CNVTRAH         .... off
 SOSCF                  CNVSOSCF        .... on
   Start iteration      SOSCFMaxIt      ....   150
   Startup grad/error   SOSCFStart      ....  0.003300
 Level Shifting         CNVShift        .... on
   Level shift para.    LevelShift      ....    0.2500
   Turn off err/grad.   ShiftErr        ....    0.0010
 Zerner damping         CNVZerner       .... off
 Static damping         CNVDamp         .... on
   Fraction old density DampFac         ....    0.7000
   Max. Damping (<1)    DampMax         ....    0.9800
   Min. Damping (>=0)   DampMin         ....    0.0000
   Turn off err/grad.   DampErr         ....    0.1000
 Fernandez-Rico         CNVRico         .... off

SCF Procedure:
 Maximum # iterations   MaxIter         ....   125
 SCF integral mode      SCFMode         .... Direct
   Integral package                     .... SHARK and LIBINT hybrid scheme
 Reset frequency        DirectResetFreq ....    20
 Integral Threshold     Thresh          ....  1.000e-12 Eh
 Primitive CutOff       TCut            ....  1.000e-14 Eh

Convergence Tolerance:
 Convergence Check Mode ConvCheckMode   .... Total+1el-Energy
 Convergence forced     ConvForced      .... 0
 Energy Change          TolE            ....  1.000e-09 Eh
 1-El. energy change                    ....  1.000e-06 Eh
 Orbital Gradient       TolG            ....  2.000e-06
 Orbital Rotation angle TolX            ....  2.000e-06
 DIIS Error             TolErr          ....  1.000e-08


Diagonalization of the overlap matrix:
Smallest eigenvalue                        ... 7.220e-04
Time for diagonalization                   ...    0.800 sec
Threshold for overlap eigenvalues          ... 1.000e-08
Number of eigenvalues below threshold      ... 0
Time for construction of square roots      ...    0.914 sec
Total time needed                          ...    1.715 sec

Time for model grid setup =    0.173 sec

------------------------------
INITIAL GUESS: MODEL POTENTIAL
------------------------------
Loading ZORA relativistic densities                ... done
Calculating cut-offs                               ... done
Initializing the effective Hamiltonian             ... done
Setting up the integral package (SHARK)            ... done
Starting the Coulomb interaction                   ... done (   9.4 sec)
Reading the grid                                   ... done
Mapping shells                                     ... done
Starting the XC term evaluation                    ... done (   4.2 sec)
  promolecular density results
     # of electrons  =     46.000000000
     EX              =   -146.296283348
     EC              =     -2.406783432
     EX+EC           =   -148.703066780
Transforming the Hamiltonian                       ... done (   0.2 sec)
Diagonalizing the Hamiltonian                      ... done (   0.1 sec)
Back transforming the eigenvectors                 ... done (   0.0 sec)
Now organizing SCF variables                       ... done
                      ------------------
                      INITIAL GUESS DONE (  16.2 sec)
                      ------------------
-------------------
DFT GRID GENERATION
-------------------

General Integration Accuracy     IntAcc      ... 4.388
Radial Grid Type                 RadialGrid  ... OptM3 with GC (2021)
Angular Grid (max. ang.)         AngularGrid ... 4 (Lebedev-302)
Angular grid pruning method      GridPruning ... 4 (adaptive)
Weight generation scheme         WeightScheme... Becke
Basis function cutoff            BFCut       ... 1.0000e-12
Integration weight cutoff        WCut        ... 1.0000e-14
Angular grids for H and He will be reduced by one unit
Partially contracted basis set               ... off
Rotationally invariant grid construction     ... off

Total number of grid points                  ...    27544
Total number of batches                      ...      431
Average number of points per batch           ...       63
Average number of grid points per atom       ...    27544
Time for grid setup =    1.097 sec

--------------
SCF ITERATIONS
--------------
ITER       Energy         Delta-E        Max-DP      RMS-DP      [F,P]     Damp
               ***  Starting incremental Fock matrix formation  ***
  0  -5127.0121264626   0.000000000000 0.01036042  0.00046486  2.6279743 0.7000
  1  -5127.0305810645  -0.018454601905 0.00291921  0.00019295  1.8158130 0.7000
  2  -5127.0374615345  -0.006880470055 0.00270786  0.00008425  1.2560003 0.7000
  3  -5127.0425639181  -0.005102383609 0.00201104  0.00005975  0.8694886 0.7000
                      *** Initiating the SOSCF procedure ***
                      *** Re-Reading the Fockian *** 
                      *** Removing any level shift *** 
ITER      Energy       Delta-E        Grad      Rot      Max-DP    RMS-DP
  4  -5127.04619687  -0.0036329483  0.003029  0.003029  0.002701  0.000101
               *** Restarting incremental Fock matrix formation ***
  5  -5127.05432784  -0.0081309718  0.006767  0.005374  0.003875  0.000150
  6  -5127.05384618   0.0004816569  0.007150  0.004281  0.002292  0.000105
  7  -5127.05444072  -0.0005945355  0.001195  0.000094  0.000261  0.000008
  8  -5127.05444200  -0.0000012858  0.000530  0.000055  0.000087  0.000003
  9  -5127.05444240  -0.0000003977  0.000014  0.000005  0.000006  0.000000
 10  -5127.05444240  -0.0000000003  0.000003  0.000001  0.000001  0.000000
                 **** Energy Check signals convergence ****
              ***Rediagonalizing the Fockian in SOSCF/NRSCF***

               *****************************************************
               *                     SUCCESS                       *
               *           SCF CONVERGED AFTER  11 CYCLES          *
               *****************************************************


----------------
TOTAL SCF ENERGY
----------------

Total Energy       :        -5127.05444240 Eh         -139514.24414 eV

Components:
Nuclear Repulsion  :            0.00000000 Eh               0.00000 eV
Electronic Energy  :        -5127.05444240 Eh         -139514.24414 eV
One Electron Energy:        -7048.45827802 Eh         -191798.30058 eV
Two Electron Energy:         1921.40383562 Eh           52284.05644 eV

Virial components:
Potential Energy   :       -10447.66453378 Eh         -284295.40526 eV
Kinetic Energy     :         5320.61009138 Eh          144781.16112 eV
Virial Ratio       :            1.96362153


DFT components:
N(Alpha)           :       23.000000000043 electrons
N(Beta)            :       23.000000000043 electrons
N(Total)           :       46.000000000085 electrons
E(X)               :     -142.803649664019 Eh       
E(C)               :       -2.405573659942 Eh       
E(XC)              :     -145.209223323961 Eh       
DFET-embed. en.    :        0.000000000000 Eh       

---------------
SCF CONVERGENCE
---------------

  Last Energy change         ...   -3.0013e-11  Tolerance :   1.0000e-09
  Last MAX-Density change    ...    3.5608e-09  Tolerance :   1.0000e-08
  Last RMS-Density change    ...    9.6637e-11  Tolerance :   1.0000e-09
  Last Orbital Gradient      ...    5.0577e-08  Tolerance :   2.0000e-06
  Last Orbital Rotation      ...    4.3171e-10  Tolerance :   2.0000e-06

             **** THE GBW FILE WAS UPDATED (Pd_sarc-zora-tzvpp_pbe.gbw) ****
             **** DENSITY Pd_sarc-zora-tzvpp_pbe.scfp WAS UPDATED ****
             **** ENERGY FILE WAS UPDATED (Pd_sarc-zora-tzvpp_pbe.en.tmp) ****
----------------------
UHF SPIN CONTAMINATION
----------------------

Warning: in a DFT calculation there is little theoretical justification to 
         calculate <S**2> as in Hartree-Fock theory. We will do it anyways
         but you should keep in mind that the values have only limited relevance

Expectation value of <S**2>     :     0.000000
Ideal value S*(S+1) for S=0.0   :     0.000000
Deviation                       :     0.000000

             **** THE GBW FILE WAS UPDATED (Pd_sarc-zora-tzvpp_pbe.gbw) ****
             **** DENSITY Pd_sarc-zora-tzvpp_pbe.scfp WAS UPDATED ****
----------------
ORBITAL ENERGIES
----------------
                 SPIN UP ORBITALS
  NO   OCC          E(Eh)            E(eV) 
   0   1.0000    -918.324466    -24988.8791 
   1   1.0000    -131.134078     -3568.3397 
   2   1.0000    -117.441751     -3195.7525 
   3   1.0000    -117.441751     -3195.7525 
   4   1.0000    -117.441751     -3195.7525 
   5   1.0000     -23.556798      -641.0131 
   6   1.0000     -19.089946      -519.4638 
   7   1.0000     -19.089946      -519.4638 
   8   1.0000     -19.089946      -519.4638 
   9   1.0000     -12.016886      -326.9961 
  10   1.0000     -12.016886      -326.9961 
  11   1.0000     -12.016886      -326.9961 
  12   1.0000     -12.016886      -326.9961 
  13   1.0000     -12.016886      -326.9961 
  14   1.0000      -3.163596       -86.0858 
  15   1.0000      -1.896247       -51.5995 
  16   1.0000      -1.896247       -51.5995 
  17   1.0000      -1.896247       -51.5995 
  18   1.0000      -0.148255        -4.0342 
  19   1.0000      -0.148255        -4.0342 
  20   1.0000      -0.148255        -4.0342 
  21   1.0000      -0.148255        -4.0342 
  22   1.0000      -0.148255        -4.0342 
  23   0.0000      -0.123263        -3.3542 
  24   0.0000      -0.000242        -0.0066 
  25   0.0000      -0.000242        -0.0066 
  26   0.0000      -0.000242        -0.0066 
  27   0.0000       0.128032         3.4839 
  28   0.0000       0.128032         3.4839 
  29   0.0000       0.128032         3.4839 
  30   0.0000       0.128032         3.4839 
  31   0.0000       0.128032         3.4839 
  32   0.0000       0.134761         3.6670 
  33   0.0000       0.236610         6.4385 
  34   0.0000       0.236610         6.4385 
  35   0.0000       0.236610         6.4385 
  36   0.0000       0.582524        15.8513 
  37   0.0000       0.582524        15.8513 
  38   0.0000       0.582524        15.8513 
  39   0.0000       0.582524        15.8513 
  40   0.0000       0.582524        15.8513 
  41   0.0000       0.805256        21.9121 
  42   0.0000       1.077063        29.3084 
  43   0.0000       1.077063        29.3084 
  44   0.0000       1.077063        29.3084 
  45   0.0000       1.453030        39.5390 
  46   0.0000       1.453030        39.5390 
  47   0.0000       1.453030        39.5390 
  48   0.0000       1.453030        39.5390 
  49   0.0000       1.453030        39.5390 
  50   0.0000       1.453030        39.5390 
  51   0.0000       1.453030        39.5390 
  52   0.0000       2.185217        59.4628 
  53   0.0000       2.185217        59.4628 
  54   0.0000       2.185217        59.4628 
  55   0.0000       2.185217        59.4628 
  56   0.0000       2.185217        59.4628 
  57   0.0000       3.019231        82.1574 
  58   0.0000       4.318506       117.5125 
  59   0.0000       4.318506       117.5125 
  60   0.0000       4.318506       117.5125 
  61   0.0000       4.405741       119.8863 
  62   0.0000       4.405741       119.8863 
  63   0.0000       4.405741       119.8863 
  64   0.0000       4.405741       119.8863 
  65   0.0000       4.405741       119.8863 
  66   0.0000       4.405741       119.8863 
  67   0.0000       4.405741       119.8863 
  68   0.0000       4.915485       133.7571 
  69   0.0000       4.915485       133.7571 
  70   0.0000       4.915485       133.7571 
  71   0.0000       4.915485       133.7571 
  72   0.0000       4.915485       133.7571 
  73   0.0000       4.915485       133.7571 
  74   0.0000       4.915485       133.7571 
  75   0.0000       4.915485       133.7571 
  76   0.0000       4.915485       133.7571 
  77   0.0000       8.849219       240.7995 
  78   0.0000       8.849219       240.7995 
  79   0.0000       8.849219       240.7995 
  80   0.0000       8.849219       240.7995 
  81   0.0000       8.849219       240.7995 
  82   0.0000      11.141120       303.1653 
  83   0.0000      19.352415       526.6060 
  84   0.0000      19.352415       526.6060 
  85   0.0000      19.352415       526.6060 
  86   0.0000      43.520472      1184.2522 
  87   0.0000      89.540887      2436.5314 
  88   0.0000      89.540887      2436.5314 
  89   0.0000      89.540887      2436.5314 
  90   0.0000     164.684700      4481.2985 
  91   0.0000     406.867474     11071.4268 
  92   0.0000     406.867474     11071.4268 
  93   0.0000     406.867474     11071.4268 
  94   0.0000     558.936273     15209.4292 
  95   0.0000    1704.264024     46375.3818 
  96   0.0000    4800.306950    130622.9929 
  97   0.0000   17046.337899    463854.4361 

                 SPIN DOWN ORBITALS
  NO   OCC          E(Eh)            E(eV) 
   0   1.0000    -918.324466    -24988.8791 
   1   1.0000    -131.134078     -3568.3397 
   2   1.0000    -117.441751     -3195.7525 
   3   1.0000    -117.441751     -3195.7525 
   4   1.0000    -117.441751     -3195.7525 
   5   1.0000     -23.556798      -641.0131 
   6   1.0000     -19.089946      -519.4638 
   7   1.0000     -19.089946      -519.4638 
   8   1.0000     -19.089946      -519.4638 
   9   1.0000     -12.016886      -326.9961 
  10   1.0000     -12.016886      -326.9961 
  11   1.0000     -12.016886      -326.9961 
  12   1.0000     -12.016886      -326.9961 
  13   1.0000     -12.016886      -326.9961 
  14   1.0000      -3.163596       -86.0858 
  15   1.0000      -1.896247       -51.5995 
  16   1.0000      -1.896247       -51.5995 
  17   1.0000      -1.896247       -51.5995 
  18   1.0000      -0.148255        -4.0342 
  19   1.0000      -0.148255        -4.0342 
  20   1.0000      -0.148255        -4.0342 
  21   1.0000      -0.148255        -4.0342 
  22   1.0000      -0.148255        -4.0342 
  23   0.0000      -0.123263        -3.3542 
  24   0.0000      -0.000242        -0.0066 
  25   0.0000      -0.000242        -0.0066 
  26   0.0000      -0.000242        -0.0066 
  27   0.0000       0.128032         3.4839 
  28   0.0000       0.128032         3.4839 
  29   0.0000       0.128032         3.4839 
  30   0.0000       0.128032         3.4839 
  31   0.0000       0.128032         3.4839 
  32   0.0000       0.134761         3.6670 
  33   0.0000       0.236610         6.4385 
  34   0.0000       0.236610         6.4385 
  35   0.0000       0.236610         6.4385 
  36   0.0000       0.582524        15.8513 
  37   0.0000       0.582524        15.8513 
  38   0.0000       0.582524        15.8513 
  39   0.0000       0.582524        15.8513 
  40   0.0000       0.582524        15.8513 
  41   0.0000       0.805256        21.9121 
  42   0.0000       1.077063        29.3084 
  43   0.0000       1.077063        29.3084 
  44   0.0000       1.077063        29.3084 
  45   0.0000       1.453030        39.5390 
  46   0.0000       1.453030        39.5390 
  47   0.0000       1.453030        39.5390 
  48   0.0000       1.453030        39.5390 
  49   0.0000       1.453030        39.5390 
  50   0.0000       1.453030        39.5390 
  51   0.0000       1.453030        39.5390 
  52   0.0000       2.185217        59.4628 
  53   0.0000       2.185217        59.4628 
  54   0.0000       2.185217        59.4628 
  55   0.0000       2.185217        59.4628 
  56   0.0000       2.185217        59.4628 
  57   0.0000       3.019231        82.1574 
  58   0.0000       4.318506       117.5125 
  59   0.0000       4.318506       117.5125 
  60   0.0000       4.318506       117.5125 
  61   0.0000       4.405741       119.8863 
  62   0.0000       4.405741       119.8863 
  63   0.0000       4.405741       119.8863 
  64   0.0000       4.405741       119.8863 
  65   0.0000       4.405741       119.8863 
  66   0.0000       4.405741       119.8863 
  67   0.0000       4.405741       119.8863 
  68   0.0000       4.915485       133.7571 
  69   0.0000       4.915485       133.7571 
  70   0.0000       4.915485       133.7571 
  71   0.0000       4.915485       133.7571 
  72   0.0000       4.915485       133.7571 
  73   0.0000       4.915485       133.7571 
  74   0.0000       4.915485       133.7571 
  75   0.0000       4.915485       133.7571 
  76   0.0000       4.915485       133.7571 
  77   0.0000       8.849219       240.7995 
  78   0.0000       8.849219       240.7995 
  79   0.0000       8.849219       240.7995 
  80   0.0000       8.849219       240.7995 
  81   0.0000       8.849219       240.7995 
  82   0.0000      11.141120       303.1653 
  83   0.0000      19.352415       526.6060 
  84   0.0000      19.352415       526.6060 
  85   0.0000      19.352415       526.6060 
  86   0.0000      43.520472      1184.2522 
  87   0.0000      89.540887      2436.5314 
  88   0.0000      89.540887      2436.5314 
  89   0.0000      89.540887      2436.5314 
  90   0.0000     164.684700      4481.2985 
  91   0.0000     406.867474     11071.4268 
  92   0.0000     406.867474     11071.4268 
  93   0.0000     406.867474     11071.4268 
  94   0.0000     558.936273     15209.4292 
  95   0.0000    1704.264024     46375.3818 
  96   0.0000    4800.306950    130622.9929 
  97   0.0000   17046.337899    463854.4361 

                    ********************************
                    * MULLIKEN POPULATION ANALYSIS *
                    ********************************

--------------------------------------------
MULLIKEN ATOMIC CHARGES AND SPIN POPULATIONS
--------------------------------------------
   0 Pd:   -0.000000    0.000000
Sum of atomic charges         :   -0.0000000
Sum of atomic spin populations:    0.0000000

-----------------------------------------------------
MULLIKEN REDUCED ORBITAL CHARGES AND SPIN POPULATIONS
-----------------------------------------------------
CHARGE
  0 Pds       :     8.000000  s :     8.000000
      pz      :     6.000000  p :    18.000000
      px      :     6.000000
      py      :     6.000000
      dz2     :     4.000000  d :    20.000000
      dxz     :     4.000000
      dyz     :     4.000000
      dx2y2   :     4.000000
      dxy     :     4.000000
      f0      :     0.000000  f :     0.000000
      f+1     :     0.000000
      f-1     :     0.000000
      f+2     :     0.000000
      f-2     :     0.000000
      f+3     :     0.000000
      f-3     :     0.000000
      g0      :     0.000000  g :     0.000000
      g+1     :     0.000000
      g-1     :     0.000000
      g+2     :     0.000000
      g-2     :     0.000000
      g+3     :     0.000000
      g-3     :     0.000000
      g+4     :     0.000000
      g-4     :     0.000000

SPIN
  0 Pds       :     0.000000  s :     0.000000
      pz      :     0.000000  p :     0.000000
      px      :     0.000000
      py      :     0.000000
      dz2     :     0.000000  d :     0.000000
      dxz     :     0.000000
      dyz     :     0.000000
      dx2y2   :     0.000000
      dxy     :     0.000000
      f0      :     0.000000  f :     0.000000
      f+1     :     0.000000
      f-1     :     0.000000
      f+2     :     0.000000
      f-2     :     0.000000
      f+3     :     0.000000
      f-3     :     0.000000
      g0      :     0.000000  g :     0.000000
      g+1     :     0.000000
      g-1     :     0.000000
      g+2     :     0.000000
      g-2     :     0.000000
      g+3     :     0.000000
      g-3     :     0.000000
      g+4     :     0.000000
      g-4     :     0.000000


                     *******************************
                     * LOEWDIN POPULATION ANALYSIS *
                     *******************************

-------------------------------------------
LOEWDIN ATOMIC CHARGES AND SPIN POPULATIONS
-------------------------------------------
   0 Pd:   -0.000000    0.000000

----------------------------------------------------
LOEWDIN REDUCED ORBITAL CHARGES AND SPIN POPULATIONS
----------------------------------------------------
CHARGE
  0 Pds       :     8.000000  s :     8.000000
      pz      :     6.000000  p :    18.000000
      px      :     6.000000
      py      :     6.000000
      dz2     :     4.000000  d :    20.000000
      dxz     :     4.000000
      dyz     :     4.000000
      dx2y2   :     4.000000
      dxy     :     4.000000
      f0      :     0.000000  f :     0.000000
      f+1     :     0.000000
      f-1     :     0.000000
      f+2     :     0.000000
      f-2     :     0.000000
      f+3     :     0.000000
      f-3     :     0.000000
      g0      :     0.000000  g :     0.000000
      g+1     :     0.000000
      g-1     :     0.000000
      g+2     :     0.000000
      g-2     :     0.000000
      g+3     :     0.000000
      g-3     :     0.000000
      g+4     :     0.000000
      g-4     :     0.000000

SPIN
  0 Pds       :     0.000000  s :     0.000000
      pz      :     0.000000  p :     0.000000
      px      :     0.000000
      py      :     0.000000
      dz2     :     0.000000  d :     0.000000
      dxz     :     0.000000
      dyz     :     0.000000
      dx2y2   :     0.000000
      dxy     :     0.000000
      f0      :     0.000000  f :     0.000000
      f+1     :     0.000000
      f-1     :     0.000000
      f+2     :     0.000000
      f-2     :     0.000000
      f+3     :     0.000000
      f-3     :     0.000000
      g0      :     0.000000  g :     0.000000
      g+1     :     0.000000
      g-1     :     0.000000
      g+2     :     0.000000
      g-2     :     0.000000
      g+3     :     0.000000
      g-3     :     0.000000
      g+4     :     0.000000
      g-4     :     0.000000


                      *****************************
                      * MAYER POPULATION ANALYSIS *
                      *****************************

  NA   - Mulliken gross atomic population
  ZA   - Total nuclear charge
  QA   - Mulliken gross atomic charge
  VA   - Mayer's total valence
  BVA  - Mayer's bonded valence
  FA   - Mayer's free valence

  ATOM       NA         ZA         QA         VA         BVA        FA
  0 Pd    46.0000    46.0000    -0.0000    -0.0000     0.0000    -0.0000

  Mayer bond orders larger than 0.100000


-------
TIMINGS
-------

Total SCF time: 0 days 0 hours 2 min 25 sec 

Total time                  ....     145.422 sec
Sum of individual times     ....     127.572 sec  ( 87.7%)

Fock matrix formation       ....     105.453 sec  ( 72.5%)
  XC integration            ....      17.563 sec  ( 16.7% of F)
    Basis function eval.    ....       0.023 sec  (  0.1% of XC)
    Density eval.           ....       0.796 sec  (  4.5% of XC)
    XC-Functional eval.     ....       0.053 sec  (  0.3% of XC)
    XC-Potential eval.      ....       0.273 sec  (  1.6% of XC)
Diagonalization             ....       0.105 sec  (  0.1%)
Density matrix formation    ....       0.005 sec  (  0.0%)
Population analysis         ....       4.350 sec  (  3.0%)
Initial guess               ....      16.026 sec  ( 11.0%)
Orbital Transformation      ....       0.000 sec  (  0.0%)
Orbital Orthonormalization  ....       0.000 sec  (  0.0%)
DIIS solution               ....       0.027 sec  (  0.0%)
SOSCF solution              ....       0.336 sec  (  0.2%)
Grid generation             ....       1.270 sec  (  0.9%)

Maximum memory used throughout the entire SCF-calculation: 229.7 MB

-------------------------   --------------------
FINAL SINGLE POINT ENERGY     -5127.054442400614
-------------------------   --------------------


                            ***************************************
                            *     ORCA property calculations      *
                            ***************************************

                                    ---------------------
                                    Active property flags
                                    ---------------------
   (+) Dipole Moment


------------------------------------------------------------------------------
                       ORCA ELECTRIC PROPERTIES CALCULATION
------------------------------------------------------------------------------

Dipole Moment Calculation                       ... on
Quadrupole Moment Calculation                   ... off
Polarizability Calculation                      ... off
GBWName                                         ... Pd_sarc-zora-tzvpp_pbe.gbw
Electron density                                ... Pd_sarc-zora-tzvpp_pbe.scfp
The origin for moment calculation is the CENTER OF MASS  = ( 0.000000,  0.000000  0.000000)

-------------
DIPOLE MOMENT
-------------
                                X             Y             Z
Electronic contribution:      0.00000      -0.00000      -0.00000
Nuclear contribution   :      0.00000       0.00000       0.00000
                        -----------------------------------------
Total Dipole Moment    :      0.00000      -0.00000      -0.00000
                        -----------------------------------------
Magnitude (a.u.)       :      0.00000
Magnitude (Debye)      :      0.00000



--------------------
Rotational spectrum 
--------------------
 
Rotational constants in cm-1:     0.000000     0.000000     0.000000 
Rotational constants in MHz :     0.000000     0.000000     0.000000 

 Dipole components along the rotational axes: 
x,y,z [a.u.] :     0.000000    -0.000000    -0.000000 
x,y,z [Debye]:     0.000000    -0.000000    -0.000000 

 

Timings for individual modules:

Sum of individual times         ...      359.579 sec (=   5.993 min)
GTO integral calculation        ...      189.834 sec (=   3.164 min)  52.8 %
Relativistic integrals          ...       19.302 sec (=   0.322 min)   5.4 %
SCF iterations                  ...      150.444 sec (=   2.507 min)  41.8 %
                             ****ORCA TERMINATED NORMALLY****
TOTAL RUN TIME: 0 days 0 hours 6 minutes 4 seconds 573 msec
