
                                 *****************
                                 * O   R   C   A *
                                 *****************

                                            #,                                       
                                            ###                                      
                                            ####                                     
                                            #####                                    
                                            ######                                   
                                           ########,                                 
                                     ,,################,,,,,                         
                               ,,#################################,,                 
                          ,,##########################################,,             
                       ,#########################################, ''#####,          
                    ,#############################################,,   '####,        
                  ,##################################################,,,,####,       
                ,###########''''           ''''###############################       
              ,#####''   ,,,,##########,,,,          '''####'''          '####       
            ,##' ,,,,###########################,,,                        '##       
           ' ,,###''''                  '''############,,,                           
         ,,##''                                '''############,,,,        ,,,,,,###''
      ,#''                                            '''#######################'''  
     '                                                          ''''####''''         
             ,#######,   #######,   ,#######,      ##                                
            ,#'     '#,  ##    ##  ,#'     '#,    #''#        ######   ,####,        
            ##       ##  ##   ,#'  ##            #'  '#       #        #'  '#        
            ##       ##  #######   ##           ,######,      #####,   #    #        
            '#,     ,#'  ##    ##  '#,     ,#' ,#      #,         ##   #,  ,#        
             '#######'   ##     ##  '#######'  #'      '#     #####' # '####'        



                  #######################################################
                  #                        -***-                        #
                  #          Department of theory and spectroscopy      #
                  #    Directorship and core code : Frank Neese         #
                  #        Max Planck Institute fuer Kohlenforschung    #
                  #                Kaiser Wilhelm Platz 1               #
                  #                 D-45470 Muelheim/Ruhr               #
                  #                      Germany                        #
                  #                                                     #
                  #                  All rights reserved                #
                  #                        -***-                        #
                  #######################################################


                         Program Version 5.0.1 -  RELEASE  -


 With contributions from (in alphabetic order):
   Daniel Aravena         : Magnetic Suceptibility
   Michael Atanasov       : Ab Initio Ligand Field Theory (pilot matlab implementation)
   Alexander A. Auer      : GIAO ZORA, VPT2 properties, NMR spectrum
   Ute Becker             : Parallelization
   Giovanni Bistoni       : ED, misc. LED, open-shell LED, HFLD
   Martin Brehm           : Molecular dynamics
   Dmytro Bykov           : SCF Hessian
   Vijay G. Chilkuri      : MRCI spin determinant printing, contributions to CSF-ICE
   Dipayan Datta          : RHF DLPNO-CCSD density
   Achintya Kumar Dutta   : EOM-CC, STEOM-CC
   Dmitry Ganyushin       : Spin-Orbit,Spin-Spin,Magnetic field MRCI
   Miquel Garcia          : C-PCM and meta-GGA Hessian, CC/C-PCM, Gaussian charge scheme
   Yang Guo               : DLPNO-NEVPT2, F12-NEVPT2, CIM, IAO-localization
   Andreas Hansen         : Spin unrestricted coupled pair/coupled cluster methods
   Benjamin Helmich-Paris : MC-RPA, TRAH-SCF, COSX integrals
   Lee Huntington         : MR-EOM, pCC
   Robert Izsak           : Overlap fitted RIJCOSX, COSX-SCS-MP3, EOM
   Marcus Kettner         : VPT2
   Christian Kollmar      : KDIIS, OOCD, Brueckner-CCSD(T), CCSD density, CASPT2, CASPT2-K
   Simone Kossmann        : Meta GGA functionals, TD-DFT gradient, OOMP2, MP2 Hessian
   Martin Krupicka        : Initial AUTO-CI
   Lucas Lang             : DCDCAS
   Marvin Lechner         : AUTO-CI (C++ implementation), FIC-MRCC
   Dagmar Lenk            : GEPOL surface, SMD
   Dimitrios Liakos       : Extrapolation schemes; Compound Job, initial MDCI parallelization
   Dimitrios Manganas     : Further ROCIS development; embedding schemes
   Dimitrios Pantazis     : SARC Basis sets
   Anastasios Papadopoulos: AUTO-CI, single reference methods and gradients
   Taras Petrenko         : DFT Hessian,TD-DFT gradient, ASA, ECA, R-Raman, ABS, FL, XAS/XES, NRVS
   Peter Pinski           : DLPNO-MP2, DLPNO-MP2 Gradient
   Christoph Reimann      : Effective Core Potentials
   Marius Retegan         : Local ZFS, SOC
   Christoph Riplinger    : Optimizer, TS searches, QM/MM, DLPNO-CCSD(T), (RO)-DLPNO pert. Triples
   Tobias Risthaus        : Range-separated hybrids, TD-DFT gradient, RPA, STAB
   Michael Roemelt        : Original ROCIS implementation
   Masaaki Saitow         : Open-shell DLPNO-CCSD energy and density
   Barbara Sandhoefer     : DKH picture change effects
   Avijit Sen             : IP-ROCIS
   Kantharuban Sivalingam : CASSCF convergence, NEVPT2, FIC-MRCI
   Bernardo de Souza      : ESD, SOC TD-DFT
   Georgi Stoychev        : AutoAux, RI-MP2 NMR, DLPNO-MP2 response
   Willem Van den Heuvel  : Paramagnetic NMR
   Boris Wezisla          : Elementary symmetry handling
   Frank Wennmohs         : Technical directorship


 We gratefully acknowledge several colleagues who have allowed us to
 interface, adapt or use parts of their codes:
   Stefan Grimme, W. Hujo, H. Kruse, P. Pracht,  : VdW corrections, initial TS optimization,
                  C. Bannwarth, S. Ehlert          DFT functionals, gCP, sTDA/sTD-DF
   Ed Valeev, F. Pavosevic, A. Kumar             : LibInt (2-el integral package), F12 methods
   Garnet Chan, S. Sharma, J. Yang, R. Olivares  : DMRG
   Ulf Ekstrom                                   : XCFun DFT Library
   Mihaly Kallay                                 : mrcc  (arbitrary order and MRCC methods)
   Jiri Pittner, Ondrej Demel                    : Mk-CCSD
   Frank Weinhold                                : gennbo (NPA and NBO analysis)
   Christopher J. Cramer and Donald G. Truhlar   : smd solvation model
   Lars Goerigk                                  : TD-DFT with DH, B97 family of functionals
   V. Asgeirsson, H. Jonsson                     : NEB implementation
   FAccTs GmbH                                   : IRC, NEB, NEB-TS, DLPNO-Multilevel, CI-OPT
                                                   MM, QMMM, 2- and 3-layer-ONIOM, Crystal-QMMM,
                                                   LR-CPCM, SF, NACMEs, symmetry and pop. for TD-DFT,
                                                   nearIR, NL-DFT gradient (VV10), updates on ESD,
                                                   ML-optimized integration grids
   S Lehtola, MJT Oliveira, MAL Marques          : LibXC Library
   Liviu Ungur et al                             : ANISO software


 Your calculation uses the libint2 library for the computation of 2-el integrals
 For citations please refer to: http://libint.valeyev.net

 Your ORCA version has been built with support for libXC version: 5.1.0
 For citations please refer to: https://tddft.org/programs/libxc/

 This ORCA versions uses:
   CBLAS   interface :  Fast vector & matrix operations
   LAPACKE interface :  Fast linear algebra routines
   SCALAPACK package :  Parallel linear algebra routines
   Shared memory     :  Shared parallel matrices
   BLAS/LAPACK       :  OpenBLAS 0.3.15  USE64BITINT DYNAMIC_ARCH NO_AFFINITY Haswell SINGLE_THREADED
        Core in use  :  Haswell
   Copyright (c) 2011-2014, The OpenBLAS Project


SCAN-COORDS

Reading of a custom basis requested
Basis file         : Pd_ugbs.basis
READING GTO-BASIS: PALLADIUM
Basis successfully read

================================================================================

----- Orbital basis set information -----
================================================================================
                                        WARNINGS
                       Please study these warnings very carefully!
================================================================================


INFO   : the flag for use of the SHARK integral package has been found!

================================================================================
                                       INPUT FILE
================================================================================
NAME = Pd_ugbs_pbe.inp
|  1> !uks pbe nori verytightscf soscf notrah
|  2> 
|  3> %pal
|  4>   nprocs 32
|  5> end
|  6> %coords
|  7>   charge 0
|  8>   mult 1
|  9>   units bohrs
| 10>   coords
| 11>     Pd 0.0 0.0 0.0
| 12>   end
| 13> end
| 14> %basis
| 15>   gtoname "Pd_ugbs.basis"
| 16>   delECP Pd
| 17> end
| 18> %rel
| 19>   method zora
| 20>   modelpot 1, 0, 0, 0
| 21>   c 137.035999084
| 22> endd                         ****END OF INPUT****
================================================================================

                       ****************************
                       * Single Point Calculation *
                       ****************************

---------------------------------
CARTESIAN COORDINATES (ANGSTROEM)
---------------------------------
  Pd     0.000000    0.000000    0.000000

----------------------------
CARTESIAN COORDINATES (A.U.)
----------------------------
  NO LB      ZA    FRAG     MASS         X           Y           Z
   0 Pd   46.0000    0   106.400    0.000000    0.000000    0.000000

--------------------------------
INTERNAL COORDINATES (ANGSTROEM)
--------------------------------
 Pd     0   0   0     0.000000000000     0.00000000     0.00000000

---------------------------
INTERNAL COORDINATES (A.U.)
---------------------------
 Pd     0   0   0     0.000000000000     0.00000000     0.00000000

---------------------
BASIS SET INFORMATION
---------------------
There are 1 groups of distinct atoms

 Group   1 Type Pd  : 29s22p18d contracted to 29s22p18d pattern {11111111111111111111111111111/1111111111111111111111/111111111111111111}

Atom   0Pd   basis set group =>   1


           ************************************************************
           *        Program running with 32 parallel MPI-processes    *
           *              working on a common directory               *
           ************************************************************
------------------------------------------------------------------------------
                           ORCA GTO INTEGRAL CALCULATION
------------------------------------------------------------------------------
------------------------------------------------------------------------------
                   ___                                                        
                  /   \      - P O W E R E D   B Y -                         
                 /     \                                                     
                 |  |  |   _    _      __       _____    __    __             
                 |  |  |  | |  | |    /  \     |  _  \  |  |  /  |          
                  \  \/   | |  | |   /    \    | | | |  |  | /  /          
                 / \  \   | |__| |  /  /\  \   | |_| |  |  |/  /          
                |  |  |   |  __  | /  /__\  \  |    /   |      \           
                |  |  |   | |  | | |   __   |  |    \   |  |\   \          
                \     /   | |  | | |  |  |  |  | |\  \  |  | \   \       
                 \___/    |_|  |_| |__|  |__|  |_| \__\ |__|  \__/        
                                                                              
                      - O R C A' S   B I G   F R I E N D -                    
                                      &                                       
                       - I N T E G R A L  F E E D E R -                       
                                                                              
 v1 FN, 2020, v2 2021                                                         
------------------------------------------------------------------------------


Reading SHARK input file Pd_ugbs_pbe.SHARKINP.tmp ... ok
----------------------
SHARK INTEGRAL PACKAGE
----------------------

Number of atoms                             ...      1
Number of basis functions                   ...    185
Number of shells                            ...     69
Maximum angular momentum                    ...      2
Integral batch strategy                     ... SHARK/LIBINT Hybrid
RI-J (if used) integral strategy            ... SPLIT-RIJ (Revised 2003 algorithm where possible)
Printlevel                                  ...      1
Contraction scheme used                     ... SEGMENTED contraction
Coulomb Range Separation                    ... NOT USED
Exchange Range Separation                   ... NOT USED
Finite Nucleus Model                        ... NOT USED
Auxiliary Coulomb fitting basis             ... NOT available
Auxiliary J/K fitting basis                 ... NOT available
Auxiliary Correlation fitting basis         ... NOT available
Auxiliary 'external' fitting basis          ... NOT available
Integral threshold                          ...     1.000000e-12
Primitive cut-off                           ...     1.000000e-14
Primitive pair pre-selection threshold      ...     1.000000e-14

Calculating pre-screening integrals         ... done (  0.1 sec) Dimension = 69
Organizing shell pair data                  ... done (  0.1 sec)
Shell pair information
Total number of shell pairs                 ...      2415
Shell pairs after pre-screening             ...      2415
Total number of primitive shell pairs       ...      2415
Primitive shell pairs kept                  ...      2415
          la=0 lb=0:    435 shell pairs
          la=1 lb=0:    638 shell pairs
          la=1 lb=1:    253 shell pairs
          la=2 lb=0:    522 shell pairs
          la=2 lb=1:    396 shell pairs
          la=2 lb=2:    171 shell pairs

Calculating one electron integrals          ... done (  0.0 sec)
Calculating Nuclear repulsion               ... done (  0.0 sec) ENN=      0.000000000000 Eh

SHARK setup successfully completed in  18.8 seconds

Maximum memory used throughout the entire GTOINT-calculation: 6.0 MB


           ************************************************************
           *        Program running with 32 parallel MPI-processes    *
           *              working on a common directory               *
           ************************************************************
------------------------------------------------------------------------------
                          ORCA RELATIVISTIC HAMILTONIAN
------------------------------------------------------------------------------

Relativistic Method            ... ZORA(MP)
Treatment of potential         ... Van Wuellen
Nucleus model                  ... Point Nucleus
Speed of light used            ... 137.03599908400000


            *************************************************
            *         ZERO ORDER REGULAR APPROXIMATION      *
            *                     ZORA(MP)                  *
            *            Programmed by FN according to      *
            *                   C. van Wuellen              *
            *       J. Chem. Phys. (1998) vol 109, 392-399  *
            *************************************************

Terms included in model potential: +V(e,N)
Basis function cutoff value   ... 1.000000e-12
Loading the fitted atomic densities  (DKH4)  ... done
Calculating the cutoffs                      ... done
Number of fit functions                      ... 26
Setting up the integration grid ... done

Maximum memory used throughout the entire REL-calculation: 10.5 MB


           ************************************************************
           *        Program running with 32 parallel MPI-processes    *
           *              working on a common directory               *
           ************************************************************
-------------------------------------------------------------------------------
                                 ORCA SCF
-------------------------------------------------------------------------------

------------
SCF SETTINGS
------------
Hamiltonian:
 Density Functional     Method          .... DFT(GTOs)
 Exchange Functional    Exchange        .... PBE
   PBE kappa parameter   XKappa         ....  0.804000
   PBE mue parameter    XMuePBE         ....  0.219520
 Correlation Functional Correlation     .... PBE
   PBE beta parameter  CBetaPBE         ....  0.066725
 LDA part of GGA corr.  LDAOpt          .... PW91-LDA
 Gradients option       PostSCFGGA      .... off
   Density functional embedding theory  .... OFF
   NL short-range parameter             ....  6.400000

Relativistic Settings:
 Scalar relativistic method             .... ZORA
 Speed of light used       Velit        ....       137.035999
Orbital energies will be scaled


General Settings:
 Integral files         IntName         .... Pd_ugbs_pbe
 Hartree-Fock type      HFTyp           .... UHF
 Total Charge           Charge          ....    0
 Multiplicity           Mult            ....    1
 Number of Electrons    NEL             ....   46
 Basis Dimension        Dim             ....  185
 Nuclear Repulsion      ENuc            ....      0.0000000000 Eh

Convergence Acceleration:
 DIIS                   CNVDIIS         .... on
   Start iteration      DIISMaxIt       ....    12
   Startup error        DIISStart       ....  0.200000
   # of expansion vecs  DIISMaxEq       ....     5
   Bias factor          DIISBfac        ....   1.050
   Max. coefficient     DIISMaxC        ....  10.000
 Trust-Rad. Augm. Hess. CNVTRAH         .... off
 SOSCF                  CNVSOSCF        .... on
   Start iteration      SOSCFMaxIt      ....   150
   Startup grad/error   SOSCFStart      ....  0.003300
 Level Shifting         CNVShift        .... on
   Level shift para.    LevelShift      ....    0.2500
   Turn off err/grad.   ShiftErr        ....    0.0010
 Zerner damping         CNVZerner       .... off
 Static damping         CNVDamp         .... on
   Fraction old density DampFac         ....    0.7000
   Max. Damping (<1)    DampMax         ....    0.9800
   Min. Damping (>=0)   DampMin         ....    0.0000
   Turn off err/grad.   DampErr         ....    0.1000
 Fernandez-Rico         CNVRico         .... off

SCF Procedure:
 Maximum # iterations   MaxIter         ....   125
 SCF integral mode      SCFMode         .... Direct
   Integral package                     .... SHARK and LIBINT hybrid scheme
 Reset frequency        DirectResetFreq ....    20
 Integral Threshold     Thresh          ....  1.000e-12 Eh
 Primitive CutOff       TCut            ....  1.000e-14 Eh

Convergence Tolerance:
 Convergence Check Mode ConvCheckMode   .... Total+1el-Energy
 Convergence forced     ConvForced      .... 0
 Energy Change          TolE            ....  1.000e-09 Eh
 1-El. energy change                    ....  1.000e-06 Eh
 Orbital Gradient       TolG            ....  2.000e-06
 Orbital Rotation angle TolX            ....  2.000e-06
 DIIS Error             TolErr          ....  1.000e-08


Diagonalization of the overlap matrix:
Smallest eigenvalue                        ... 6.182e-05
Time for diagonalization                   ...    0.156 sec
Threshold for overlap eigenvalues          ... 1.000e-08
Number of eigenvalues below threshold      ... 0
Time for construction of square roots      ...    0.544 sec
Total time needed                          ...    0.701 sec

Time for model grid setup =    2.311 sec

------------------------------
INITIAL GUESS: MODEL POTENTIAL
------------------------------
Loading ZORA relativistic densities                ... done
Calculating cut-offs                               ... done
Initializing the effective Hamiltonian             ... done
Setting up the integral package (SHARK)            ... done
Starting the Coulomb interaction                   ... done (   1.5 sec)
Reading the grid                                   ... done
Mapping shells                                     ... done
Starting the XC term evaluation                    ... done (   0.9 sec)
  promolecular density results
     # of electrons  =     46.000000000
     EX              =   -146.296283348
     EC              =     -2.406783432
     EX+EC           =   -148.703066780
Transforming the Hamiltonian                       ... done (   2.4 sec)
Diagonalizing the Hamiltonian                      ... done (   0.1 sec)
Back transforming the eigenvectors                 ... done (   0.7 sec)
Now organizing SCF variables                       ... done
                      ------------------
                      INITIAL GUESS DONE (  13.8 sec)
                      ------------------
-------------------
DFT GRID GENERATION
-------------------

General Integration Accuracy     IntAcc      ... 4.388
Radial Grid Type                 RadialGrid  ... OptM3 with GC (2021)
Angular Grid (max. ang.)         AngularGrid ... 4 (Lebedev-302)
Angular grid pruning method      GridPruning ... 4 (adaptive)
Weight generation scheme         WeightScheme... Becke
Basis function cutoff            BFCut       ... 1.0000e-12
Integration weight cutoff        WCut        ... 1.0000e-14
Angular grids for H and He will be reduced by one unit
Partially contracted basis set               ... off
Rotationally invariant grid construction     ... off

Total number of grid points                  ...    27544
Total number of batches                      ...      431
Average number of points per batch           ...       63
Average number of grid points per atom       ...    27544
Time for grid setup =    0.673 sec

--------------
SCF ITERATIONS
--------------
ITER       Energy         Delta-E        Max-DP      RMS-DP      [F,P]     Damp
               ***  Starting incremental Fock matrix formation  ***
  0  -5127.3615701526   0.000000000000 0.00625206  0.00013814  2.6674882 0.7000
  1  -5127.3759431457  -0.014372993113 0.00298179  0.00006137  1.8448911 0.7000
  2  -5127.3816760418  -0.005732896088 0.00237091  0.00003090  1.2771475 0.7000
  3  -5127.3858758920  -0.004199850260 0.00150477  0.00001921  0.8847345 0.7000
                      *** Initiating the SOSCF procedure ***
                      *** Re-Reading the Fockian *** 
                      *** Removing any level shift *** 
ITER      Energy       Delta-E        Grad      Rot      Max-DP    RMS-DP
  4  -5127.38883898  -0.0029630917  0.002374  0.002374  0.002816  0.000033
               *** Restarting incremental Fock matrix formation ***
  5  -5127.39548700  -0.0066480144  0.005290  0.004504  0.001627  0.000044
  6  -5127.39516716   0.0003198412  0.004976  0.003534  0.000983  0.000034
  7  -5127.39556742  -0.0004002613  0.001057  0.000069  0.000244  0.000003
  8  -5127.39556879  -0.0000013695  0.000526  0.000054  0.000086  0.000001
  9  -5127.39556937  -0.0000005852  0.000012  0.000006  0.000004  0.000000
 10  -5127.39556937  -0.0000000003  0.000002  0.000001  0.000001  0.000000
                 **** Energy Check signals convergence ****
              ***Rediagonalizing the Fockian in SOSCF/NRSCF***

               *****************************************************
               *                     SUCCESS                       *
               *           SCF CONVERGED AFTER  11 CYCLES          *
               *****************************************************


----------------
TOTAL SCF ENERGY
----------------

Total Energy       :        -5127.39556937 Eh         -139523.52668 eV

Components:
Nuclear Repulsion  :            0.00000000 Eh               0.00000 eV
Electronic Energy  :        -5127.39556937 Eh         -139523.52668 eV
One Electron Energy:        -7050.46192476 Eh         -191852.82258 eV
Two Electron Energy:         1923.06635539 Eh           52329.29590 eV

Virial components:
Potential Energy   :       -10452.09252145 Eh         -284415.89693 eV
Kinetic Energy     :         5324.69695208 Eh          144892.37025 eV
Virial Ratio       :            1.96294599


DFT components:
N(Alpha)           :       22.999999999927 electrons
N(Beta)            :       22.999999999927 electrons
N(Total)           :       45.999999999853 electrons
E(X)               :     -142.899177181938 Eh       
E(C)               :       -2.405434582566 Eh       
E(XC)              :     -145.304611764504 Eh       
DFET-embed. en.    :        0.000000000000 Eh       

---------------
SCF CONVERGENCE
---------------

  Last Energy change         ...   -2.7285e-11  Tolerance :   1.0000e-09
  Last MAX-Density change    ...    4.7535e-09  Tolerance :   1.0000e-08
  Last RMS-Density change    ...    7.4274e-11  Tolerance :   1.0000e-09
  Last Orbital Gradient      ...    5.8520e-08  Tolerance :   2.0000e-06
  Last Orbital Rotation      ...    9.7261e-10  Tolerance :   2.0000e-06

             **** THE GBW FILE WAS UPDATED (Pd_ugbs_pbe.gbw) ****
             **** DENSITY Pd_ugbs_pbe.scfp WAS UPDATED ****
             **** ENERGY FILE WAS UPDATED (Pd_ugbs_pbe.en.tmp) ****
----------------------
UHF SPIN CONTAMINATION
----------------------

Warning: in a DFT calculation there is little theoretical justification to 
         calculate <S**2> as in Hartree-Fock theory. We will do it anyways
         but you should keep in mind that the values have only limited relevance

Expectation value of <S**2>     :     0.000000
Ideal value S*(S+1) for S=0.0   :     0.000000
Deviation                       :     0.000000

             **** THE GBW FILE WAS UPDATED (Pd_ugbs_pbe.gbw) ****
             **** DENSITY Pd_ugbs_pbe.scfp WAS UPDATED ****
----------------
ORBITAL ENERGIES
----------------
                 SPIN UP ORBITALS
  NO   OCC          E(Eh)            E(eV) 
   0   1.0000    -918.268168    -24987.3472 
   1   1.0000    -131.045488     -3565.9290 
   2   1.0000    -117.342791     -3193.0597 
   3   1.0000    -117.342791     -3193.0597 
   4   1.0000    -117.342791     -3193.0597 
   5   1.0000     -23.530224      -640.2900 
   6   1.0000     -19.065141      -518.7889 
   7   1.0000     -19.065141      -518.7889 
   8   1.0000     -19.065141      -518.7889 
   9   1.0000     -11.992220      -326.3249 
  10   1.0000     -11.992220      -326.3249 
  11   1.0000     -11.992220      -326.3249 
  12   1.0000     -11.992220      -326.3249 
  13   1.0000     -11.992220      -326.3249 
  14   1.0000      -3.157021       -85.9069 
  15   1.0000      -1.891107       -51.4596 
  16   1.0000      -1.891107       -51.4596 
  17   1.0000      -1.891107       -51.4596 
  18   1.0000      -0.147381        -4.0104 
  19   1.0000      -0.147381        -4.0104 
  20   1.0000      -0.147381        -4.0104 
  21   1.0000      -0.147381        -4.0104 
  22   1.0000      -0.147381        -4.0104 
  23   0.0000      -0.091949        -2.5021 
  24   0.0000       0.076537         2.0827 
  25   0.0000       0.076537         2.0827 
  26   0.0000       0.076537         2.0827 
  27   0.0000       0.146560         3.9881 
  28   0.0000       0.146560         3.9881 
  29   0.0000       0.146560         3.9881 
  30   0.0000       0.146560         3.9881 
  31   0.0000       0.146560         3.9881 
  32   0.0000       0.531385        14.4597 
  33   0.0000       0.531385        14.4597 
  34   0.0000       0.531385        14.4597 
  35   0.0000       0.531385        14.4597 
  36   0.0000       0.531385        14.4597 
  37   0.0000       0.658944        17.9308 
  38   0.0000       0.785046        21.3622 
  39   0.0000       0.785046        21.3622 
  40   0.0000       0.785046        21.3622 
  41   0.0000       1.374769        37.4094 
  42   0.0000       1.374769        37.4094 
  43   0.0000       1.374769        37.4094 
  44   0.0000       1.374769        37.4094 
  45   0.0000       1.374769        37.4094 
  46   0.0000       2.627123        71.4877 
  47   0.0000       2.627123        71.4877 
  48   0.0000       2.627123        71.4877 
  49   0.0000       2.664096        72.4937 
  50   0.0000       3.225313        87.7652 
  51   0.0000       3.225313        87.7652 
  52   0.0000       3.225313        87.7652 
  53   0.0000       3.225313        87.7652 
  54   0.0000       3.225313        87.7652 
  55   0.0000       7.190968       195.6762 
  56   0.0000       7.190968       195.6762 
  57   0.0000       7.190968       195.6762 
  58   0.0000       7.361887       200.3271 
  59   0.0000       7.361887       200.3271 
  60   0.0000       7.361887       200.3271 
  61   0.0000       7.361887       200.3271 
  62   0.0000       7.361887       200.3271 
  63   0.0000       7.941841       216.1085 
  64   0.0000      16.844198       458.3539 
  65   0.0000      16.844198       458.3539 
  66   0.0000      16.844198       458.3539 
  67   0.0000      16.844198       458.3539 
  68   0.0000      16.844198       458.3539 
  69   0.0000      18.842584       512.7328 
  70   0.0000      18.842584       512.7328 
  71   0.0000      18.842584       512.7328 
  72   0.0000      22.314539       607.2095 
  73   0.0000      38.814605      1056.1991 
  74   0.0000      38.814605      1056.1991 
  75   0.0000      38.814605      1056.1991 
  76   0.0000      38.814605      1056.1991 
  77   0.0000      38.814605      1056.1991 
  78   0.0000      48.994200      1333.2000 
  79   0.0000      48.994200      1333.2000 
  80   0.0000      48.994200      1333.2000 
  81   0.0000      61.910290      1684.6646 
  82   0.0000      88.964719      2420.8531 
  83   0.0000      88.964719      2420.8531 
  84   0.0000      88.964719      2420.8531 
  85   0.0000      88.964719      2420.8531 
  86   0.0000      88.964719      2420.8531 
  87   0.0000     124.408432      3385.3255 
  88   0.0000     124.408432      3385.3255 
  89   0.0000     124.408432      3385.3255 
  90   0.0000     166.805053      4538.9963 
  91   0.0000     200.327900      5451.1993 
  92   0.0000     200.327900      5451.1993 
  93   0.0000     200.327900      5451.1993 
  94   0.0000     200.327900      5451.1993 
  95   0.0000     200.327900      5451.1993 
  96   0.0000     302.295362      8225.8750 
  97   0.0000     302.295362      8225.8750 
  98   0.0000     302.295362      8225.8750 
  99   0.0000     428.075363     11648.5228 
 100   0.0000     441.341911     12009.5240 
 101   0.0000     441.341911     12009.5240 
 102   0.0000     441.341911     12009.5240 
 103   0.0000     441.341911     12009.5240 
 104   0.0000     441.341911     12009.5240 
 105   0.0000     699.015852     19021.1884 
 106   0.0000     699.015852     19021.1884 
 107   0.0000     699.015852     19021.1884 
 108   0.0000     950.387840     25861.3679 
 109   0.0000     950.387840     25861.3679 
 110   0.0000     950.387840     25861.3679 
 111   0.0000     950.387840     25861.3679 
 112   0.0000     950.387840     25861.3679 
 113   0.0000    1038.215322     28251.2752 
 114   0.0000    1545.981110     42068.2847 
 115   0.0000    1545.981110     42068.2847 
 116   0.0000    1545.981110     42068.2847 
 117   0.0000    2004.000343     54531.6217 
 118   0.0000    2004.000343     54531.6217 
 119   0.0000    2004.000343     54531.6217 
 120   0.0000    2004.000343     54531.6217 
 121   0.0000    2004.000343     54531.6217 
 122   0.0000    2381.760580     64811.0003 
 123   0.0000    3298.328284     89752.0755 
 124   0.0000    3298.328284     89752.0755 
 125   0.0000    3298.328284     89752.0755 
 126   0.0000    4153.672221    113027.1673 
 127   0.0000    4153.672221    113027.1673 
 128   0.0000    4153.672221    113027.1673 
 129   0.0000    4153.672221    113027.1673 
 130   0.0000    4153.672221    113027.1673 
 131   0.0000    5204.864047    141631.5511 
 132   0.0000    6839.240160    186105.1862 
 133   0.0000    6839.240160    186105.1862 
 134   0.0000    6839.240160    186105.1862 
 135   0.0000    8499.224137    231275.6466 
 136   0.0000    8499.224137    231275.6466 
 137   0.0000    8499.224137    231275.6466 
 138   0.0000    8499.224137    231275.6466 
 139   0.0000    8499.224137    231275.6466 
 140   0.0000   10937.032726    297611.7908 
 141   0.0000   13857.693503    377087.0110 
 142   0.0000   13857.693503    377087.0110 
 143   0.0000   13857.693503    377087.0110 
 144   0.0000   17428.485970    474253.2138 
 145   0.0000   17428.485970    474253.2138 
 146   0.0000   17428.485970    474253.2138 
 147   0.0000   17428.485970    474253.2138 
 148   0.0000   17428.485970    474253.2138 
 149   0.0000   22278.613070    606231.8819 
 150   0.0000   27555.120445    749812.9471 
 151   0.0000   27555.120445    749812.9471 
 152   0.0000   27555.120445    749812.9471 
 153   0.0000   36049.599490    980959.4731 
 154   0.0000   36049.599490    980959.4731 
 155   0.0000   36049.599490    980959.4731 
 156   0.0000   36049.599490    980959.4731 
 157   0.0000   36049.599490    980959.4731 
 158   0.0000   44232.280099   1203621.5324 
 159   0.0000   53837.442931   1464991.3009 
 160   0.0000   53837.442931   1464991.3009 
 161   0.0000   53837.442931   1464991.3009 
 162   0.0000   85837.202275   2335749.0211 
 163   0.0000   103820.390486   2825096.4503 
 164   0.0000   103820.390486   2825096.4503 
 165   0.0000   103820.390486   2825096.4503 
 166   0.0000   162958.848327   4434335.7002 
 167   0.0000   196502.109861   5347094.2503 
 168   0.0000   196502.109861   5347094.2503 
 169   0.0000   196502.109861   5347094.2503 
 170   0.0000   302449.002895   8230055.7767 
 171   0.0000   374904.720552   10201676.0894 
 172   0.0000   374904.720553   10201676.0894 
 173   0.0000   374904.720553   10201676.0894 
 174   0.0000   548158.278943   14916145.0922 
 175   0.0000   684334.317262   18621683.4808 
 176   0.0000   684334.317262   18621683.4808 
 177   0.0000   684334.317263   18621683.4808 
 178   0.0000   968449.414524   26352848.3221 
 179   0.0000   1668651.954107   45406328.0844 
 180   0.0000   2803155.403507   76277736.4146 
 181   0.0000   4637419.611116   126190603.0248 
 182   0.0000   7568011.364927   205936058.8266 
 183   0.0000   12237020.512154   332986256.8299 
 184   0.0000   18135997.579745   493505583.4839 

                 SPIN DOWN ORBITALS
  NO   OCC          E(Eh)            E(eV) 
   0   1.0000    -918.268168    -24987.3472 
   1   1.0000    -131.045488     -3565.9290 
   2   1.0000    -117.342791     -3193.0597 
   3   1.0000    -117.342791     -3193.0597 
   4   1.0000    -117.342791     -3193.0597 
   5   1.0000     -23.530224      -640.2900 
   6   1.0000     -19.065141      -518.7889 
   7   1.0000     -19.065141      -518.7889 
   8   1.0000     -19.065141      -518.7889 
   9   1.0000     -11.992220      -326.3249 
  10   1.0000     -11.992220      -326.3249 
  11   1.0000     -11.992220      -326.3249 
  12   1.0000     -11.992220      -326.3249 
  13   1.0000     -11.992220      -326.3249 
  14   1.0000      -3.157021       -85.9069 
  15   1.0000      -1.891107       -51.4596 
  16   1.0000      -1.891107       -51.4596 
  17   1.0000      -1.891107       -51.4596 
  18   1.0000      -0.147381        -4.0104 
  19   1.0000      -0.147381        -4.0104 
  20   1.0000      -0.147381        -4.0104 
  21   1.0000      -0.147381        -4.0104 
  22   1.0000      -0.147381        -4.0104 
  23   0.0000      -0.091949        -2.5021 
  24   0.0000       0.076537         2.0827 
  25   0.0000       0.076537         2.0827 
  26   0.0000       0.076537         2.0827 
  27   0.0000       0.146560         3.9881 
  28   0.0000       0.146560         3.9881 
  29   0.0000       0.146560         3.9881 
  30   0.0000       0.146560         3.9881 
  31   0.0000       0.146560         3.9881 
  32   0.0000       0.531385        14.4597 
  33   0.0000       0.531385        14.4597 
  34   0.0000       0.531385        14.4597 
  35   0.0000       0.531385        14.4597 
  36   0.0000       0.531385        14.4597 
  37   0.0000       0.658944        17.9308 
  38   0.0000       0.785046        21.3622 
  39   0.0000       0.785046        21.3622 
  40   0.0000       0.785046        21.3622 
  41   0.0000       1.374769        37.4094 
  42   0.0000       1.374769        37.4094 
  43   0.0000       1.374769        37.4094 
  44   0.0000       1.374769        37.4094 
  45   0.0000       1.374769        37.4094 
  46   0.0000       2.627123        71.4877 
  47   0.0000       2.627123        71.4877 
  48   0.0000       2.627123        71.4877 
  49   0.0000       2.664096        72.4937 
  50   0.0000       3.225313        87.7652 
  51   0.0000       3.225313        87.7652 
  52   0.0000       3.225313        87.7652 
  53   0.0000       3.225313        87.7652 
  54   0.0000       3.225313        87.7652 
  55   0.0000       7.190968       195.6762 
  56   0.0000       7.190968       195.6762 
  57   0.0000       7.190968       195.6762 
  58   0.0000       7.361887       200.3271 
  59   0.0000       7.361887       200.3271 
  60   0.0000       7.361887       200.3271 
  61   0.0000       7.361887       200.3271 
  62   0.0000       7.361887       200.3271 
  63   0.0000       7.941841       216.1085 
  64   0.0000      16.844198       458.3539 
  65   0.0000      16.844198       458.3539 
  66   0.0000      16.844198       458.3539 
  67   0.0000      16.844198       458.3539 
  68   0.0000      16.844198       458.3539 
  69   0.0000      18.842584       512.7328 
  70   0.0000      18.842584       512.7328 
  71   0.0000      18.842584       512.7328 
  72   0.0000      22.314539       607.2095 
  73   0.0000      38.814605      1056.1991 
  74   0.0000      38.814605      1056.1991 
  75   0.0000      38.814605      1056.1991 
  76   0.0000      38.814605      1056.1991 
  77   0.0000      38.814605      1056.1991 
  78   0.0000      48.994200      1333.2000 
  79   0.0000      48.994200      1333.2000 
  80   0.0000      48.994200      1333.2000 
  81   0.0000      61.910290      1684.6646 
  82   0.0000      88.964719      2420.8531 
  83   0.0000      88.964719      2420.8531 
  84   0.0000      88.964719      2420.8531 
  85   0.0000      88.964719      2420.8531 
  86   0.0000      88.964719      2420.8531 
  87   0.0000     124.408432      3385.3255 
  88   0.0000     124.408432      3385.3255 
  89   0.0000     124.408432      3385.3255 
  90   0.0000     166.805053      4538.9963 
  91   0.0000     200.327900      5451.1993 
  92   0.0000     200.327900      5451.1993 
  93   0.0000     200.327900      5451.1993 
  94   0.0000     200.327900      5451.1993 
  95   0.0000     200.327900      5451.1993 
  96   0.0000     302.295362      8225.8750 
  97   0.0000     302.295362      8225.8750 
  98   0.0000     302.295362      8225.8750 
  99   0.0000     428.075363     11648.5228 
 100   0.0000     441.341911     12009.5240 
 101   0.0000     441.341911     12009.5240 
 102   0.0000     441.341911     12009.5240 
 103   0.0000     441.341911     12009.5240 
 104   0.0000     441.341911     12009.5240 
 105   0.0000     699.015852     19021.1884 
 106   0.0000     699.015852     19021.1884 
 107   0.0000     699.015852     19021.1884 
 108   0.0000     950.387840     25861.3679 
 109   0.0000     950.387840     25861.3679 
 110   0.0000     950.387840     25861.3679 
 111   0.0000     950.387840     25861.3679 
 112   0.0000     950.387840     25861.3679 
 113   0.0000    1038.215322     28251.2752 
 114   0.0000    1545.981110     42068.2847 
 115   0.0000    1545.981110     42068.2847 
 116   0.0000    1545.981110     42068.2847 
 117   0.0000    2004.000343     54531.6217 
 118   0.0000    2004.000343     54531.6217 
 119   0.0000    2004.000343     54531.6217 
 120   0.0000    2004.000343     54531.6217 
 121   0.0000    2004.000343     54531.6217 
 122   0.0000    2381.760580     64811.0003 
 123   0.0000    3298.328284     89752.0755 
 124   0.0000    3298.328284     89752.0755 
 125   0.0000    3298.328284     89752.0755 
 126   0.0000    4153.672221    113027.1673 
 127   0.0000    4153.672221    113027.1673 
 128   0.0000    4153.672221    113027.1673 
 129   0.0000    4153.672221    113027.1673 
 130   0.0000    4153.672221    113027.1673 
 131   0.0000    5204.864047    141631.5511 
 132   0.0000    6839.240160    186105.1862 
 133   0.0000    6839.240160    186105.1862 
 134   0.0000    6839.240160    186105.1862 
 135   0.0000    8499.224137    231275.6466 
 136   0.0000    8499.224137    231275.6466 
 137   0.0000    8499.224137    231275.6466 
 138   0.0000    8499.224137    231275.6466 
 139   0.0000    8499.224137    231275.6466 
 140   0.0000   10937.032726    297611.7908 
 141   0.0000   13857.693503    377087.0110 
 142   0.0000   13857.693503    377087.0110 
 143   0.0000   13857.693503    377087.0110 
 144   0.0000   17428.485970    474253.2138 
 145   0.0000   17428.485970    474253.2138 
 146   0.0000   17428.485970    474253.2138 
 147   0.0000   17428.485970    474253.2138 
 148   0.0000   17428.485970    474253.2138 
 149   0.0000   22278.613070    606231.8819 
 150   0.0000   27555.120445    749812.9471 
 151   0.0000   27555.120445    749812.9471 
 152   0.0000   27555.120445    749812.9471 
 153   0.0000   36049.599490    980959.4731 
 154   0.0000   36049.599490    980959.4731 
 155   0.0000   36049.599490    980959.4731 
 156   0.0000   36049.599490    980959.4731 
 157   0.0000   36049.599490    980959.4731 
 158   0.0000   44232.280099   1203621.5324 
 159   0.0000   53837.442931   1464991.3009 
 160   0.0000   53837.442931   1464991.3009 
 161   0.0000   53837.442931   1464991.3009 
 162   0.0000   85837.202275   2335749.0211 
 163   0.0000   103820.390486   2825096.4503 
 164   0.0000   103820.390486   2825096.4503 
 165   0.0000   103820.390486   2825096.4503 
 166   0.0000   162958.848327   4434335.7002 
 167   0.0000   196502.109861   5347094.2503 
 168   0.0000   196502.109861   5347094.2503 
 169   0.0000   196502.109861   5347094.2503 
 170   0.0000   302449.002895   8230055.7767 
 171   0.0000   374904.720552   10201676.0894 
 172   0.0000   374904.720552   10201676.0894 
 173   0.0000   374904.720553   10201676.0894 
 174   0.0000   548158.278943   14916145.0922 
 175   0.0000   684334.317262   18621683.4808 
 176   0.0000   684334.317262   18621683.4808 
 177   0.0000   684334.317263   18621683.4808 
 178   0.0000   968449.414524   26352848.3221 
 179   0.0000   1668651.954107   45406328.0844 
 180   0.0000   2803155.403507   76277736.4146 
 181   0.0000   4637419.611116   126190603.0248 
 182   0.0000   7568011.364927   205936058.8266 
 183   0.0000   12237020.512154   332986256.8299 
 184   0.0000   18135997.579745   493505583.4839 

                    ********************************
                    * MULLIKEN POPULATION ANALYSIS *
                    ********************************

--------------------------------------------
MULLIKEN ATOMIC CHARGES AND SPIN POPULATIONS
--------------------------------------------
   0 Pd:    0.000000   -0.000000
Sum of atomic charges         :    0.0000000
Sum of atomic spin populations:   -0.0000000

-----------------------------------------------------
MULLIKEN REDUCED ORBITAL CHARGES AND SPIN POPULATIONS
-----------------------------------------------------
CHARGE
  0 Pds       :     8.000000  s :     8.000000
      pz      :     6.000000  p :    18.000000
      px      :     6.000000
      py      :     6.000000
      dz2     :     4.000000  d :    20.000000
      dxz     :     4.000000
      dyz     :     4.000000
      dx2y2   :     4.000000
      dxy     :     4.000000

SPIN
  0 Pds       :    -0.000000  s :    -0.000000
      pz      :    -0.000000  p :    -0.000000
      px      :    -0.000000
      py      :    -0.000000
      dz2     :    -0.000000  d :    -0.000000
      dxz     :    -0.000000
      dyz     :    -0.000000
      dx2y2   :    -0.000000
      dxy     :    -0.000000


                     *******************************
                     * LOEWDIN POPULATION ANALYSIS *
                     *******************************

-------------------------------------------
LOEWDIN ATOMIC CHARGES AND SPIN POPULATIONS
-------------------------------------------
   0 Pd:    0.000000   -0.000000

----------------------------------------------------
LOEWDIN REDUCED ORBITAL CHARGES AND SPIN POPULATIONS
----------------------------------------------------
CHARGE
  0 Pds       :     8.000000  s :     8.000000
      pz      :     6.000000  p :    18.000000
      px      :     6.000000
      py      :     6.000000
      dz2     :     4.000000  d :    20.000000
      dxz     :     4.000000
      dyz     :     4.000000
      dx2y2   :     4.000000
      dxy     :     4.000000

SPIN
  0 Pds       :    -0.000000  s :    -0.000000
      pz      :    -0.000000  p :    -0.000000
      px      :    -0.000000
      py      :    -0.000000
      dz2     :    -0.000000  d :    -0.000000
      dxz     :    -0.000000
      dyz     :    -0.000000
      dx2y2   :    -0.000000
      dxy     :    -0.000000


                      *****************************
                      * MAYER POPULATION ANALYSIS *
                      *****************************

  NA   - Mulliken gross atomic population
  ZA   - Total nuclear charge
  QA   - Mulliken gross atomic charge
  VA   - Mayer's total valence
  BVA  - Mayer's bonded valence
  FA   - Mayer's free valence

  ATOM       NA         ZA         QA         VA         BVA        FA
  0 Pd    46.0000    46.0000     0.0000     0.0000     0.0000     0.0000

  Mayer bond orders larger than 0.100000


-------
TIMINGS
-------

Total SCF time: 0 days 0 hours 3 min 48 sec 

Total time                  ....     228.484 sec
Sum of individual times     ....     143.375 sec  ( 62.8%)

Fock matrix formation       ....     126.787 sec  ( 55.5%)
  XC integration            ....      40.365 sec  ( 31.8% of F)
    Basis function eval.    ....       0.028 sec  (  0.1% of XC)
    Density eval.           ....       0.502 sec  (  1.2% of XC)
    XC-Functional eval.     ....       0.043 sec  (  0.1% of XC)
    XC-Potential eval.      ....       0.062 sec  (  0.2% of XC)
Diagonalization             ....       0.768 sec  (  0.3%)
Density matrix formation    ....       0.016 sec  (  0.0%)
Population analysis         ....       0.230 sec  (  0.1%)
Initial guess               ....      11.491 sec  (  5.0%)
Orbital Transformation      ....       0.000 sec  (  0.0%)
Orbital Orthonormalization  ....       0.000 sec  (  0.0%)
DIIS solution               ....       0.075 sec  (  0.0%)
SOSCF solution              ....       1.024 sec  (  0.4%)
Grid generation             ....       2.984 sec  (  1.3%)

Maximum memory used throughout the entire SCF-calculation: 229.5 MB

-------------------------   --------------------
FINAL SINGLE POINT ENERGY     -5127.395569373315
-------------------------   --------------------


                            ***************************************
                            *     ORCA property calculations      *
                            ***************************************

                                    ---------------------
                                    Active property flags
                                    ---------------------
   (+) Dipole Moment


------------------------------------------------------------------------------
                       ORCA ELECTRIC PROPERTIES CALCULATION
------------------------------------------------------------------------------

Dipole Moment Calculation                       ... on
Quadrupole Moment Calculation                   ... off
Polarizability Calculation                      ... off
GBWName                                         ... Pd_ugbs_pbe.gbw
Electron density                                ... Pd_ugbs_pbe.scfp
The origin for moment calculation is the CENTER OF MASS  = ( 0.000000,  0.000000  0.000000)

-------------
DIPOLE MOMENT
-------------
                                X             Y             Z
Electronic contribution:     -0.00000       0.00000      -0.00000
Nuclear contribution   :      0.00000       0.00000       0.00000
                        -----------------------------------------
Total Dipole Moment    :     -0.00000       0.00000      -0.00000
                        -----------------------------------------
Magnitude (a.u.)       :      0.00000
Magnitude (Debye)      :      0.00000



--------------------
Rotational spectrum 
--------------------
 
Rotational constants in cm-1:     0.000000     0.000000     0.000000 
Rotational constants in MHz :     0.000000     0.000000     0.000000 

 Dipole components along the rotational axes: 
x,y,z [a.u.] :    -0.000000     0.000000    -0.000000 
x,y,z [Debye]:    -0.000000     0.000000    -0.000000 

 

Timings for individual modules:

Sum of individual times         ...      381.733 sec (=   6.362 min)
GTO integral calculation        ...      116.805 sec (=   1.947 min)  30.6 %
Relativistic integrals          ...       27.402 sec (=   0.457 min)   7.2 %
SCF iterations                  ...      237.526 sec (=   3.959 min)  62.2 %
                             ****ORCA TERMINATED NORMALLY****
TOTAL RUN TIME: 0 days 0 hours 6 minutes 28 seconds 600 msec
