
                                 *****************
                                 * O   R   C   A *
                                 *****************

                                            #,                                       
                                            ###                                      
                                            ####                                     
                                            #####                                    
                                            ######                                   
                                           ########,                                 
                                     ,,################,,,,,                         
                               ,,#################################,,                 
                          ,,##########################################,,             
                       ,#########################################, ''#####,          
                    ,#############################################,,   '####,        
                  ,##################################################,,,,####,       
                ,###########''''           ''''###############################       
              ,#####''   ,,,,##########,,,,          '''####'''          '####       
            ,##' ,,,,###########################,,,                        '##       
           ' ,,###''''                  '''############,,,                           
         ,,##''                                '''############,,,,        ,,,,,,###''
      ,#''                                            '''#######################'''  
     '                                                          ''''####''''         
             ,#######,   #######,   ,#######,      ##                                
            ,#'     '#,  ##    ##  ,#'     '#,    #''#        ######   ,####,        
            ##       ##  ##   ,#'  ##            #'  '#       #        #'  '#        
            ##       ##  #######   ##           ,######,      #####,   #    #        
            '#,     ,#'  ##    ##  '#,     ,#' ,#      #,         ##   #,  ,#        
             '#######'   ##     ##  '#######'  #'      '#     #####' # '####'        



                  #######################################################
                  #                        -***-                        #
                  #          Department of theory and spectroscopy      #
                  #    Directorship and core code : Frank Neese         #
                  #        Max Planck Institute fuer Kohlenforschung    #
                  #                Kaiser Wilhelm Platz 1               #
                  #                 D-45470 Muelheim/Ruhr               #
                  #                      Germany                        #
                  #                                                     #
                  #                  All rights reserved                #
                  #                        -***-                        #
                  #######################################################


                         Program Version 5.0.1 -  RELEASE  -


 With contributions from (in alphabetic order):
   Daniel Aravena         : Magnetic Suceptibility
   Michael Atanasov       : Ab Initio Ligand Field Theory (pilot matlab implementation)
   Alexander A. Auer      : GIAO ZORA, VPT2 properties, NMR spectrum
   Ute Becker             : Parallelization
   Giovanni Bistoni       : ED, misc. LED, open-shell LED, HFLD
   Martin Brehm           : Molecular dynamics
   Dmytro Bykov           : SCF Hessian
   Vijay G. Chilkuri      : MRCI spin determinant printing, contributions to CSF-ICE
   Dipayan Datta          : RHF DLPNO-CCSD density
   Achintya Kumar Dutta   : EOM-CC, STEOM-CC
   Dmitry Ganyushin       : Spin-Orbit,Spin-Spin,Magnetic field MRCI
   Miquel Garcia          : C-PCM and meta-GGA Hessian, CC/C-PCM, Gaussian charge scheme
   Yang Guo               : DLPNO-NEVPT2, F12-NEVPT2, CIM, IAO-localization
   Andreas Hansen         : Spin unrestricted coupled pair/coupled cluster methods
   Benjamin Helmich-Paris : MC-RPA, TRAH-SCF, COSX integrals
   Lee Huntington         : MR-EOM, pCC
   Robert Izsak           : Overlap fitted RIJCOSX, COSX-SCS-MP3, EOM
   Marcus Kettner         : VPT2
   Christian Kollmar      : KDIIS, OOCD, Brueckner-CCSD(T), CCSD density, CASPT2, CASPT2-K
   Simone Kossmann        : Meta GGA functionals, TD-DFT gradient, OOMP2, MP2 Hessian
   Martin Krupicka        : Initial AUTO-CI
   Lucas Lang             : DCDCAS
   Marvin Lechner         : AUTO-CI (C++ implementation), FIC-MRCC
   Dagmar Lenk            : GEPOL surface, SMD
   Dimitrios Liakos       : Extrapolation schemes; Compound Job, initial MDCI parallelization
   Dimitrios Manganas     : Further ROCIS development; embedding schemes
   Dimitrios Pantazis     : SARC Basis sets
   Anastasios Papadopoulos: AUTO-CI, single reference methods and gradients
   Taras Petrenko         : DFT Hessian,TD-DFT gradient, ASA, ECA, R-Raman, ABS, FL, XAS/XES, NRVS
   Peter Pinski           : DLPNO-MP2, DLPNO-MP2 Gradient
   Christoph Reimann      : Effective Core Potentials
   Marius Retegan         : Local ZFS, SOC
   Christoph Riplinger    : Optimizer, TS searches, QM/MM, DLPNO-CCSD(T), (RO)-DLPNO pert. Triples
   Tobias Risthaus        : Range-separated hybrids, TD-DFT gradient, RPA, STAB
   Michael Roemelt        : Original ROCIS implementation
   Masaaki Saitow         : Open-shell DLPNO-CCSD energy and density
   Barbara Sandhoefer     : DKH picture change effects
   Avijit Sen             : IP-ROCIS
   Kantharuban Sivalingam : CASSCF convergence, NEVPT2, FIC-MRCI
   Bernardo de Souza      : ESD, SOC TD-DFT
   Georgi Stoychev        : AutoAux, RI-MP2 NMR, DLPNO-MP2 response
   Willem Van den Heuvel  : Paramagnetic NMR
   Boris Wezisla          : Elementary symmetry handling
   Frank Wennmohs         : Technical directorship


 We gratefully acknowledge several colleagues who have allowed us to
 interface, adapt or use parts of their codes:
   Stefan Grimme, W. Hujo, H. Kruse, P. Pracht,  : VdW corrections, initial TS optimization,
                  C. Bannwarth, S. Ehlert          DFT functionals, gCP, sTDA/sTD-DF
   Ed Valeev, F. Pavosevic, A. Kumar             : LibInt (2-el integral package), F12 methods
   Garnet Chan, S. Sharma, J. Yang, R. Olivares  : DMRG
   Ulf Ekstrom                                   : XCFun DFT Library
   Mihaly Kallay                                 : mrcc  (arbitrary order and MRCC methods)
   Jiri Pittner, Ondrej Demel                    : Mk-CCSD
   Frank Weinhold                                : gennbo (NPA and NBO analysis)
   Christopher J. Cramer and Donald G. Truhlar   : smd solvation model
   Lars Goerigk                                  : TD-DFT with DH, B97 family of functionals
   V. Asgeirsson, H. Jonsson                     : NEB implementation
   FAccTs GmbH                                   : IRC, NEB, NEB-TS, DLPNO-Multilevel, CI-OPT
                                                   MM, QMMM, 2- and 3-layer-ONIOM, Crystal-QMMM,
                                                   LR-CPCM, SF, NACMEs, symmetry and pop. for TD-DFT,
                                                   nearIR, NL-DFT gradient (VV10), updates on ESD,
                                                   ML-optimized integration grids
   S Lehtola, MJT Oliveira, MAL Marques          : LibXC Library
   Liviu Ungur et al                             : ANISO software


 Your calculation uses the libint2 library for the computation of 2-el integrals
 For citations please refer to: http://libint.valeyev.net

 Your ORCA version has been built with support for libXC version: 5.1.0
 For citations please refer to: https://tddft.org/programs/libxc/

 This ORCA versions uses:
   CBLAS   interface :  Fast vector & matrix operations
   LAPACKE interface :  Fast linear algebra routines
   SCALAPACK package :  Parallel linear algebra routines
   Shared memory     :  Shared parallel matrices
   BLAS/LAPACK       :  OpenBLAS 0.3.15  USE64BITINT DYNAMIC_ARCH NO_AFFINITY Haswell SINGLE_THREADED
        Core in use  :  Haswell
   Copyright (c) 2011-2014, The OpenBLAS Project


SCAN-COORDS

Reading of a custom basis requested
Basis file         : Rb_ugbs.basis
READING GTO-BASIS: RUBIDIUM
Basis successfully read

================================================================================

----- Orbital basis set information -----
================================================================================
                                        WARNINGS
                       Please study these warnings very carefully!
================================================================================


INFO   : the flag for use of the SHARK integral package has been found!

================================================================================
                                       INPUT FILE
================================================================================
NAME = Rb_ugbs_pbe.inp
|  1> !uks pbe nori verytightscf soscf notrah
|  2> 
|  3> %pal
|  4>   nprocs 32
|  5> end
|  6> %coords
|  7>   charge 0
|  8>   mult 2
|  9>   units bohrs
| 10>   coords
| 11>     Rb 0.0 0.0 0.0
| 12>   end
| 13> end
| 14> %basis
| 15>   gtoname "Rb_ugbs.basis"
| 16>   delECP Rb
| 17> end
| 18> %rel
| 19>   method zora
| 20>   modelpot 1, 0, 0, 0
| 21>   c 137.035999084
| 22> endd                         ****END OF INPUT****
================================================================================

                       ****************************
                       * Single Point Calculation *
                       ****************************

---------------------------------
CARTESIAN COORDINATES (ANGSTROEM)
---------------------------------
  Rb     0.000000    0.000000    0.000000

----------------------------
CARTESIAN COORDINATES (A.U.)
----------------------------
  NO LB      ZA    FRAG     MASS         X           Y           Z
   0 Rb   37.0000    0    85.479    0.000000    0.000000    0.000000

--------------------------------
INTERNAL COORDINATES (ANGSTROEM)
--------------------------------
 Rb     0   0   0     0.000000000000     0.00000000     0.00000000

---------------------------
INTERNAL COORDINATES (A.U.)
---------------------------
 Rb     0   0   0     0.000000000000     0.00000000     0.00000000

---------------------
BASIS SET INFORMATION
---------------------
There are 1 groups of distinct atoms

 Group   1 Type Rb  : 30s20p14d contracted to 30s20p14d pattern {111111111111111111111111111111/11111111111111111111/11111111111111}

Atom   0Rb   basis set group =>   1


           ************************************************************
           *        Program running with 32 parallel MPI-processes    *
           *              working on a common directory               *
           ************************************************************
------------------------------------------------------------------------------
                           ORCA GTO INTEGRAL CALCULATION
------------------------------------------------------------------------------
------------------------------------------------------------------------------
                   ___                                                        
                  /   \      - P O W E R E D   B Y -                         
                 /     \                                                     
                 |  |  |   _    _      __       _____    __    __             
                 |  |  |  | |  | |    /  \     |  _  \  |  |  /  |          
                  \  \/   | |  | |   /    \    | | | |  |  | /  /          
                 / \  \   | |__| |  /  /\  \   | |_| |  |  |/  /          
                |  |  |   |  __  | /  /__\  \  |    /   |      \           
                |  |  |   | |  | | |   __   |  |    \   |  |\   \          
                \     /   | |  | | |  |  |  |  | |\  \  |  | \   \       
                 \___/    |_|  |_| |__|  |__|  |_| \__\ |__|  \__/        
                                                                              
                      - O R C A' S   B I G   F R I E N D -                    
                                      &                                       
                       - I N T E G R A L  F E E D E R -                       
                                                                              
 v1 FN, 2020, v2 2021                                                         
------------------------------------------------------------------------------


Reading SHARK input file Rb_ugbs_pbe.SHARKINP.tmp ... ok
----------------------
SHARK INTEGRAL PACKAGE
----------------------

Number of atoms                             ...      1
Number of basis functions                   ...    160
Number of shells                            ...     64
Maximum angular momentum                    ...      2
Integral batch strategy                     ... SHARK/LIBINT Hybrid
RI-J (if used) integral strategy            ... SPLIT-RIJ (Revised 2003 algorithm where possible)
Printlevel                                  ...      1
Contraction scheme used                     ... SEGMENTED contraction
Coulomb Range Separation                    ... NOT USED
Exchange Range Separation                   ... NOT USED
Finite Nucleus Model                        ... NOT USED
Auxiliary Coulomb fitting basis             ... NOT available
Auxiliary J/K fitting basis                 ... NOT available
Auxiliary Correlation fitting basis         ... NOT available
Auxiliary 'external' fitting basis          ... NOT available
Integral threshold                          ...     1.000000e-12
Primitive cut-off                           ...     1.000000e-14
Primitive pair pre-selection threshold      ...     1.000000e-14

Calculating pre-screening integrals         ... done (  2.2 sec) Dimension = 64
Organizing shell pair data                  ... done (  0.7 sec)
Shell pair information
Total number of shell pairs                 ...      2080
Shell pairs after pre-screening             ...      2080
Total number of primitive shell pairs       ...      2080
Primitive shell pairs kept                  ...      2080
          la=0 lb=0:    465 shell pairs
          la=1 lb=0:    600 shell pairs
          la=1 lb=1:    210 shell pairs
          la=2 lb=0:    420 shell pairs
          la=2 lb=1:    280 shell pairs
          la=2 lb=2:    105 shell pairs

Calculating one electron integrals          ... done (  0.5 sec)
Calculating Nuclear repulsion               ... done (  0.0 sec) ENN=      0.000000000000 Eh

SHARK setup successfully completed in   4.4 seconds

Maximum memory used throughout the entire GTOINT-calculation: 6.0 MB


           ************************************************************
           *        Program running with 32 parallel MPI-processes    *
           *              working on a common directory               *
           ************************************************************
------------------------------------------------------------------------------
                          ORCA RELATIVISTIC HAMILTONIAN
------------------------------------------------------------------------------

Relativistic Method            ... ZORA(MP)
Treatment of potential         ... Van Wuellen
Nucleus model                  ... Point Nucleus
Speed of light used            ... 137.03599908400000


            *************************************************
            *         ZERO ORDER REGULAR APPROXIMATION      *
            *                     ZORA(MP)                  *
            *            Programmed by FN according to      *
            *                   C. van Wuellen              *
            *       J. Chem. Phys. (1998) vol 109, 392-399  *
            *************************************************

Terms included in model potential: +V(e,N)
Basis function cutoff value   ... 1.000000e-12
Loading the fitted atomic densities  (DKH4)  ... done
Calculating the cutoffs                      ... done
Number of fit functions                      ... 29
Setting up the integration grid ... done

Maximum memory used throughout the entire REL-calculation: 10.4 MB


           ************************************************************
           *        Program running with 32 parallel MPI-processes    *
           *              working on a common directory               *
           ************************************************************
-------------------------------------------------------------------------------
                                 ORCA SCF
-------------------------------------------------------------------------------

------------
SCF SETTINGS
------------
Hamiltonian:
 Density Functional     Method          .... DFT(GTOs)
 Exchange Functional    Exchange        .... PBE
   PBE kappa parameter   XKappa         ....  0.804000
   PBE mue parameter    XMuePBE         ....  0.219520
 Correlation Functional Correlation     .... PBE
   PBE beta parameter  CBetaPBE         ....  0.066725
 LDA part of GGA corr.  LDAOpt          .... PW91-LDA
 Gradients option       PostSCFGGA      .... off
   Density functional embedding theory  .... OFF
   NL short-range parameter             ....  6.400000

Relativistic Settings:
 Scalar relativistic method             .... ZORA
 Speed of light used       Velit        ....       137.035999
Orbital energies will be scaled


General Settings:
 Integral files         IntName         .... Rb_ugbs_pbe
 Hartree-Fock type      HFTyp           .... UHF
 Total Charge           Charge          ....    0
 Multiplicity           Mult            ....    2
 Number of Electrons    NEL             ....   37
 Basis Dimension        Dim             ....  160
 Nuclear Repulsion      ENuc            ....      0.0000000000 Eh

Convergence Acceleration:
 DIIS                   CNVDIIS         .... on
   Start iteration      DIISMaxIt       ....    12
   Startup error        DIISStart       ....  0.200000
   # of expansion vecs  DIISMaxEq       ....     5
   Bias factor          DIISBfac        ....   1.050
   Max. coefficient     DIISMaxC        ....  10.000
 Trust-Rad. Augm. Hess. CNVTRAH         .... off
 SOSCF                  CNVSOSCF        .... on
   Start iteration      SOSCFMaxIt      ....   150
   Startup grad/error   SOSCFStart      ....  0.003300
 Level Shifting         CNVShift        .... on
   Level shift para.    LevelShift      ....    0.2500
   Turn off err/grad.   ShiftErr        ....    0.0010
 Zerner damping         CNVZerner       .... off
 Static damping         CNVDamp         .... on
   Fraction old density DampFac         ....    0.7000
   Max. Damping (<1)    DampMax         ....    0.9800
   Min. Damping (>=0)   DampMin         ....    0.0000
   Turn off err/grad.   DampErr         ....    0.1000
 Fernandez-Rico         CNVRico         .... off

SCF Procedure:
 Maximum # iterations   MaxIter         ....   125
 SCF integral mode      SCFMode         .... Direct
   Integral package                     .... SHARK and LIBINT hybrid scheme
 Reset frequency        DirectResetFreq ....    20
 Integral Threshold     Thresh          ....  1.000e-12 Eh
 Primitive CutOff       TCut            ....  1.000e-14 Eh

Convergence Tolerance:
 Convergence Check Mode ConvCheckMode   .... Total+1el-Energy
 Convergence forced     ConvForced      .... 0
 Energy Change          TolE            ....  1.000e-09 Eh
 1-El. energy change                    ....  1.000e-06 Eh
 Orbital Gradient       TolG            ....  2.000e-06
 Orbital Rotation angle TolX            ....  2.000e-06
 DIIS Error             TolErr          ....  1.000e-08


Diagonalization of the overlap matrix:
Smallest eigenvalue                        ... 6.125e-05
Time for diagonalization                   ...    0.181 sec
Threshold for overlap eigenvalues          ... 1.000e-08
Number of eigenvalues below threshold      ... 0
Time for construction of square roots      ...    0.356 sec
Total time needed                          ...    0.539 sec

Time for model grid setup =    0.183 sec

------------------------------
INITIAL GUESS: MODEL POTENTIAL
------------------------------
Loading ZORA relativistic densities                ... done
Calculating cut-offs                               ... done
Initializing the effective Hamiltonian             ... done
Setting up the integral package (SHARK)            ... done
Starting the Coulomb interaction                   ... done (   1.6 sec)
Reading the grid                                   ... done
Mapping shells                                     ... done
Starting the XC term evaluation                    ... done (   0.1 sec)
  promolecular density results
     # of electrons  =     37.000037192
     EX              =   -100.521093553
     EC              =     -1.798213707
     EX+EC           =   -102.319307260
Transforming the Hamiltonian                       ... done (   0.0 sec)
Diagonalizing the Hamiltonian                      ... done (   0.0 sec)
Back transforming the eigenvectors                 ... done (   0.0 sec)
Now organizing SCF variables                       ... done
                      ------------------
                      INITIAL GUESS DONE (   2.0 sec)
                      ------------------
-------------------
DFT GRID GENERATION
-------------------

General Integration Accuracy     IntAcc      ... 4.388
Radial Grid Type                 RadialGrid  ... OptM3 with GC (2021)
Angular Grid (max. ang.)         AngularGrid ... 4 (Lebedev-302)
Angular grid pruning method      GridPruning ... 4 (adaptive)
Weight generation scheme         WeightScheme... Becke
Basis function cutoff            BFCut       ... 1.0000e-12
Integration weight cutoff        WCut        ... 1.0000e-14
Angular grids for H and He will be reduced by one unit
Partially contracted basis set               ... off
Rotationally invariant grid construction     ... off

Total number of grid points                  ...    27544
Total number of batches                      ...      431
Average number of points per batch           ...       63
Average number of grid points per atom       ...    27544
Time for grid setup =    0.777 sec

--------------
SCF ITERATIONS
--------------
ITER       Energy         Delta-E        Max-DP      RMS-DP      [F,P]     Damp
               ***  Starting incremental Fock matrix formation  ***
  0  -3013.6226211742   0.000000000000 0.01930819  0.00021976  0.8042112 0.7000
  1  -3013.6235616337  -0.000940459493 0.01898783  0.00022022  0.5548783 0.7000
                      *** Initiating the SOSCF procedure ***
                      *** Re-Reading the Fockian *** 
                      *** Removing any level shift *** 
ITER      Energy       Delta-E        Grad      Rot      Max-DP    RMS-DP
  2  -3013.62410823  -0.0005465920  0.002181  0.002181  0.049817  0.000592
               *** Restarting incremental Fock matrix formation ***
  3  -3013.62525370  -0.0011454780  0.004237  0.005633  0.017503  0.000138
  4  -3013.62526445  -0.0000107503  0.002442  0.000866  0.003071  0.000030
  5  -3013.62529157  -0.0000271200  0.000310  0.000425  0.003225  0.000034
  6  -3013.62529170  -0.0000001226  0.000071  0.000141  0.000328  0.000003
  7  -3013.62529173  -0.0000000345  0.000013  0.000014  0.000069  0.000001
  8  -3013.62529173  -0.0000000001  0.000002  0.000002  0.000019  0.000000
                 **** Energy Check signals convergence ****
              ***Rediagonalizing the Fockian in SOSCF/NRSCF***

               *****************************************************
               *                     SUCCESS                       *
               *           SCF CONVERGED AFTER   9 CYCLES          *
               *****************************************************


----------------
TOTAL SCF ENERGY
----------------

Total Energy       :        -3013.62529173 Eh          -82004.91324 eV

Components:
Nuclear Repulsion  :            0.00000000 Eh               0.00000 eV
Electronic Energy  :        -3013.62529173 Eh          -82004.91324 eV
One Electron Energy:        -4168.09700720 Eh         -113419.68571 eV
Two Electron Energy:         1154.47171547 Eh           31414.77247 eV

Virial components:
Potential Energy   :        -6102.48797176 Eh         -166057.13989 eV
Kinetic Energy     :         3088.86268003 Eh           84052.22666 eV
Virial Ratio       :            1.97564237


DFT components:
N(Alpha)           :       18.999999999966 electrons
N(Beta)            :       18.000000000041 electrons
N(Total)           :       37.000000000007 electrons
E(X)               :      -99.554432125996 Eh       
E(C)               :       -1.795593215170 Eh       
E(XC)              :     -101.350025341166 Eh       
DFET-embed. en.    :        0.000000000000 Eh       

---------------
SCF CONVERGENCE
---------------

  Last Energy change         ...   -4.5475e-13  Tolerance :   1.0000e-09
  Last MAX-Density change    ...    1.0614e-06  Tolerance :   1.0000e-08
  Last RMS-Density change    ...    9.7819e-09  Tolerance :   1.0000e-09
  Last Orbital Gradient      ...    5.2767e-08  Tolerance :   2.0000e-06
  Last Orbital Rotation      ...    1.3568e-07  Tolerance :   2.0000e-06

             **** THE GBW FILE WAS UPDATED (Rb_ugbs_pbe.gbw) ****
             **** DENSITY Rb_ugbs_pbe.scfp WAS UPDATED ****
             **** ENERGY FILE WAS UPDATED (Rb_ugbs_pbe.en.tmp) ****
----------------------
UHF SPIN CONTAMINATION
----------------------

Warning: in a DFT calculation there is little theoretical justification to 
         calculate <S**2> as in Hartree-Fock theory. We will do it anyways
         but you should keep in mind that the values have only limited relevance

Expectation value of <S**2>     :     0.750135
Ideal value S*(S+1) for S=0.5   :     0.750000
Deviation                       :     0.000135

             **** THE GBW FILE WAS UPDATED (Rb_ugbs_pbe.gbw) ****
             **** DENSITY Rb_ugbs_pbe.scfp WAS UPDATED ****
----------------
ORBITAL ENERGIES
----------------
                 SPIN UP ORBITALS
  NO   OCC          E(Eh)            E(eV) 
   0   1.0000    -564.507649    -15361.0341 
   1   1.0000     -74.318747     -2022.3159 
   2   1.0000     -65.818386     -1791.0093 
   3   1.0000     -65.818386     -1791.0093 
   4   1.0000     -65.818386     -1791.0093 
   5   1.0000     -10.998161      -299.2752 
   6   1.0000      -8.288372      -225.5381 
   7   1.0000      -8.288372      -225.5381 
   8   1.0000      -8.288372      -225.5381 
   9   1.0000      -3.817587      -103.8818 
  10   1.0000      -3.817587      -103.8818 
  11   1.0000      -3.817587      -103.8818 
  12   1.0000      -3.817587      -103.8818 
  13   1.0000      -3.817587      -103.8818 
  14   1.0000      -1.174282       -31.9538 
  15   1.0000      -0.586333       -15.9549 
  16   1.0000      -0.586333       -15.9549 
  17   1.0000      -0.586333       -15.9549 
  18   1.0000      -0.089466        -2.4345 
  19   0.0000       0.013434         0.3655 
  20   0.0000       0.013434         0.3655 
  21   0.0000       0.013434         0.3655 
  22   0.0000       0.016818         0.4576 
  23   0.0000       0.161299         4.3892 
  24   0.0000       0.161299         4.3892 
  25   0.0000       0.161299         4.3892 
  26   0.0000       0.161299         4.3892 
  27   0.0000       0.161299         4.3892 
  28   0.0000       0.185444         5.0462 
  29   0.0000       0.434443        11.8218 
  30   0.0000       0.434443        11.8218 
  31   0.0000       0.434443        11.8218 
  32   0.0000       0.617105        16.7923 
  33   0.0000       1.147636        31.2288 
  34   0.0000       1.147636        31.2288 
  35   0.0000       1.147636        31.2288 
  36   0.0000       1.147636        31.2288 
  37   0.0000       1.147636        31.2288 
  38   0.0000       1.468788        39.9677 
  39   0.0000       1.468788        39.9677 
  40   0.0000       1.468788        39.9677 
  41   0.0000       1.728713        47.0407 
  42   0.0000       3.557520        96.8050 
  43   0.0000       3.557520        96.8050 
  44   0.0000       3.557520        96.8050 
  45   0.0000       3.557520        96.8050 
  46   0.0000       3.557520        96.8050 
  47   0.0000       3.980087       108.3037 
  48   0.0000       3.980087       108.3037 
  49   0.0000       3.980087       108.3037 
  50   0.0000       4.575321       124.5008 
  51   0.0000       8.900761       242.2020 
  52   0.0000       8.900761       242.2020 
  53   0.0000       8.900761       242.2020 
  54   0.0000       8.900761       242.2020 
  55   0.0000       8.900761       242.2020 
  56   0.0000      10.201287       277.5911 
  57   0.0000      10.201287       277.5911 
  58   0.0000      10.201287       277.5911 
  59   0.0000      12.070140       328.4452 
  60   0.0000      20.694747       563.1327 
  61   0.0000      20.694747       563.1327 
  62   0.0000      20.694747       563.1327 
  63   0.0000      20.694747       563.1327 
  64   0.0000      20.694747       563.1327 
  65   0.0000      25.674847       698.6481 
  66   0.0000      25.674847       698.6481 
  67   0.0000      25.674847       698.6481 
  68   0.0000      31.857438       866.8850 
  69   0.0000      46.582174      1267.5654 
  70   0.0000      46.582174      1267.5654 
  71   0.0000      46.582174      1267.5654 
  72   0.0000      46.582174      1267.5654 
  73   0.0000      46.582174      1267.5654 
  74   0.0000      63.339088      1723.5442 
  75   0.0000      63.339088      1723.5442 
  76   0.0000      63.339088      1723.5442 
  77   0.0000      83.104508      2261.3886 
  78   0.0000     103.023336      2803.4075 
  79   0.0000     103.023336      2803.4075 
  80   0.0000     103.023336      2803.4075 
  81   0.0000     103.023336      2803.4075 
  82   0.0000     103.023336      2803.4075 
  83   0.0000     151.823119      4131.3171 
  84   0.0000     151.823119      4131.3171 
  85   0.0000     151.823119      4131.3171 
  86   0.0000     210.972930      5740.8653 
  87   0.0000     224.767478      6116.2340 
  88   0.0000     224.767478      6116.2340 
  89   0.0000     224.767478      6116.2340 
  90   0.0000     224.767478      6116.2340 
  91   0.0000     224.767478      6116.2340 
  92   0.0000     350.667536      9542.1488 
  93   0.0000     350.667536      9542.1488 
  94   0.0000     350.667536      9542.1488 
  95   0.0000     482.854814     13139.1475 
  96   0.0000     482.854814     13139.1475 
  97   0.0000     482.854814     13139.1475 
  98   0.0000     482.854814     13139.1475 
  99   0.0000     482.854814     13139.1475 
 100   0.0000     513.785216     13980.8065 
 101   0.0000     779.641069     21215.1120 
 102   0.0000     779.641069     21215.1120 
 103   0.0000     779.641069     21215.1120 
 104   0.0000    1022.483143     27823.1808 
 105   0.0000    1022.483143     27823.1808 
 106   0.0000    1022.483143     27823.1808 
 107   0.0000    1022.483143     27823.1808 
 108   0.0000    1022.483143     27823.1808 
 109   0.0000    1192.143022     32439.8609 
 110   0.0000    1677.035377     45634.4526 
 111   0.0000    1677.035377     45634.4526 
 112   0.0000    1677.035377     45634.4526 
 113   0.0000    2138.840147     58200.7993 
 114   0.0000    2138.840147     58200.7993 
 115   0.0000    2138.840147     58200.7993 
 116   0.0000    2138.840147     58200.7993 
 117   0.0000    2138.840147     58200.7993 
 118   0.0000    2641.262346     71872.4024 
 119   0.0000    3513.564839     95608.9599 
 120   0.0000    3513.564839     95608.9599 
 121   0.0000    3513.564839     95608.9599 
 122   0.0000    4487.074535    122099.5055 
 123   0.0000    4487.074535    122099.5055 
 124   0.0000    4487.074535    122099.5055 
 125   0.0000    4487.074535    122099.5055 
 126   0.0000    4487.074535    122099.5055 
 127   0.0000    5629.774476    153193.9517 
 128   0.0000    7205.578408    196073.7567 
 129   0.0000    7205.578408    196073.7567 
 130   0.0000    7205.578408    196073.7567 
 131   0.0000    9548.125160    259817.6945 
 132   0.0000    9548.125160    259817.6945 
 133   0.0000    9548.125160    259817.6945 
 134   0.0000    9548.125160    259817.6945 
 135   0.0000    9548.125160    259817.6945 
 136   0.0000   11639.404689    316724.3035 
 137   0.0000   14574.084689    396581.0062 
 138   0.0000   14574.084689    396581.0062 
 139   0.0000   14574.084689    396581.0062 
 140   0.0000   23488.895399    639165.3383 
 141   0.0000   29097.835318    791792.3530 
 142   0.0000   29097.835318    791792.3530 
 143   0.0000   29097.835318    791792.3530 
 144   0.0000   46454.385583   1264088.0967 
 145   0.0000   58692.077297   1597092.6179 
 146   0.0000   58692.077297   1597092.6179 
 147   0.0000   58692.077297   1597092.6179 
 148   0.0000   90200.210590   2454472.5131 
 149   0.0000   117431.445361   3195472.0829 
 150   0.0000   117431.445361   3195472.0829 
 151   0.0000   117431.445361   3195472.0829 
 152   0.0000   172030.691746   4681193.1097 
 153   0.0000   321860.178729   8758260.7246 
 154   0.0000   590252.012742   16061573.8213 
 155   0.0000   1057185.806990   28767488.3190 
 156   0.0000   1856428.898881   50515998.5223 
 157   0.0000   3160402.534731   85998925.0709 
 158   0.0000   5500192.330003   149667842.2654 
 159   0.0000   9434751.899344   256732651.2169 

                 SPIN DOWN ORBITALS
  NO   OCC          E(Eh)            E(eV) 
   0   1.0000    -564.507435    -15361.0282 
   1   1.0000     -74.318588     -2022.3116 
   2   1.0000     -65.818246     -1791.0055 
   3   1.0000     -65.818246     -1791.0055 
   4   1.0000     -65.818246     -1791.0055 
   5   1.0000     -10.997873      -299.2673 
   6   1.0000      -8.288062      -225.5296 
   7   1.0000      -8.288062      -225.5296 
   8   1.0000      -8.288062      -225.5296 
   9   1.0000      -3.817228      -103.8721 
  10   1.0000      -3.817228      -103.8721 
  11   1.0000      -3.817228      -103.8721 
  12   1.0000      -3.817228      -103.8721 
  13   1.0000      -3.817228      -103.8721 
  14   1.0000      -1.172523       -31.9060 
  15   1.0000      -0.583045       -15.8655 
  16   1.0000      -0.583045       -15.8655 
  17   1.0000      -0.583045       -15.8655 
  18   0.0000      -0.057729        -1.5709 
  19   0.0000       0.045541         1.2392 
  20   0.0000       0.045541         1.2392 
  21   0.0000       0.045541         1.2392 
  22   0.0000       0.053110         1.4452 
  23   0.0000       0.169415         4.6100 
  24   0.0000       0.169415         4.6100 
  25   0.0000       0.169415         4.6100 
  26   0.0000       0.169415         4.6100 
  27   0.0000       0.169415         4.6100 
  28   0.0000       0.221724         6.0334 
  29   0.0000       0.460744        12.5375 
  30   0.0000       0.460744        12.5375 
  31   0.0000       0.460744        12.5375 
  32   0.0000       0.643726        17.5167 
  33   0.0000       1.155518        31.4432 
  34   0.0000       1.155518        31.4432 
  35   0.0000       1.155518        31.4432 
  36   0.0000       1.155518        31.4432 
  37   0.0000       1.155518        31.4432 
  38   0.0000       1.482638        40.3446 
  39   0.0000       1.482638        40.3446 
  40   0.0000       1.482638        40.3446 
  41   0.0000       1.741755        47.3956 
  42   0.0000       3.561429        96.9114 
  43   0.0000       3.561429        96.9114 
  44   0.0000       3.561429        96.9114 
  45   0.0000       3.561429        96.9114 
  46   0.0000       3.561429        96.9114 
  47   0.0000       3.986714       108.4840 
  48   0.0000       3.986714       108.4840 
  49   0.0000       3.986714       108.4840 
  50   0.0000       4.581275       124.6628 
  51   0.0000       8.902483       242.2489 
  52   0.0000       8.902483       242.2489 
  53   0.0000       8.902483       242.2489 
  54   0.0000       8.902483       242.2489 
  55   0.0000       8.902483       242.2489 
  56   0.0000      10.203819       277.6600 
  57   0.0000      10.203819       277.6600 
  58   0.0000      10.203819       277.6600 
  59   0.0000      12.072591       328.5119 
  60   0.0000      20.695838       563.1624 
  61   0.0000      20.695838       563.1624 
  62   0.0000      20.695838       563.1624 
  63   0.0000      20.695838       563.1624 
  64   0.0000      20.695838       563.1624 
  65   0.0000      25.676029       698.6803 
  66   0.0000      25.676029       698.6803 
  67   0.0000      25.676029       698.6803 
  68   0.0000      31.858440       866.9122 
  69   0.0000      46.582690      1267.5794 
  70   0.0000      46.582690      1267.5794 
  71   0.0000      46.582690      1267.5794 
  72   0.0000      46.582690      1267.5794 
  73   0.0000      46.582690      1267.5794 
  74   0.0000      63.339587      1723.5578 
  75   0.0000      63.339587      1723.5578 
  76   0.0000      63.339587      1723.5578 
  77   0.0000      83.104973      2261.4013 
  78   0.0000     103.023709      2803.4176 
  79   0.0000     103.023709      2803.4176 
  80   0.0000     103.023709      2803.4176 
  81   0.0000     103.023709      2803.4176 
  82   0.0000     103.023709      2803.4176 
  83   0.0000     151.823371      4131.3239 
  84   0.0000     151.823371      4131.3239 
  85   0.0000     151.823371      4131.3239 
  86   0.0000     210.973198      5740.8726 
  87   0.0000     224.767687      6116.2397 
  88   0.0000     224.767687      6116.2397 
  89   0.0000     224.767687      6116.2397 
  90   0.0000     224.767687      6116.2397 
  91   0.0000     224.767687      6116.2397 
  92   0.0000     350.667653      9542.1520 
  93   0.0000     350.667653      9542.1520 
  94   0.0000     350.667653      9542.1520 
  95   0.0000     482.854956     13139.1513 
  96   0.0000     482.854956     13139.1513 
  97   0.0000     482.854956     13139.1513 
  98   0.0000     482.854956     13139.1513 
  99   0.0000     482.854956     13139.1513 
 100   0.0000     513.785402     13980.8116 
 101   0.0000     779.641236     21215.1166 
 102   0.0000     779.641236     21215.1166 
 103   0.0000     779.641236     21215.1166 
 104   0.0000    1022.483216     27823.1828 
 105   0.0000    1022.483216     27823.1828 
 106   0.0000    1022.483216     27823.1828 
 107   0.0000    1022.483216     27823.1828 
 108   0.0000    1022.483216     27823.1828 
 109   0.0000    1192.143215     32439.8661 
 110   0.0000    1677.035564     45634.4577 
 111   0.0000    1677.035564     45634.4577 
 112   0.0000    1677.035564     45634.4577 
 113   0.0000    2138.840202     58200.8008 
 114   0.0000    2138.840202     58200.8008 
 115   0.0000    2138.840202     58200.8008 
 116   0.0000    2138.840202     58200.8008 
 117   0.0000    2138.840202     58200.8008 
 118   0.0000    2641.262540     71872.4076 
 119   0.0000    3513.564972     95608.9636 
 120   0.0000    3513.564972     95608.9636 
 121   0.0000    3513.564972     95608.9636 
 122   0.0000    4487.074598    122099.5072 
 123   0.0000    4487.074598    122099.5072 
 124   0.0000    4487.074598    122099.5072 
 125   0.0000    4487.074598    122099.5072 
 126   0.0000    4487.074598    122099.5072 
 127   0.0000    5629.774678    153193.9572 
 128   0.0000    7205.578632    196073.7628 
 129   0.0000    7205.578632    196073.7628 
 130   0.0000    7205.578632    196073.7628 
 131   0.0000    9548.125466    259817.7028 
 132   0.0000    9548.125466    259817.7028 
 133   0.0000    9548.125466    259817.7028 
 134   0.0000    9548.125466    259817.7028 
 135   0.0000    9548.125466    259817.7028 
 136   0.0000   11639.405037    316724.3130 
 137   0.0000   14574.085082    396581.0169 
 138   0.0000   14574.085082    396581.0169 
 139   0.0000   14574.085082    396581.0169 
 140   0.0000   23488.895920    639165.3525 
 141   0.0000   29097.835904    791792.3689 
 142   0.0000   29097.835904    791792.3689 
 143   0.0000   29097.835904    791792.3689 
 144   0.0000   46454.386246   1264088.1148 
 145   0.0000   58692.078048   1597092.6383 
 146   0.0000   58692.078048   1597092.6383 
 147   0.0000   58692.078048   1597092.6383 
 148   0.0000   90200.211336   2454472.5334 
 149   0.0000   117431.446207   3195472.1059 
 150   0.0000   117431.446207   3195472.1059 
 151   0.0000   117431.446207   3195472.1059 
 152   0.0000   172030.692509   4681193.1304 
 153   0.0000   321860.179442   8758260.7440 
 154   0.0000   590252.013354   16061573.8380 
 155   0.0000   1057185.807529   28767488.3337 
 156   0.0000   1856428.899498   50515998.5391 
 157   0.0000   3160402.535666   85998925.0964 
 158   0.0000   5500192.330743   149667842.2856 
 159   0.0000   9434751.898954   256732651.2063 

                    ********************************
                    * MULLIKEN POPULATION ANALYSIS *
                    ********************************

--------------------------------------------
MULLIKEN ATOMIC CHARGES AND SPIN POPULATIONS
--------------------------------------------
   0 Rb:    0.000000    1.000000
Sum of atomic charges         :    0.0000000
Sum of atomic spin populations:    1.0000000

-----------------------------------------------------
MULLIKEN REDUCED ORBITAL CHARGES AND SPIN POPULATIONS
-----------------------------------------------------
CHARGE
  0 Rbs       :     9.000000  s :     9.000000
      pz      :     6.000000  p :    18.000000
      px      :     6.000000
      py      :     6.000000
      dz2     :     2.000000  d :    10.000000
      dxz     :     2.000000
      dyz     :     2.000000
      dx2y2   :     2.000000
      dxy     :     2.000000

SPIN
  0 Rbs       :     1.000000  s :     1.000000
      pz      :    -0.000000  p :     0.000000
      px      :     0.000000
      py      :    -0.000000
      dz2     :    -0.000000  d :    -0.000000
      dxz     :    -0.000000
      dyz     :    -0.000000
      dx2y2   :    -0.000000
      dxy     :     0.000000


                     *******************************
                     * LOEWDIN POPULATION ANALYSIS *
                     *******************************

-------------------------------------------
LOEWDIN ATOMIC CHARGES AND SPIN POPULATIONS
-------------------------------------------
   0 Rb:    0.000000    1.000000

----------------------------------------------------
LOEWDIN REDUCED ORBITAL CHARGES AND SPIN POPULATIONS
----------------------------------------------------
CHARGE
  0 Rbs       :     9.000000  s :     9.000000
      pz      :     6.000000  p :    18.000000
      px      :     6.000000
      py      :     6.000000
      dz2     :     2.000000  d :    10.000000
      dxz     :     2.000000
      dyz     :     2.000000
      dx2y2   :     2.000000
      dxy     :     2.000000

SPIN
  0 Rbs       :     1.000000  s :     1.000000
      pz      :    -0.000000  p :     0.000000
      px      :     0.000000
      py      :    -0.000000
      dz2     :    -0.000000  d :    -0.000000
      dxz     :    -0.000000
      dyz     :    -0.000000
      dx2y2   :    -0.000000
      dxy     :     0.000000


                      *****************************
                      * MAYER POPULATION ANALYSIS *
                      *****************************

  NA   - Mulliken gross atomic population
  ZA   - Total nuclear charge
  QA   - Mulliken gross atomic charge
  VA   - Mayer's total valence
  BVA  - Mayer's bonded valence
  FA   - Mayer's free valence

  ATOM       NA         ZA         QA         VA         BVA        FA
  0 Rb    37.0000    37.0000     0.0000     1.0003     0.0000     1.0003

  Mayer bond orders larger than 0.100000


-------
TIMINGS
-------

Total SCF time: 0 days 0 hours 1 min 12 sec 

Total time                  ....      72.550 sec
Sum of individual times     ....      23.962 sec  ( 33.0%)

Fock matrix formation       ....      20.757 sec  ( 28.6%)
  XC integration            ....       2.019 sec  (  9.7% of F)
    Basis function eval.    ....       0.018 sec  (  0.9% of XC)
    Density eval.           ....       0.429 sec  ( 21.3% of XC)
    XC-Functional eval.     ....       0.020 sec  (  1.0% of XC)
    XC-Potential eval.      ....       0.037 sec  (  1.8% of XC)
Diagonalization             ....       0.078 sec  (  0.1%)
Density matrix formation    ....       0.009 sec  (  0.0%)
Population analysis         ....       0.098 sec  (  0.1%)
Initial guess               ....       1.775 sec  (  2.4%)
Orbital Transformation      ....       0.000 sec  (  0.0%)
Orbital Orthonormalization  ....       0.000 sec  (  0.0%)
DIIS solution               ....       0.020 sec  (  0.0%)
SOSCF solution              ....       0.265 sec  (  0.4%)
Grid generation             ....       0.960 sec  (  1.3%)

Maximum memory used throughout the entire SCF-calculation: 228.8 MB

-------------------------   --------------------
FINAL SINGLE POINT ENERGY     -3013.625291731047
-------------------------   --------------------


                            ***************************************
                            *     ORCA property calculations      *
                            ***************************************

                                    ---------------------
                                    Active property flags
                                    ---------------------
   (+) Dipole Moment


------------------------------------------------------------------------------
                       ORCA ELECTRIC PROPERTIES CALCULATION
------------------------------------------------------------------------------

Dipole Moment Calculation                       ... on
Quadrupole Moment Calculation                   ... off
Polarizability Calculation                      ... off
GBWName                                         ... Rb_ugbs_pbe.gbw
Electron density                                ... Rb_ugbs_pbe.scfp
The origin for moment calculation is the CENTER OF MASS  = ( 0.000000,  0.000000  0.000000)

-------------
DIPOLE MOMENT
-------------
                                X             Y             Z
Electronic contribution:      0.00000      -0.00000      -0.00000
Nuclear contribution   :      0.00000       0.00000       0.00000
                        -----------------------------------------
Total Dipole Moment    :      0.00000      -0.00000      -0.00000
                        -----------------------------------------
Magnitude (a.u.)       :      0.00000
Magnitude (Debye)      :      0.00000



--------------------
Rotational spectrum 
--------------------
 
Rotational constants in cm-1:     0.000000     0.000000     0.000000 
Rotational constants in MHz :     0.000000     0.000000     0.000000 

 Dipole components along the rotational axes: 
x,y,z [a.u.] :     0.000000    -0.000000    -0.000000 
x,y,z [Debye]:     0.000000    -0.000000    -0.000000 

 

Timings for individual modules:

Sum of individual times         ...      113.178 sec (=   1.886 min)
GTO integral calculation        ...       31.227 sec (=   0.520 min)  27.6 %
Relativistic integrals          ...        5.802 sec (=   0.097 min)   5.1 %
SCF iterations                  ...       76.149 sec (=   1.269 min)  67.3 %
                             ****ORCA TERMINATED NORMALLY****
TOTAL RUN TIME: 0 days 0 hours 2 minutes 8 seconds 110 msec
