
                                 *****************
                                 * O   R   C   A *
                                 *****************

                                            #,                                       
                                            ###                                      
                                            ####                                     
                                            #####                                    
                                            ######                                   
                                           ########,                                 
                                     ,,################,,,,,                         
                               ,,#################################,,                 
                          ,,##########################################,,             
                       ,#########################################, ''#####,          
                    ,#############################################,,   '####,        
                  ,##################################################,,,,####,       
                ,###########''''           ''''###############################       
              ,#####''   ,,,,##########,,,,          '''####'''          '####       
            ,##' ,,,,###########################,,,                        '##       
           ' ,,###''''                  '''############,,,                           
         ,,##''                                '''############,,,,        ,,,,,,###''
      ,#''                                            '''#######################'''  
     '                                                          ''''####''''         
             ,#######,   #######,   ,#######,      ##                                
            ,#'     '#,  ##    ##  ,#'     '#,    #''#        ######   ,####,        
            ##       ##  ##   ,#'  ##            #'  '#       #        #'  '#        
            ##       ##  #######   ##           ,######,      #####,   #    #        
            '#,     ,#'  ##    ##  '#,     ,#' ,#      #,         ##   #,  ,#        
             '#######'   ##     ##  '#######'  #'      '#     #####' # '####'        



                  #######################################################
                  #                        -***-                        #
                  #          Department of theory and spectroscopy      #
                  #    Directorship and core code : Frank Neese         #
                  #        Max Planck Institute fuer Kohlenforschung    #
                  #                Kaiser Wilhelm Platz 1               #
                  #                 D-45470 Muelheim/Ruhr               #
                  #                      Germany                        #
                  #                                                     #
                  #                  All rights reserved                #
                  #                        -***-                        #
                  #######################################################


                         Program Version 5.0.1 -  RELEASE  -


 With contributions from (in alphabetic order):
   Daniel Aravena         : Magnetic Suceptibility
   Michael Atanasov       : Ab Initio Ligand Field Theory (pilot matlab implementation)
   Alexander A. Auer      : GIAO ZORA, VPT2 properties, NMR spectrum
   Ute Becker             : Parallelization
   Giovanni Bistoni       : ED, misc. LED, open-shell LED, HFLD
   Martin Brehm           : Molecular dynamics
   Dmytro Bykov           : SCF Hessian
   Vijay G. Chilkuri      : MRCI spin determinant printing, contributions to CSF-ICE
   Dipayan Datta          : RHF DLPNO-CCSD density
   Achintya Kumar Dutta   : EOM-CC, STEOM-CC
   Dmitry Ganyushin       : Spin-Orbit,Spin-Spin,Magnetic field MRCI
   Miquel Garcia          : C-PCM and meta-GGA Hessian, CC/C-PCM, Gaussian charge scheme
   Yang Guo               : DLPNO-NEVPT2, F12-NEVPT2, CIM, IAO-localization
   Andreas Hansen         : Spin unrestricted coupled pair/coupled cluster methods
   Benjamin Helmich-Paris : MC-RPA, TRAH-SCF, COSX integrals
   Lee Huntington         : MR-EOM, pCC
   Robert Izsak           : Overlap fitted RIJCOSX, COSX-SCS-MP3, EOM
   Marcus Kettner         : VPT2
   Christian Kollmar      : KDIIS, OOCD, Brueckner-CCSD(T), CCSD density, CASPT2, CASPT2-K
   Simone Kossmann        : Meta GGA functionals, TD-DFT gradient, OOMP2, MP2 Hessian
   Martin Krupicka        : Initial AUTO-CI
   Lucas Lang             : DCDCAS
   Marvin Lechner         : AUTO-CI (C++ implementation), FIC-MRCC
   Dagmar Lenk            : GEPOL surface, SMD
   Dimitrios Liakos       : Extrapolation schemes; Compound Job, initial MDCI parallelization
   Dimitrios Manganas     : Further ROCIS development; embedding schemes
   Dimitrios Pantazis     : SARC Basis sets
   Anastasios Papadopoulos: AUTO-CI, single reference methods and gradients
   Taras Petrenko         : DFT Hessian,TD-DFT gradient, ASA, ECA, R-Raman, ABS, FL, XAS/XES, NRVS
   Peter Pinski           : DLPNO-MP2, DLPNO-MP2 Gradient
   Christoph Reimann      : Effective Core Potentials
   Marius Retegan         : Local ZFS, SOC
   Christoph Riplinger    : Optimizer, TS searches, QM/MM, DLPNO-CCSD(T), (RO)-DLPNO pert. Triples
   Tobias Risthaus        : Range-separated hybrids, TD-DFT gradient, RPA, STAB
   Michael Roemelt        : Original ROCIS implementation
   Masaaki Saitow         : Open-shell DLPNO-CCSD energy and density
   Barbara Sandhoefer     : DKH picture change effects
   Avijit Sen             : IP-ROCIS
   Kantharuban Sivalingam : CASSCF convergence, NEVPT2, FIC-MRCI
   Bernardo de Souza      : ESD, SOC TD-DFT
   Georgi Stoychev        : AutoAux, RI-MP2 NMR, DLPNO-MP2 response
   Willem Van den Heuvel  : Paramagnetic NMR
   Boris Wezisla          : Elementary symmetry handling
   Frank Wennmohs         : Technical directorship


 We gratefully acknowledge several colleagues who have allowed us to
 interface, adapt or use parts of their codes:
   Stefan Grimme, W. Hujo, H. Kruse, P. Pracht,  : VdW corrections, initial TS optimization,
                  C. Bannwarth, S. Ehlert          DFT functionals, gCP, sTDA/sTD-DF
   Ed Valeev, F. Pavosevic, A. Kumar             : LibInt (2-el integral package), F12 methods
   Garnet Chan, S. Sharma, J. Yang, R. Olivares  : DMRG
   Ulf Ekstrom                                   : XCFun DFT Library
   Mihaly Kallay                                 : mrcc  (arbitrary order and MRCC methods)
   Jiri Pittner, Ondrej Demel                    : Mk-CCSD
   Frank Weinhold                                : gennbo (NPA and NBO analysis)
   Christopher J. Cramer and Donald G. Truhlar   : smd solvation model
   Lars Goerigk                                  : TD-DFT with DH, B97 family of functionals
   V. Asgeirsson, H. Jonsson                     : NEB implementation
   FAccTs GmbH                                   : IRC, NEB, NEB-TS, DLPNO-Multilevel, CI-OPT
                                                   MM, QMMM, 2- and 3-layer-ONIOM, Crystal-QMMM,
                                                   LR-CPCM, SF, NACMEs, symmetry and pop. for TD-DFT,
                                                   nearIR, NL-DFT gradient (VV10), updates on ESD,
                                                   ML-optimized integration grids
   S Lehtola, MJT Oliveira, MAL Marques          : LibXC Library
   Liviu Ungur et al                             : ANISO software


 Your calculation uses the libint2 library for the computation of 2-el integrals
 For citations please refer to: http://libint.valeyev.net

 Your ORCA version has been built with support for libXC version: 5.1.0
 For citations please refer to: https://tddft.org/programs/libxc/

 This ORCA versions uses:
   CBLAS   interface :  Fast vector & matrix operations
   LAPACKE interface :  Fast linear algebra routines
   SCALAPACK package :  Parallel linear algebra routines
   Shared memory     :  Shared parallel matrices
   BLAS/LAPACK       :  OpenBLAS 0.3.15  USE64BITINT DYNAMIC_ARCH NO_AFFINITY Haswell SINGLE_THREADED
        Core in use  :  Haswell
   Copyright (c) 2011-2014, The OpenBLAS Project


SCAN-COORDS

Reading of a custom basis requested
Basis file         : Ru_ugbs.basis
READING GTO-BASIS: RUTHENIUM
Basis successfully read

================================================================================

----- Orbital basis set information -----
================================================================================
                                        WARNINGS
                       Please study these warnings very carefully!
================================================================================


INFO   : the flag for use of the SHARK integral package has been found!

================================================================================
                                       INPUT FILE
================================================================================
NAME = Ru_ugbs_pbe.inp
|  1> !uks pbe nori verytightscf soscf notrah
|  2> 
|  3> %pal
|  4>   nprocs 32
|  5> end
|  6> %coords
|  7>   charge 0
|  8>   mult 5
|  9>   units bohrs
| 10>   coords
| 11>     Ru 0.0 0.0 0.0
| 12>   end
| 13> end
| 14> %basis
| 15>   gtoname "Ru_ugbs.basis"
| 16>   delECP Ru
| 17> end
| 18> %rel
| 19>   method zora
| 20>   modelpot 1, 0, 0, 0
| 21>   c 137.035999084
| 22> endd                         ****END OF INPUT****
================================================================================

                       ****************************
                       * Single Point Calculation *
                       ****************************

---------------------------------
CARTESIAN COORDINATES (ANGSTROEM)
---------------------------------
  Ru     0.000000    0.000000    0.000000

----------------------------
CARTESIAN COORDINATES (A.U.)
----------------------------
  NO LB      ZA    FRAG     MASS         X           Y           Z
   0 Ru   44.0000    0   101.070    0.000000    0.000000    0.000000

--------------------------------
INTERNAL COORDINATES (ANGSTROEM)
--------------------------------
 Ru     0   0   0     0.000000000000     0.00000000     0.00000000

---------------------------
INTERNAL COORDINATES (A.U.)
---------------------------
 Ru     0   0   0     0.000000000000     0.00000000     0.00000000

---------------------
BASIS SET INFORMATION
---------------------
There are 1 groups of distinct atoms

 Group   1 Type Ru  : 31s22p17d contracted to 31s22p17d pattern {1111111111111111111111111111111/1111111111111111111111/11111111111111111}

Atom   0Ru   basis set group =>   1


           ************************************************************
           *        Program running with 32 parallel MPI-processes    *
           *              working on a common directory               *
           ************************************************************
------------------------------------------------------------------------------
                           ORCA GTO INTEGRAL CALCULATION
------------------------------------------------------------------------------
------------------------------------------------------------------------------
                   ___                                                        
                  /   \      - P O W E R E D   B Y -                         
                 /     \                                                     
                 |  |  |   _    _      __       _____    __    __             
                 |  |  |  | |  | |    /  \     |  _  \  |  |  /  |          
                  \  \/   | |  | |   /    \    | | | |  |  | /  /          
                 / \  \   | |__| |  /  /\  \   | |_| |  |  |/  /          
                |  |  |   |  __  | /  /__\  \  |    /   |      \           
                |  |  |   | |  | | |   __   |  |    \   |  |\   \          
                \     /   | |  | | |  |  |  |  | |\  \  |  | \   \       
                 \___/    |_|  |_| |__|  |__|  |_| \__\ |__|  \__/        
                                                                              
                      - O R C A' S   B I G   F R I E N D -                    
                                      &                                       
                       - I N T E G R A L  F E E D E R -                       
                                                                              
 v1 FN, 2020, v2 2021                                                         
------------------------------------------------------------------------------


Reading SHARK input file Ru_ugbs_pbe.SHARKINP.tmp ... ok
----------------------
SHARK INTEGRAL PACKAGE
----------------------

Number of atoms                             ...      1
Number of basis functions                   ...    182
Number of shells                            ...     70
Maximum angular momentum                    ...      2
Integral batch strategy                     ... SHARK/LIBINT Hybrid
RI-J (if used) integral strategy            ... SPLIT-RIJ (Revised 2003 algorithm where possible)
Printlevel                                  ...      1
Contraction scheme used                     ... SEGMENTED contraction
Coulomb Range Separation                    ... NOT USED
Exchange Range Separation                   ... NOT USED
Finite Nucleus Model                        ... NOT USED
Auxiliary Coulomb fitting basis             ... NOT available
Auxiliary J/K fitting basis                 ... NOT available
Auxiliary Correlation fitting basis         ... NOT available
Auxiliary 'external' fitting basis          ... NOT available
Integral threshold                          ...     1.000000e-12
Primitive cut-off                           ...     1.000000e-14
Primitive pair pre-selection threshold      ...     1.000000e-14

Calculating pre-screening integrals         ... done (  0.1 sec) Dimension = 70
Organizing shell pair data                  ... done (  0.0 sec)
Shell pair information
Total number of shell pairs                 ...      2485
Shell pairs after pre-screening             ...      2485
Total number of primitive shell pairs       ...      2485
Primitive shell pairs kept                  ...      2485
          la=0 lb=0:    496 shell pairs
          la=1 lb=0:    682 shell pairs
          la=1 lb=1:    253 shell pairs
          la=2 lb=0:    527 shell pairs
          la=2 lb=1:    374 shell pairs
          la=2 lb=2:    153 shell pairs

Calculating one electron integrals          ... done (  0.0 sec)
Calculating Nuclear repulsion               ... done (  0.0 sec) ENN=      0.000000000000 Eh

SHARK setup successfully completed in  18.9 seconds

Maximum memory used throughout the entire GTOINT-calculation: 6.0 MB


           ************************************************************
           *        Program running with 32 parallel MPI-processes    *
           *              working on a common directory               *
           ************************************************************
------------------------------------------------------------------------------
                          ORCA RELATIVISTIC HAMILTONIAN
------------------------------------------------------------------------------

Relativistic Method            ... ZORA(MP)
Treatment of potential         ... Van Wuellen
Nucleus model                  ... Point Nucleus
Speed of light used            ... 137.03599908400000


            *************************************************
            *         ZERO ORDER REGULAR APPROXIMATION      *
            *                     ZORA(MP)                  *
            *            Programmed by FN according to      *
            *                   C. van Wuellen              *
            *       J. Chem. Phys. (1998) vol 109, 392-399  *
            *************************************************

Terms included in model potential: +V(e,N)
Basis function cutoff value   ... 1.000000e-12
Loading the fitted atomic densities  (DKH4)  ... done
Calculating the cutoffs                      ... done
Number of fit functions                      ... 29
Setting up the integration grid ... done

Maximum memory used throughout the entire REL-calculation: 10.5 MB


           ************************************************************
           *        Program running with 32 parallel MPI-processes    *
           *              working on a common directory               *
           ************************************************************
-------------------------------------------------------------------------------
                                 ORCA SCF
-------------------------------------------------------------------------------

------------
SCF SETTINGS
------------
Hamiltonian:
 Density Functional     Method          .... DFT(GTOs)
 Exchange Functional    Exchange        .... PBE
   PBE kappa parameter   XKappa         ....  0.804000
   PBE mue parameter    XMuePBE         ....  0.219520
 Correlation Functional Correlation     .... PBE
   PBE beta parameter  CBetaPBE         ....  0.066725
 LDA part of GGA corr.  LDAOpt          .... PW91-LDA
 Gradients option       PostSCFGGA      .... off
   Density functional embedding theory  .... OFF
   NL short-range parameter             ....  6.400000

Relativistic Settings:
 Scalar relativistic method             .... ZORA
 Speed of light used       Velit        ....       137.035999
Orbital energies will be scaled


General Settings:
 Integral files         IntName         .... Ru_ugbs_pbe
 Hartree-Fock type      HFTyp           .... UHF
 Total Charge           Charge          ....    0
 Multiplicity           Mult            ....    5
 Number of Electrons    NEL             ....   44
 Basis Dimension        Dim             ....  182
 Nuclear Repulsion      ENuc            ....      0.0000000000 Eh

Convergence Acceleration:
 DIIS                   CNVDIIS         .... on
   Start iteration      DIISMaxIt       ....    12
   Startup error        DIISStart       ....  0.200000
   # of expansion vecs  DIISMaxEq       ....     5
   Bias factor          DIISBfac        ....   1.050
   Max. coefficient     DIISMaxC        ....  10.000
 Trust-Rad. Augm. Hess. CNVTRAH         .... off
 SOSCF                  CNVSOSCF        .... on
   Start iteration      SOSCFMaxIt      ....   150
   Startup grad/error   SOSCFStart      ....  0.003300
 Level Shifting         CNVShift        .... on
   Level shift para.    LevelShift      ....    0.2500
   Turn off err/grad.   ShiftErr        ....    0.0010
 Zerner damping         CNVZerner       .... off
 Static damping         CNVDamp         .... on
   Fraction old density DampFac         ....    0.7000
   Max. Damping (<1)    DampMax         ....    0.9800
   Min. Damping (>=0)   DampMin         ....    0.0000
   Turn off err/grad.   DampErr         ....    0.1000
 Fernandez-Rico         CNVRico         .... off

SCF Procedure:
 Maximum # iterations   MaxIter         ....   125
 SCF integral mode      SCFMode         .... Direct
   Integral package                     .... SHARK and LIBINT hybrid scheme
 Reset frequency        DirectResetFreq ....    20
 Integral Threshold     Thresh          ....  1.000e-12 Eh
 Primitive CutOff       TCut            ....  1.000e-14 Eh

Convergence Tolerance:
 Convergence Check Mode ConvCheckMode   .... Total+1el-Energy
 Convergence forced     ConvForced      .... 0
 Energy Change          TolE            ....  1.000e-09 Eh
 1-El. energy change                    ....  1.000e-06 Eh
 Orbital Gradient       TolG            ....  2.000e-06
 Orbital Rotation angle TolX            ....  2.000e-06
 DIIS Error             TolErr          ....  1.000e-08


Diagonalization of the overlap matrix:
Smallest eigenvalue                        ... 6.074e-05
Time for diagonalization                   ...    0.685 sec
Threshold for overlap eigenvalues          ... 1.000e-08
Number of eigenvalues below threshold      ... 0
Time for construction of square roots      ...    0.322 sec
Total time needed                          ...    1.009 sec

Time for model grid setup =    0.942 sec

------------------------------
INITIAL GUESS: MODEL POTENTIAL
------------------------------
Loading ZORA relativistic densities                ... done
Calculating cut-offs                               ... done
Initializing the effective Hamiltonian             ... done
Setting up the integral package (SHARK)            ... done
Starting the Coulomb interaction                   ... done (   1.3 sec)
Reading the grid                                   ... done
Mapping shells                                     ... done
Starting the XC term evaluation                    ... done (   0.1 sec)
  promolecular density results
     # of electrons  =     44.000228320
     EX              =   -134.953178885
     EC              =     -2.245939429
     EX+EC           =   -137.199118314
Transforming the Hamiltonian                       ... done (   0.3 sec)
Diagonalizing the Hamiltonian                      ... done (   0.1 sec)
Back transforming the eigenvectors                 ... done (   0.2 sec)
Now organizing SCF variables                       ... done
                      ------------------
                      INITIAL GUESS DONE (   5.5 sec)
                      ------------------
-------------------
DFT GRID GENERATION
-------------------

General Integration Accuracy     IntAcc      ... 4.388
Radial Grid Type                 RadialGrid  ... OptM3 with GC (2021)
Angular Grid (max. ang.)         AngularGrid ... 4 (Lebedev-302)
Angular grid pruning method      GridPruning ... 4 (adaptive)
Weight generation scheme         WeightScheme... Becke
Basis function cutoff            BFCut       ... 1.0000e-12
Integration weight cutoff        WCut        ... 1.0000e-14
Angular grids for H and He will be reduced by one unit
Partially contracted basis set               ... off
Rotationally invariant grid construction     ... off

Total number of grid points                  ...    27544
Total number of batches                      ...      431
Average number of points per batch           ...       63
Average number of grid points per atom       ...    27544
Time for grid setup =    5.770 sec

--------------
SCF ITERATIONS
--------------
ITER       Energy         Delta-E        Max-DP      RMS-DP      [F,P]     Damp
               ***  Starting incremental Fock matrix formation  ***
  0  -4598.2596928256   0.000000000000 0.02046849  0.00019144  2.0110160 0.7000
  1  -4598.2703391077  -0.010646282033 0.01921160  0.00015260  1.3901722 0.7000
  2  -4598.2763266022  -0.005987494527 0.01234046  0.00011273  0.9617898 0.7000
  3  -4598.2809185769  -0.004591974654 0.00735409  0.00009035  0.6659052 0.7000
  4  -4598.2846580455  -0.003739468632 0.00475136  0.00007906  0.4612526 0.7000
  5  -4598.2876888612  -0.003030815666 0.00388725  0.00007251  0.3195779 0.7000
  6  -4598.2901508135  -0.002461952381 0.00356906  0.00006714  0.2214590 0.7000
                               ***Turning on DIIS***
  7  -4598.2921553578  -0.002004544293 0.00321216  0.00006189  0.1534915 0.7000
  8  -4598.2937877197  -0.001632361860 0.00280734  0.00005664  0.1064031 0.7000
  9  -4598.2951130364  -0.001325316749 0.00817598  0.00017210  0.0742597 0.0000
 10  -4598.2987353343  -0.003622297868 0.00158044  0.00003814  0.0050916 0.0000
 11  -4598.2991576920  -0.000422357649 0.00150996  0.00003551  0.0046069 0.0000
 12  -4598.2995068489  -0.000349156910 0.00145135  0.00003109  0.0041688 0.0000
 13  -4598.2997918481  -0.000284999239 0.00136784  0.00003115  0.0037586 0.0000
 14  -4598.3000207929  -0.000228944818 0.00128884  0.00002531  0.0034240 0.0000
 15  -4598.3002153009  -0.000194507949 0.00123238  0.00002933  0.0030700 0.0000
 16  -4598.3003524972  -0.000137196366 0.00109769  0.00002123  0.0033420 0.0000
 17  -4598.3004936191  -0.000141121823 0.00099320  0.00002016  0.0026222 0.0000
                      *** Initiating the SOSCF procedure ***
                           *** Shutting down DIIS ***
                      *** Re-Reading the Fockian *** 
                      *** Removing any level shift *** 
ITER      Energy       Delta-E        Grad      Rot      Max-DP    RMS-DP
 18  -4598.30059300  -0.0000993781  0.003296  0.003296  0.000912  0.000017
               *** Restarting incremental Fock matrix formation ***
 19  -4598.30068385  -0.0000908545  0.002984  0.059686  0.004680  0.000084
 20  -4598.30096529  -0.0002814393  0.001231  0.044426  0.003371  0.000065
 21  -4598.30104969  -0.0000843963  0.000621  0.009022  0.001005  0.000021
 22  -4598.30104483   0.0000048588  0.000932  0.004775  0.000646  0.000011
 23  -4598.30105602  -0.0000111901  0.000021  0.000427  0.000030  0.000001
 24  -4598.30105606  -0.0000000378  0.000015  0.000359  0.000027  0.000001
 25  -4598.30105607  -0.0000000129  0.000003  0.000096  0.000008  0.000000
 26  -4598.30105607  -0.0000000009  0.000003  0.000266  0.000021  0.000000
 27  -4598.30105607  -0.0000000019  0.000004  0.000789  0.000062  0.000001
 28  -4598.30105608  -0.0000000048  0.000011  0.002249  0.000177  0.000004
 29  -4598.30105609  -0.0000000124  0.000021  0.005939  0.000473  0.000010
 30  -4598.30105612  -0.0000000310  0.000037  0.013897  0.001125  0.000023
 31  -4598.30105619  -0.0000000675  0.000056  0.021917  0.001820  0.000037
 32  -4598.30105629  -0.0000001011  0.000064  0.019073  0.001630  0.000032
 33  -4598.30105642  -0.0000001269  0.000049  0.011425  0.001007  0.000020
 34  -4598.30105653  -0.0000001102  0.000014  0.002730  0.000238  0.000005
 35  -4598.30105653  -0.0000000036  0.000002  0.000489  0.000043  0.000001
 36  -4598.30105653  -0.0000000002  0.000002  0.000657  0.000060  0.000001
 37  -4598.30105653  -0.0000000006  0.000002  0.001313  0.000123  0.000002
 38  -4598.30105653  -0.0000000015  0.000003  0.001446  0.000144  0.000003
               *** Restarting incremental Fock matrix formation ***
 39  -4598.30105653  -0.0000000029  0.000005  0.002018  0.000220  0.000005
 40  -4598.30105654  -0.0000000076  0.000009  0.005927  0.000405  0.000011
 41  -4598.30105656  -0.0000000182  0.000015  0.014965  0.000985  0.000024
 42  -4598.30105660  -0.0000000390  0.000023  0.021800  0.001417  0.000034
 43  -4598.30105665  -0.0000000492  0.000025  0.012845  0.000836  0.000020
 44  -4598.30105670  -0.0000000490  0.000016  0.004258  0.000340  0.000008
 45  -4598.30105672  -0.0000000243  0.000005  0.001888  0.000118  0.000003
 46  -4598.30105672  -0.0000000014  0.000003  0.000887  0.000061  0.000002
 47  -4598.30105672  -0.0000000006  0.000002  0.001559  0.000110  0.000003
 48  -4598.30105673  -0.0000000010  0.000002  0.001142  0.000085  0.000002
 49  -4598.30105673  -0.0000000015  0.000003  0.001888  0.000157  0.000004
 50  -4598.30105673  -0.0000000048  0.000004  0.002469  0.000253  0.000006
 51  -4598.30105674  -0.0000000108  0.000007  0.005895  0.000658  0.000012
 52  -4598.30105677  -0.0000000234  0.000010  0.011824  0.001153  0.000021
 53  -4598.30105680  -0.0000000310  0.000012  0.011074  0.000975  0.000019
 54  -4598.30105682  -0.0000000249  0.000009  0.007364  0.000500  0.000014
 55  -4598.30105684  -0.0000000142  0.000003  0.004563  0.000315  0.000008
 56  -4598.30105684  -0.0000000024  0.000001  0.000693  0.000068  0.000001
                 **** Energy Check signals convergence ****
              ***Rediagonalizing the Fockian in SOSCF/NRSCF***

               *****************************************************
               *                     SUCCESS                       *
               *           SCF CONVERGED AFTER  57 CYCLES          *
               *****************************************************


----------------
TOTAL SCF ENERGY
----------------

Total Energy       :        -4598.30105684 Eh         -125126.13305 eV

Components:
Nuclear Repulsion  :            0.00000000 Eh               0.00000 eV
Electronic Energy  :        -4598.30105684 Eh         -125126.13305 eV
One Electron Energy:        -6320.32561618 Eh         -171984.80355 eV
Two Electron Energy:         1722.02455934 Eh           46858.67051 eV

Virial components:
Potential Energy   :        -9358.54111928 Eh         -254658.85046 eV
Kinetic Energy     :         4760.24006244 Eh          129532.71742 eV
Virial Ratio       :            1.96598092


DFT components:
N(Alpha)           :       23.999999999909 electrons
N(Beta)            :       19.999999999952 electrons
N(Total)           :       43.999999999861 electrons
E(X)               :     -132.460838380524 Eh       
E(C)               :       -2.231619383093 Eh       
E(XC)              :     -134.692457763617 Eh       
DFET-embed. en.    :        0.000000000000 Eh       

---------------
SCF CONVERGENCE
---------------

  Last Energy change         ...   -1.6462e-10  Tolerance :   1.0000e-09
  Last MAX-Density change    ...    2.6453e-05  Tolerance :   1.0000e-08
  Last RMS-Density change    ...    8.1667e-07  Tolerance :   1.0000e-09
  Last Orbital Gradient      ...    7.9116e-07  Tolerance :   2.0000e-06
  Last Orbital Rotation      ...    3.8189e-04  Tolerance :   2.0000e-06

             **** THE GBW FILE WAS UPDATED (Ru_ugbs_pbe.gbw) ****
             **** DENSITY Ru_ugbs_pbe.scfp WAS UPDATED ****
             **** ENERGY FILE WAS UPDATED (Ru_ugbs_pbe.en.tmp) ****
----------------------
UHF SPIN CONTAMINATION
----------------------

Warning: in a DFT calculation there is little theoretical justification to 
         calculate <S**2> as in Hartree-Fock theory. We will do it anyways
         but you should keep in mind that the values have only limited relevance

Expectation value of <S**2>     :     6.000565
Ideal value S*(S+1) for S=2.0   :     6.000000
Deviation                       :     0.000565

             **** THE GBW FILE WAS UPDATED (Ru_ugbs_pbe.gbw) ****
             **** DENSITY Ru_ugbs_pbe.scfp WAS UPDATED ****
----------------
ORBITAL ENERGIES
----------------
                 SPIN UP ORBITALS
  NO   OCC          E(Eh)            E(eV) 
   0   1.0000    -831.158024    -22616.9597 
   1   1.0000    -117.042832     -3184.8974 
   2   1.0000    -104.699883     -2849.0287 
   3   1.0000    -104.699880     -2849.0286 
   4   1.0000    -104.699877     -2849.0285 
   5   1.0000     -20.529553      -558.6375 
   6   1.0000     -16.507038      -449.1794 
   7   1.0000     -16.507033      -449.1792 
   8   1.0000     -16.507026      -449.1790 
   9   1.0000     -10.056552      -273.6527 
  10   1.0000     -10.056547      -273.6526 
  11   1.0000     -10.056545      -273.6525 
  12   1.0000     -10.047584      -273.4087 
  13   1.0000     -10.047582      -273.4086 
  14   1.0000      -2.845717       -77.4359 
  15   1.0000      -1.738069       -47.2953 
  16   1.0000      -1.738053       -47.2948 
  17   1.0000      -1.738042       -47.2945 
  18   1.0000      -0.228199        -6.2096 
  19   1.0000      -0.228195        -6.2095 
  20   1.0000      -0.228187        -6.2093 
  21   1.0000      -0.201952        -5.4954 
  22   1.0000      -0.201946        -5.4952 
  23   1.0000      -0.175126        -4.7654 
  24   0.0000       0.007779         0.2117 
  25   0.0000       0.023018         0.6263 
  26   0.0000       0.023027         0.6266 
  27   0.0000       0.023029         0.6266 
  28   0.0000       0.121256         3.2995 
  29   0.0000       0.121257         3.2996 
  30   0.0000       0.121259         3.2996 
  31   0.0000       0.123089         3.3494 
  32   0.0000       0.123092         3.3495 
  33   0.0000       0.130374         3.5477 
  34   0.0000       0.450745        12.2654 
  35   0.0000       0.493239        13.4217 
  36   0.0000       0.493241        13.4218 
  37   0.0000       0.493244        13.4219 
  38   0.0000       0.498526        13.5656 
  39   0.0000       0.498530        13.5657 
  40   0.0000       0.757994        20.6261 
  41   0.0000       0.758005        20.6264 
  42   0.0000       0.758008        20.6264 
  43   0.0000       1.263338        34.3772 
  44   0.0000       1.343608        36.5614 
  45   0.0000       1.343610        36.5615 
  46   0.0000       1.343615        36.5616 
  47   0.0000       1.354298        36.8523 
  48   0.0000       1.354303        36.8525 
  49   0.0000       2.670008        72.6546 
  50   0.0000       2.670022        72.6550 
  51   0.0000       2.670027        72.6551 
  52   0.0000       3.238745        88.1307 
  53   0.0000       3.238748        88.1308 
  54   0.0000       3.238755        88.1310 
  55   0.0000       3.256734        88.6202 
  56   0.0000       3.256740        88.6204 
  57   0.0000       3.370933        91.7277 
  58   0.0000       7.479814       203.5361 
  59   0.0000       7.479829       203.5365 
  60   0.0000       7.479838       203.5367 
  61   0.0000       7.533111       204.9864 
  62   0.0000       7.533116       204.9865 
  63   0.0000       7.533122       204.9867 
  64   0.0000       7.556993       205.6362 
  65   0.0000       7.556997       205.6363 
  66   0.0000       8.974434       244.2068 
  67   0.0000      17.434539       474.4179 
  68   0.0000      17.434544       474.4181 
  69   0.0000      17.434549       474.4182 
  70   0.0000      17.457673       475.0474 
  71   0.0000      17.457673       475.0474 
  72   0.0000      19.846922       540.0622 
  73   0.0000      19.846934       540.0625 
  74   0.0000      19.846943       540.0628 
  75   0.0000      24.343295       662.4147 
  76   0.0000      40.262842      1095.6076 
  77   0.0000      40.262847      1095.6078 
  78   0.0000      40.262850      1095.6079 
  79   0.0000      40.278175      1096.0249 
  80   0.0000      40.278177      1096.0249 
  81   0.0000      51.608212      1404.3308 
  82   0.0000      51.608220      1404.3310 
  83   0.0000      51.608227      1404.3312 
  84   0.0000      66.322524      1804.7276 
  85   0.0000      91.805797      2498.1627 
  86   0.0000      91.805801      2498.1628 
  87   0.0000      91.805803      2498.1629 
  88   0.0000      91.815723      2498.4328 
  89   0.0000      91.815725      2498.4329 
  90   0.0000     129.896855      3534.6731 
  91   0.0000     129.896860      3534.6733 
  92   0.0000     129.896866      3534.6734 
  93   0.0000     176.037930      4790.2356 
  94   0.0000     205.457344      5590.7786 
  95   0.0000     205.457347      5590.7786 
  96   0.0000     205.457349      5590.7787 
  97   0.0000     205.465053      5590.9883 
  98   0.0000     205.465055      5590.9884 
  99   0.0000     312.439846      8501.9204 
 100   0.0000     312.439850      8501.9205 
 101   0.0000     312.439854      8501.9207 
 102   0.0000     446.227019     12142.4545 
 103   0.0000     450.287839     12252.9550 
 104   0.0000     450.287842     12252.9551 
 105   0.0000     450.287843     12252.9551 
 106   0.0000     450.293836     12253.1182 
 107   0.0000     450.293837     12253.1182 
 108   0.0000     716.311693     19491.8321 
 109   0.0000     716.311696     19491.8322 
 110   0.0000     716.311698     19491.8323 
 111   0.0000     966.144027     26290.1155 
 112   0.0000     966.144028     26290.1156 
 113   0.0000     966.144029     26290.1156 
 114   0.0000     966.148150     26290.2277 
 115   0.0000     966.148150     26290.2277 
 116   0.0000    1071.429181     29155.0702 
 117   0.0000    1574.331880     42839.7484 
 118   0.0000    1574.331882     42839.7484 
 119   0.0000    1574.331884     42839.7485 
 120   0.0000    2035.650131     55392.8562 
 121   0.0000    2035.650132     55392.8562 
 122   0.0000    2035.650133     55392.8562 
 123   0.0000    2035.652514     55392.9210 
 124   0.0000    2035.652515     55392.9210 
 125   0.0000    2438.655683     66359.1948 
 126   0.0000    3344.309083     91003.2767 
 127   0.0000    3344.309084     91003.2767 
 128   0.0000    3344.309085     91003.2767 
 129   0.0000    4228.155783    115053.9681 
 130   0.0000    4228.155783    115053.9681 
 131   0.0000    4228.155784    115053.9681 
 132   0.0000    4228.156976    115054.0006 
 133   0.0000    4228.156976    115054.0006 
 134   0.0000    5298.975450    144192.4526 
 135   0.0000    6914.848748    188162.6004 
 136   0.0000    6914.848749    188162.6005 
 137   0.0000    6914.848749    188162.6005 
 138   0.0000    8795.623629    239341.0868 
 139   0.0000    8795.623629    239341.0868 
 140   0.0000    8795.623629    239341.0868 
 141   0.0000    8795.624145    239341.1009 
 142   0.0000    8795.624145    239341.1009 
 143   0.0000   11093.217901    301861.8055 
 144   0.0000   13987.199559    380611.0499 
 145   0.0000   13987.199560    380611.0499 
 146   0.0000   13987.199560    380611.0499 
 147   0.0000   18484.376697    502985.4612 
 148   0.0000   18484.376697    502985.4612 
 149   0.0000   18484.376698    502985.4612 
 150   0.0000   18484.376892    502985.4665 
 151   0.0000   18484.376892    502985.4665 
 152   0.0000   22548.275552    613569.7710 
 153   0.0000   27790.296583    756212.4151 
 154   0.0000   27790.296583    756212.4151 
 155   0.0000   27790.296583    756212.4151 
 156   0.0000   44725.676847   1217047.5405 
 157   0.0000   54296.470306   1477482.0708 
 158   0.0000   54296.470306   1477482.0708 
 159   0.0000   54296.470306   1477482.0708 
 160   0.0000   86805.232716   2362090.4686 
 161   0.0000   104769.629964   2850926.5696 
 162   0.0000   104769.629964   2850926.5696 
 163   0.0000   104769.629964   2850926.5696 
 164   0.0000   164949.436011   4488502.3449 
 165   0.0000   198593.264149   5403997.4514 
 166   0.0000   198593.264149   5403997.4514 
 167   0.0000   198593.264149   5403997.4514 
 168   0.0000   306724.864683   8346407.8912 
 169   0.0000   379520.423131   10327275.7419 
 170   0.0000   379520.423131   10327275.7419 
 171   0.0000   379520.423131   10327275.7419 
 172   0.0000   557214.819751   15162586.0964 
 173   0.0000   695211.595985   18917669.2825 
 174   0.0000   695211.595985   18917669.2825 
 175   0.0000   695211.595985   18917669.2825 
 176   0.0000   988243.452601   26891471.4813 
 177   0.0000   1708428.400247   46488700.2106 
 178   0.0000   2895840.409891   78799823.6587 
 179   0.0000   4811237.088146   130920417.0338 
 180   0.0000   8132252.566427   221289842.4907 
 181   0.0000   14762456.898512   401706874.5914 

                 SPIN DOWN ORBITALS
  NO   OCC          E(Eh)            E(eV) 
   0   1.0000    -831.157647    -22616.9494 
   1   1.0000    -117.028580     -3184.5096 
   2   1.0000    -104.689129     -2848.7360 
   3   1.0000    -104.689128     -2848.7360 
   4   1.0000    -104.689126     -2848.7359 
   5   1.0000     -20.521827      -558.4273 
   6   1.0000     -16.498290      -448.9413 
   7   1.0000     -16.498285      -448.9411 
   8   1.0000     -16.498279      -448.9410 
   9   1.0000     -10.040215      -273.2082 
  10   1.0000     -10.040214      -273.2081 
  11   1.0000     -10.039136      -273.1788 
  12   1.0000     -10.039132      -273.1787 
  13   1.0000     -10.039130      -273.1786 
  14   1.0000      -2.774703       -75.5035 
  15   1.0000      -1.661050       -45.1995 
  16   1.0000      -1.661041       -45.1992 
  17   1.0000      -1.661038       -45.1991 
  18   1.0000      -0.152670        -4.1544 
  19   1.0000      -0.152667        -4.1543 
  20   0.0000      -0.124429        -3.3859 
  21   0.0000      -0.124424        -3.3857 
  22   0.0000      -0.124389        -3.3848 
  23   0.0000      -0.120354        -3.2750 
  24   0.0000       0.030260         0.8234 
  25   0.0000       0.074981         2.0403 
  26   0.0000       0.075063         2.0426 
  27   0.0000       0.075117         2.0440 
  28   0.0000       0.147477         4.0131 
  29   0.0000       0.147487         4.0133 
  30   0.0000       0.159071         4.3285 
  31   0.0000       0.160342         4.3631 
  32   0.0000       0.160438         4.3657 
  33   0.0000       0.160641         4.3713 
  34   0.0000       0.490712        13.3529 
  35   0.0000       0.530785        14.4434 
  36   0.0000       0.530798        14.4438 
  37   0.0000       0.546702        14.8765 
  38   0.0000       0.546741        14.8776 
  39   0.0000       0.546919        14.8824 
  40   0.0000       0.818071        22.2608 
  41   0.0000       0.818136        22.2626 
  42   0.0000       0.818182        22.2639 
  43   0.0000       1.319286        35.8996 
  44   0.0000       1.393309        37.9139 
  45   0.0000       1.393320        37.9142 
  46   0.0000       1.413978        38.4763 
  47   0.0000       1.414006        38.4771 
  48   0.0000       1.414125        38.4803 
  49   0.0000       2.742676        74.6320 
  50   0.0000       2.742696        74.6325 
  51   0.0000       2.742715        74.6331 
  52   0.0000       3.301401        89.8357 
  53   0.0000       3.301407        89.8358 
  54   0.0000       3.327452        90.5446 
  55   0.0000       3.327453        90.5446 
  56   0.0000       3.327517        90.5463 
  57   0.0000       3.441445        93.6465 
  58   0.0000       7.549444       205.4308 
  59   0.0000       7.549445       205.4308 
  60   0.0000       7.549460       205.4312 
  61   0.0000       7.598291       206.7600 
  62   0.0000       7.598292       206.7600 
  63   0.0000       7.621496       207.3915 
  64   0.0000       7.621502       207.3916 
  65   0.0000       7.621526       207.3923 
  66   0.0000       9.041262       246.0253 
  67   0.0000      17.486082       475.8205 
  68   0.0000      17.486083       475.8205 
  69   0.0000      17.499353       476.1816 
  70   0.0000      17.499358       476.1817 
  71   0.0000      17.499371       476.1821 
  72   0.0000      19.893883       541.3401 
  73   0.0000      19.893888       541.3402 
  74   0.0000      19.893896       541.3404 
  75   0.0000      24.386580       663.5926 
  76   0.0000      40.294762      1096.4762 
  77   0.0000      40.294763      1096.4763 
  78   0.0000      40.301572      1096.6615 
  79   0.0000      40.301577      1096.6617 
  80   0.0000      40.301584      1096.6618 
  81   0.0000      51.631726      1404.9707 
  82   0.0000      51.631731      1404.9708 
  83   0.0000      51.631737      1404.9710 
  84   0.0000      66.341948      1805.2562 
  85   0.0000      91.824805      2498.6800 
  86   0.0000      91.824806      2498.6800 
  87   0.0000      91.827090      2498.7421 
  88   0.0000      91.827094      2498.7423 
  89   0.0000      91.827097      2498.7423 
  90   0.0000     129.913436      3535.1243 
  91   0.0000     129.913439      3535.1244 
  92   0.0000     129.913443      3535.1245 
  93   0.0000     176.054894      4790.6972 
  94   0.0000     205.473899      5591.2291 
  95   0.0000     205.473900      5591.2291 
  96   0.0000     205.477543      5591.3282 
  97   0.0000     205.477546      5591.3283 
  98   0.0000     205.477548      5591.3283 
  99   0.0000     312.454926      8502.3308 
 100   0.0000     312.454928      8502.3308 
 101   0.0000     312.454931      8502.3309 
 102   0.0000     446.241466     12142.8476 
 103   0.0000     450.301640     12253.3306 
 104   0.0000     450.301641     12253.3306 
 105   0.0000     450.306330     12253.4582 
 106   0.0000     450.306333     12253.4583 
 107   0.0000     450.306334     12253.4583 
 108   0.0000     716.322595     19492.1288 
 109   0.0000     716.322596     19492.1288 
 110   0.0000     716.322598     19492.1289 
 111   0.0000     966.153061     26290.3614 
 112   0.0000     966.153062     26290.3614 
 113   0.0000     966.156319     26290.4500 
 114   0.0000     966.156321     26290.4501 
 115   0.0000     966.156323     26290.4501 
 116   0.0000    1071.437546     29155.2978 
 117   0.0000    1574.337846     42839.9107 
 118   0.0000    1574.337847     42839.9108 
 119   0.0000    1574.337848     42839.9108 
 120   0.0000    2035.654518     55392.9756 
 121   0.0000    2035.654518     55392.9756 
 122   0.0000    2035.656059     55393.0175 
 123   0.0000    2035.656061     55393.0175 
 124   0.0000    2035.656061     55393.0176 
 125   0.0000    2438.659498     66359.2986 
 126   0.0000    3344.311615     91003.3456 
 127   0.0000    3344.311616     91003.3456 
 128   0.0000    3344.311617     91003.3456 
 129   0.0000    4228.157600    115054.0175 
 130   0.0000    4228.157600    115054.0175 
 131   0.0000    4228.158258    115054.0354 
 132   0.0000    4228.158258    115054.0354 
 133   0.0000    4228.158259    115054.0355 
 134   0.0000    5298.977016    144192.4952 
 135   0.0000    6914.849832    188162.6299 
 136   0.0000    6914.849832    188162.6299 
 137   0.0000    6914.849833    188162.6299 
 138   0.0000    8795.624337    239341.1061 
 139   0.0000    8795.624337    239341.1061 
 140   0.0000    8795.624577    239341.1126 
 141   0.0000    8795.624577    239341.1126 
 142   0.0000    8795.624578    239341.1126 
 143   0.0000   11093.218805    301861.8300 
 144   0.0000   13987.200342    380611.0712 
 145   0.0000   13987.200342    380611.0712 
 146   0.0000   13987.200343    380611.0712 
 147   0.0000   18484.377617    502985.4862 
 148   0.0000   18484.377617    502985.4863 
 149   0.0000   18484.377702    502985.4886 
 150   0.0000   18484.377702    502985.4886 
 151   0.0000   18484.377702    502985.4886 
 152   0.0000   22548.276535    613569.7978 
 153   0.0000   27790.297598    756212.4427 
 154   0.0000   27790.297598    756212.4427 
 155   0.0000   27790.297598    756212.4427 
 156   0.0000   44725.678100   1217047.5746 
 157   0.0000   54296.471646   1477482.1072 
 158   0.0000   54296.471646   1477482.1072 
 159   0.0000   54296.471646   1477482.1072 
 160   0.0000   86805.234195   2362090.5088 
 161   0.0000   104769.631571   2850926.6134 
 162   0.0000   104769.631571   2850926.6134 
 163   0.0000   104769.631571   2850926.6134 
 164   0.0000   164949.437603   4488502.3882 
 165   0.0000   198593.265902   5403997.4991 
 166   0.0000   198593.265903   5403997.4991 
 167   0.0000   198593.265903   5403997.4991 
 168   0.0000   306724.866271   8346407.9344 
 169   0.0000   379520.424934   10327275.7910 
 170   0.0000   379520.424934   10327275.7910 
 171   0.0000   379520.424934   10327275.7910 
 172   0.0000   557214.821273   15162586.1378 
 173   0.0000   695211.597581   18917669.3259 
 174   0.0000   695211.597581   18917669.3259 
 175   0.0000   695211.597581   18917669.3259 
 176   0.0000   988243.454181   26891471.5243 
 177   0.0000   1708428.402458   46488700.2707 
 178   0.0000   2895840.413662   78799823.7614 
 179   0.0000   4811237.093911   130920417.1907 
 180   0.0000   8132252.571584   221289842.6310 
 181   0.0000   14762456.903594   401706874.7297 

                    ********************************
                    * MULLIKEN POPULATION ANALYSIS *
                    ********************************

--------------------------------------------
MULLIKEN ATOMIC CHARGES AND SPIN POPULATIONS
--------------------------------------------
   0 Ru:    0.000000    4.000000
Sum of atomic charges         :    0.0000000
Sum of atomic spin populations:    4.0000000

-----------------------------------------------------
MULLIKEN REDUCED ORBITAL CHARGES AND SPIN POPULATIONS
-----------------------------------------------------
CHARGE
  0 Rus       :     9.000000  s :     9.000000
      pz      :     6.000000  p :    18.000000
      px      :     6.000000
      py      :     6.000000
      dz2     :     3.656858  d :    17.000000
      dxz     :     3.126565
      dyz     :     3.331161
      dx2y2   :     3.011981
      dxy     :     3.873435

SPIN
  0 Rus       :     1.000000  s :     1.000000
      pz      :    -0.000000  p :    -0.000000
      px      :    -0.000000
      py      :    -0.000000
      dz2     :     0.343142  d :     3.000000
      dxz     :     0.873435
      dyz     :     0.668839
      dx2y2   :     0.988019
      dxy     :     0.126565


                     *******************************
                     * LOEWDIN POPULATION ANALYSIS *
                     *******************************

-------------------------------------------
LOEWDIN ATOMIC CHARGES AND SPIN POPULATIONS
-------------------------------------------
   0 Ru:    0.000000    4.000000

----------------------------------------------------
LOEWDIN REDUCED ORBITAL CHARGES AND SPIN POPULATIONS
----------------------------------------------------
CHARGE
  0 Rus       :     9.000000  s :     9.000000
      pz      :     6.000000  p :    18.000000
      px      :     6.000000
      py      :     6.000000
      dz2     :     3.656858  d :    17.000000
      dxz     :     3.126565
      dyz     :     3.331161
      dx2y2   :     3.011981
      dxy     :     3.873435

SPIN
  0 Rus       :     1.000000  s :     1.000000
      pz      :    -0.000000  p :    -0.000000
      px      :    -0.000000
      py      :    -0.000000
      dz2     :     0.343142  d :     3.000000
      dxz     :     0.873435
      dyz     :     0.668839
      dx2y2   :     0.988019
      dxy     :     0.126565


                      *****************************
                      * MAYER POPULATION ANALYSIS *
                      *****************************

  NA   - Mulliken gross atomic population
  ZA   - Total nuclear charge
  QA   - Mulliken gross atomic charge
  VA   - Mayer's total valence
  BVA  - Mayer's bonded valence
  FA   - Mayer's free valence

  ATOM       NA         ZA         QA         VA         BVA        FA
  0 Ru    44.0000    44.0000     0.0000     4.0011     0.0000     4.0011

  Mayer bond orders larger than 0.100000


-------
TIMINGS
-------

Total SCF time: 0 days 0 hours 6 min 39 sec 

Total time                  ....     399.016 sec
Sum of individual times     ....     295.124 sec  ( 74.0%)

Fock matrix formation       ....     267.192 sec  ( 67.0%)
  XC integration            ....     203.596 sec  ( 76.2% of F)
    Basis function eval.    ....       0.133 sec  (  0.1% of XC)
    Density eval.           ....       1.362 sec  (  0.7% of XC)
    XC-Functional eval.     ....       0.145 sec  (  0.1% of XC)
    XC-Potential eval.      ....       0.281 sec  (  0.1% of XC)
Diagonalization             ....       1.173 sec  (  0.3%)
Density matrix formation    ....       0.062 sec  (  0.0%)
Population analysis         ....       0.231 sec  (  0.1%)
Initial guess               ....       4.593 sec  (  1.2%)
Orbital Transformation      ....       0.000 sec  (  0.0%)
Orbital Orthonormalization  ....       0.000 sec  (  0.0%)
DIIS solution               ....       7.963 sec  (  2.0%)
SOSCF solution              ....       7.199 sec  (  1.8%)
Grid generation             ....       6.712 sec  (  1.7%)

Maximum memory used throughout the entire SCF-calculation: 229.5 MB

-------------------------   --------------------
FINAL SINGLE POINT ENERGY     -4598.301056838364
-------------------------   --------------------


                            ***************************************
                            *     ORCA property calculations      *
                            ***************************************

                                    ---------------------
                                    Active property flags
                                    ---------------------
   (+) Dipole Moment


------------------------------------------------------------------------------
                       ORCA ELECTRIC PROPERTIES CALCULATION
------------------------------------------------------------------------------

Dipole Moment Calculation                       ... on
Quadrupole Moment Calculation                   ... off
Polarizability Calculation                      ... off
GBWName                                         ... Ru_ugbs_pbe.gbw
Electron density                                ... Ru_ugbs_pbe.scfp
The origin for moment calculation is the CENTER OF MASS  = ( 0.000000,  0.000000  0.000000)

-------------
DIPOLE MOMENT
-------------
                                X             Y             Z
Electronic contribution:      0.00000       0.00000       0.00000
Nuclear contribution   :      0.00000       0.00000       0.00000
                        -----------------------------------------
Total Dipole Moment    :      0.00000       0.00000       0.00000
                        -----------------------------------------
Magnitude (a.u.)       :      0.00000
Magnitude (Debye)      :      0.00000



--------------------
Rotational spectrum 
--------------------
 
Rotational constants in cm-1:     0.000000     0.000000     0.000000 
Rotational constants in MHz :     0.000000     0.000000     0.000000 

 Dipole components along the rotational axes: 
x,y,z [a.u.] :     0.000000     0.000000     0.000000 
x,y,z [Debye]:     0.000000     0.000000     0.000000 

 

Timings for individual modules:

Sum of individual times         ...      552.353 sec (=   9.206 min)
GTO integral calculation        ...      116.701 sec (=   1.945 min)  21.1 %
Relativistic integrals          ...       27.206 sec (=   0.453 min)   4.9 %
SCF iterations                  ...      408.446 sec (=   6.807 min)  73.9 %
                             ****ORCA TERMINATED NORMALLY****
TOTAL RUN TIME: 0 days 0 hours 9 minutes 24 seconds 89 msec
