
                                 *****************
                                 * O   R   C   A *
                                 *****************

                                            #,                                       
                                            ###                                      
                                            ####                                     
                                            #####                                    
                                            ######                                   
                                           ########,                                 
                                     ,,################,,,,,                         
                               ,,#################################,,                 
                          ,,##########################################,,             
                       ,#########################################, ''#####,          
                    ,#############################################,,   '####,        
                  ,##################################################,,,,####,       
                ,###########''''           ''''###############################       
              ,#####''   ,,,,##########,,,,          '''####'''          '####       
            ,##' ,,,,###########################,,,                        '##       
           ' ,,###''''                  '''############,,,                           
         ,,##''                                '''############,,,,        ,,,,,,###''
      ,#''                                            '''#######################'''  
     '                                                          ''''####''''         
             ,#######,   #######,   ,#######,      ##                                
            ,#'     '#,  ##    ##  ,#'     '#,    #''#        ######   ,####,        
            ##       ##  ##   ,#'  ##            #'  '#       #        #'  '#        
            ##       ##  #######   ##           ,######,      #####,   #    #        
            '#,     ,#'  ##    ##  '#,     ,#' ,#      #,         ##   #,  ,#        
             '#######'   ##     ##  '#######'  #'      '#     #####' # '####'        



                  #######################################################
                  #                        -***-                        #
                  #          Department of theory and spectroscopy      #
                  #    Directorship and core code : Frank Neese         #
                  #        Max Planck Institute fuer Kohlenforschung    #
                  #                Kaiser Wilhelm Platz 1               #
                  #                 D-45470 Muelheim/Ruhr               #
                  #                      Germany                        #
                  #                                                     #
                  #                  All rights reserved                #
                  #                        -***-                        #
                  #######################################################


                         Program Version 5.0.1 -  RELEASE  -


 With contributions from (in alphabetic order):
   Daniel Aravena         : Magnetic Suceptibility
   Michael Atanasov       : Ab Initio Ligand Field Theory (pilot matlab implementation)
   Alexander A. Auer      : GIAO ZORA, VPT2 properties, NMR spectrum
   Ute Becker             : Parallelization
   Giovanni Bistoni       : ED, misc. LED, open-shell LED, HFLD
   Martin Brehm           : Molecular dynamics
   Dmytro Bykov           : SCF Hessian
   Vijay G. Chilkuri      : MRCI spin determinant printing, contributions to CSF-ICE
   Dipayan Datta          : RHF DLPNO-CCSD density
   Achintya Kumar Dutta   : EOM-CC, STEOM-CC
   Dmitry Ganyushin       : Spin-Orbit,Spin-Spin,Magnetic field MRCI
   Miquel Garcia          : C-PCM and meta-GGA Hessian, CC/C-PCM, Gaussian charge scheme
   Yang Guo               : DLPNO-NEVPT2, F12-NEVPT2, CIM, IAO-localization
   Andreas Hansen         : Spin unrestricted coupled pair/coupled cluster methods
   Benjamin Helmich-Paris : MC-RPA, TRAH-SCF, COSX integrals
   Lee Huntington         : MR-EOM, pCC
   Robert Izsak           : Overlap fitted RIJCOSX, COSX-SCS-MP3, EOM
   Marcus Kettner         : VPT2
   Christian Kollmar      : KDIIS, OOCD, Brueckner-CCSD(T), CCSD density, CASPT2, CASPT2-K
   Simone Kossmann        : Meta GGA functionals, TD-DFT gradient, OOMP2, MP2 Hessian
   Martin Krupicka        : Initial AUTO-CI
   Lucas Lang             : DCDCAS
   Marvin Lechner         : AUTO-CI (C++ implementation), FIC-MRCC
   Dagmar Lenk            : GEPOL surface, SMD
   Dimitrios Liakos       : Extrapolation schemes; Compound Job, initial MDCI parallelization
   Dimitrios Manganas     : Further ROCIS development; embedding schemes
   Dimitrios Pantazis     : SARC Basis sets
   Anastasios Papadopoulos: AUTO-CI, single reference methods and gradients
   Taras Petrenko         : DFT Hessian,TD-DFT gradient, ASA, ECA, R-Raman, ABS, FL, XAS/XES, NRVS
   Peter Pinski           : DLPNO-MP2, DLPNO-MP2 Gradient
   Christoph Reimann      : Effective Core Potentials
   Marius Retegan         : Local ZFS, SOC
   Christoph Riplinger    : Optimizer, TS searches, QM/MM, DLPNO-CCSD(T), (RO)-DLPNO pert. Triples
   Tobias Risthaus        : Range-separated hybrids, TD-DFT gradient, RPA, STAB
   Michael Roemelt        : Original ROCIS implementation
   Masaaki Saitow         : Open-shell DLPNO-CCSD energy and density
   Barbara Sandhoefer     : DKH picture change effects
   Avijit Sen             : IP-ROCIS
   Kantharuban Sivalingam : CASSCF convergence, NEVPT2, FIC-MRCI
   Bernardo de Souza      : ESD, SOC TD-DFT
   Georgi Stoychev        : AutoAux, RI-MP2 NMR, DLPNO-MP2 response
   Willem Van den Heuvel  : Paramagnetic NMR
   Boris Wezisla          : Elementary symmetry handling
   Frank Wennmohs         : Technical directorship


 We gratefully acknowledge several colleagues who have allowed us to
 interface, adapt or use parts of their codes:
   Stefan Grimme, W. Hujo, H. Kruse, P. Pracht,  : VdW corrections, initial TS optimization,
                  C. Bannwarth, S. Ehlert          DFT functionals, gCP, sTDA/sTD-DF
   Ed Valeev, F. Pavosevic, A. Kumar             : LibInt (2-el integral package), F12 methods
   Garnet Chan, S. Sharma, J. Yang, R. Olivares  : DMRG
   Ulf Ekstrom                                   : XCFun DFT Library
   Mihaly Kallay                                 : mrcc  (arbitrary order and MRCC methods)
   Jiri Pittner, Ondrej Demel                    : Mk-CCSD
   Frank Weinhold                                : gennbo (NPA and NBO analysis)
   Christopher J. Cramer and Donald G. Truhlar   : smd solvation model
   Lars Goerigk                                  : TD-DFT with DH, B97 family of functionals
   V. Asgeirsson, H. Jonsson                     : NEB implementation
   FAccTs GmbH                                   : IRC, NEB, NEB-TS, DLPNO-Multilevel, CI-OPT
                                                   MM, QMMM, 2- and 3-layer-ONIOM, Crystal-QMMM,
                                                   LR-CPCM, SF, NACMEs, symmetry and pop. for TD-DFT,
                                                   nearIR, NL-DFT gradient (VV10), updates on ESD,
                                                   ML-optimized integration grids
   S Lehtola, MJT Oliveira, MAL Marques          : LibXC Library
   Liviu Ungur et al                             : ANISO software


 Your calculation uses the libint2 library for the computation of 2-el integrals
 For citations please refer to: http://libint.valeyev.net

 Your ORCA version has been built with support for libXC version: 5.1.0
 For citations please refer to: https://tddft.org/programs/libxc/

 This ORCA versions uses:
   CBLAS   interface :  Fast vector & matrix operations
   LAPACKE interface :  Fast linear algebra routines
   SCALAPACK package :  Parallel linear algebra routines
   Shared memory     :  Shared parallel matrices
   BLAS/LAPACK       :  OpenBLAS 0.3.15  USE64BITINT DYNAMIC_ARCH NO_AFFINITY Haswell SINGLE_THREADED
        Core in use  :  Haswell
   Copyright (c) 2011-2014, The OpenBLAS Project


SCAN-COORDS

Reading of a custom basis requested
Basis file         : Sb_ano-r3.basis
READING GTO-BASIS: ANTIMONY
Basis successfully read

================================================================================

----- Orbital basis set information -----
================================================================================
                                        WARNINGS
                       Please study these warnings very carefully!
================================================================================


INFO   : the flag for use of the SHARK integral package has been found!

================================================================================
                                       INPUT FILE
================================================================================
NAME = Sb_ano-r3_pbe.inp
|  1> !uks pbe nori verytightscf soscf notrah
|  2> 
|  3> %pal
|  4>   nprocs 32
|  5> end
|  6> %coords
|  7>   charge 0
|  8>   mult 4
|  9>   units bohrs
| 10>   coords
| 11>     Sb 0.0 0.0 0.0
| 12>   end
| 13> end
| 14> %basis
| 15>   gtoname "Sb_ano-r3.basis"
| 16>   delECP Sb
| 17> end
| 18> %rel
| 19>   method zora
| 20>   modelpot 1, 0, 0, 0
| 21>   c 137.035999084
| 22> endd                         ****END OF INPUT****
================================================================================

                       ****************************
                       * Single Point Calculation *
                       ****************************

---------------------------------
CARTESIAN COORDINATES (ANGSTROEM)
---------------------------------
  Sb     0.000000    0.000000    0.000000

----------------------------
CARTESIAN COORDINATES (A.U.)
----------------------------
  NO LB      ZA    FRAG     MASS         X           Y           Z
   0 Sb   51.0000    0   121.750    0.000000    0.000000    0.000000

--------------------------------
INTERNAL COORDINATES (ANGSTROEM)
--------------------------------
 Sb     0   0   0     0.000000000000     0.00000000     0.00000000

---------------------------
INTERNAL COORDINATES (A.U.)
---------------------------
 Sb     0   0   0     0.000000000000     0.00000000     0.00000000

---------------------
BASIS SET INFORMATION
---------------------
There are 1 groups of distinct atoms

 Group   1 Type Sb  : 184s126p60d18f10g3h contracted to 8s7p5d3f2g1h pattern {2323232323232323/18181818181818/1212121212/666/55/3}

Atom   0Sb   basis set group =>   1


           ************************************************************
           *        Program running with 32 parallel MPI-processes    *
           *              working on a common directory               *
           ************************************************************
------------------------------------------------------------------------------
                           ORCA GTO INTEGRAL CALCULATION
------------------------------------------------------------------------------
------------------------------------------------------------------------------
                   ___                                                        
                  /   \      - P O W E R E D   B Y -                         
                 /     \                                                     
                 |  |  |   _    _      __       _____    __    __             
                 |  |  |  | |  | |    /  \     |  _  \  |  |  /  |          
                  \  \/   | |  | |   /    \    | | | |  |  | /  /          
                 / \  \   | |__| |  /  /\  \   | |_| |  |  |/  /          
                |  |  |   |  __  | /  /__\  \  |    /   |      \           
                |  |  |   | |  | | |   __   |  |    \   |  |\   \          
                \     /   | |  | | |  |  |  |  | |\  \  |  | \   \       
                 \___/    |_|  |_| |__|  |__|  |_| \__\ |__|  \__/        
                                                                              
                      - O R C A' S   B I G   F R I E N D -                    
                                      &                                       
                       - I N T E G R A L  F E E D E R -                       
                                                                              
 v1 FN, 2020, v2 2021                                                         
------------------------------------------------------------------------------


Reading SHARK input file Sb_ano-r3_pbe.SHARKINP.tmp ... ok
----------------------
SHARK INTEGRAL PACKAGE
----------------------

Number of atoms                             ...      1
Number of basis functions                   ...    104
Number of shells                            ...     26
Maximum angular momentum                    ...      5
Integral batch strategy                     ... SHARK/LIBINT Hybrid
RI-J (if used) integral strategy            ... SPLIT-RIJ (Revised 2003 algorithm where possible)
Printlevel                                  ...      1
Contraction scheme used                     ... SEGMENTED contraction
Coulomb Range Separation                    ... NOT USED
Exchange Range Separation                   ... NOT USED
Finite Nucleus Model                        ... NOT USED
Auxiliary Coulomb fitting basis             ... NOT available
Auxiliary J/K fitting basis                 ... NOT available
Auxiliary Correlation fitting basis         ... NOT available
Auxiliary 'external' fitting basis          ... NOT available
Integral threshold                          ...     1.000000e-12
Primitive cut-off                           ...     1.000000e-14
Primitive pair pre-selection threshold      ...     1.000000e-14

Calculating pre-screening integrals         ... done ( 42.0 sec) Dimension = 26
Organizing shell pair data                  ... done (  2.6 sec)
Shell pair information
Total number of shell pairs                 ...       351
Shell pairs after pre-screening             ...       351
Total number of primitive shell pairs       ...     84094
Primitive shell pairs kept                  ...     84086
          la=0 lb=0:     36 shell pairs
          la=1 lb=0:     56 shell pairs
          la=1 lb=1:     28 shell pairs
          la=2 lb=0:     40 shell pairs
          la=2 lb=1:     35 shell pairs
          la=2 lb=2:     15 shell pairs
          la=3 lb=0:     24 shell pairs
          la=3 lb=1:     21 shell pairs
          la=3 lb=2:     15 shell pairs
          la=3 lb=3:      6 shell pairs
          la=4 lb=0:     16 shell pairs
          la=4 lb=1:     14 shell pairs
          la=4 lb=2:     10 shell pairs
          la=4 lb=3:      6 shell pairs
          la=4 lb=4:      3 shell pairs
          la=5 lb=0:      8 shell pairs
          la=5 lb=1:      7 shell pairs
          la=5 lb=2:      5 shell pairs
          la=5 lb=3:      3 shell pairs
          la=5 lb=4:      2 shell pairs
          la=5 lb=5:      1 shell pairs

Calculating one electron integrals          ... done ( 10.1 sec)
Calculating Nuclear repulsion               ... done (  0.0 sec) ENN=      0.000000000000 Eh

SHARK setup successfully completed in  58.1 seconds

Maximum memory used throughout the entire GTOINT-calculation: 386.5 MB


           ************************************************************
           *        Program running with 32 parallel MPI-processes    *
           *              working on a common directory               *
           ************************************************************
------------------------------------------------------------------------------
                          ORCA RELATIVISTIC HAMILTONIAN
------------------------------------------------------------------------------

Relativistic Method            ... ZORA(MP)
Treatment of potential         ... Van Wuellen
Nucleus model                  ... Point Nucleus
Speed of light used            ... 137.03599908400000


            *************************************************
            *         ZERO ORDER REGULAR APPROXIMATION      *
            *                     ZORA(MP)                  *
            *            Programmed by FN according to      *
            *                   C. van Wuellen              *
            *       J. Chem. Phys. (1998) vol 109, 392-399  *
            *************************************************

Terms included in model potential: +V(e,N)
Basis function cutoff value   ... 1.000000e-12
Loading the fitted atomic densities  (DKH4)  ... done
Calculating the cutoffs                      ... done
Number of fit functions                      ... 29
Setting up the integration grid ... done

Maximum memory used throughout the entire REL-calculation: 5.5 MB


           ************************************************************
           *        Program running with 32 parallel MPI-processes    *
           *              working on a common directory               *
           ************************************************************
-------------------------------------------------------------------------------
                                 ORCA SCF
-------------------------------------------------------------------------------

------------
SCF SETTINGS
------------
Hamiltonian:
 Density Functional     Method          .... DFT(GTOs)
 Exchange Functional    Exchange        .... PBE
   PBE kappa parameter   XKappa         ....  0.804000
   PBE mue parameter    XMuePBE         ....  0.219520
 Correlation Functional Correlation     .... PBE
   PBE beta parameter  CBetaPBE         ....  0.066725
 LDA part of GGA corr.  LDAOpt          .... PW91-LDA
 Gradients option       PostSCFGGA      .... off
   Density functional embedding theory  .... OFF
   NL short-range parameter             ....  6.400000

Relativistic Settings:
 Scalar relativistic method             .... ZORA
 Speed of light used       Velit        ....       137.035999
Orbital energies will be scaled


General Settings:
 Integral files         IntName         .... Sb_ano-r3_pbe
 Hartree-Fock type      HFTyp           .... UHF
 Total Charge           Charge          ....    0
 Multiplicity           Mult            ....    4
 Number of Electrons    NEL             ....   51
 Basis Dimension        Dim             ....  104
 Nuclear Repulsion      ENuc            ....      0.0000000000 Eh

Convergence Acceleration:
 DIIS                   CNVDIIS         .... on
   Start iteration      DIISMaxIt       ....    12
   Startup error        DIISStart       ....  0.200000
   # of expansion vecs  DIISMaxEq       ....     5
   Bias factor          DIISBfac        ....   1.050
   Max. coefficient     DIISMaxC        ....  10.000
 Trust-Rad. Augm. Hess. CNVTRAH         .... off
 SOSCF                  CNVSOSCF        .... on
   Start iteration      SOSCFMaxIt      ....   150
   Startup grad/error   SOSCFStart      ....  0.003300
 Level Shifting         CNVShift        .... on
   Level shift para.    LevelShift      ....    0.2500
   Turn off err/grad.   ShiftErr        ....    0.0010
 Zerner damping         CNVZerner       .... off
 Static damping         CNVDamp         .... on
   Fraction old density DampFac         ....    0.7000
   Max. Damping (<1)    DampMax         ....    0.9800
   Min. Damping (>=0)   DampMin         ....    0.0000
   Turn off err/grad.   DampErr         ....    0.1000
 Fernandez-Rico         CNVRico         .... off

SCF Procedure:
 Maximum # iterations   MaxIter         ....   125
 SCF integral mode      SCFMode         .... Direct
   Integral package                     .... SHARK and LIBINT hybrid scheme
 Reset frequency        DirectResetFreq ....    20
 Integral Threshold     Thresh          ....  1.000e-12 Eh
 Primitive CutOff       TCut            ....  1.000e-14 Eh

Convergence Tolerance:
 Convergence Check Mode ConvCheckMode   .... Total+1el-Energy
 Convergence forced     ConvForced      .... 0
 Energy Change          TolE            ....  1.000e-09 Eh
 1-El. energy change                    ....  1.000e-06 Eh
 Orbital Gradient       TolG            ....  2.000e-06
 Orbital Rotation angle TolX            ....  2.000e-06
 DIIS Error             TolErr          ....  1.000e-08


Diagonalization of the overlap matrix:
Smallest eigenvalue                        ... 1.000e+00
Time for diagonalization                   ...    0.363 sec
Threshold for overlap eigenvalues          ... 1.000e-08
Number of eigenvalues below threshold      ... 0
Time for construction of square roots      ...    0.298 sec
Total time needed                          ...    0.663 sec

Time for model grid setup =    0.103 sec

------------------------------
INITIAL GUESS: MODEL POTENTIAL
------------------------------
Loading ZORA relativistic densities                ... done
Calculating cut-offs                               ... done
Initializing the effective Hamiltonian             ... done
Setting up the integral package (SHARK)            ... done
Starting the Coulomb interaction                   ... done (   0.7 sec)
Reading the grid                                   ... done
Mapping shells                                     ... done
Starting the XC term evaluation                    ... done (   0.0 sec)
  promolecular density results
     # of electrons  =     51.000411659
     EX              =   -175.747991296
     EC              =     -2.702385484
     EX+EC           =   -178.450376780
Transforming the Hamiltonian                       ... done (   0.0 sec)
Diagonalizing the Hamiltonian                      ... done (   0.0 sec)
Back transforming the eigenvectors                 ... done (   0.0 sec)
Now organizing SCF variables                       ... done
                      ------------------
                      INITIAL GUESS DONE (   1.0 sec)
                      ------------------
-------------------
DFT GRID GENERATION
-------------------

General Integration Accuracy     IntAcc      ... 4.388
Radial Grid Type                 RadialGrid  ... OptM3 with GC (2021)
Angular Grid (max. ang.)         AngularGrid ... 4 (Lebedev-302)
Angular grid pruning method      GridPruning ... 4 (adaptive)
Weight generation scheme         WeightScheme... Becke
Basis function cutoff            BFCut       ... 1.0000e-12
Integration weight cutoff        WCut        ... 1.0000e-14
Angular grids for H and He will be reduced by one unit
Partially contracted basis set               ... off
Rotationally invariant grid construction     ... off

Total number of grid points                  ...    13826
Total number of batches                      ...      217
Average number of points per batch           ...       63
Average number of grid points per atom       ...    13826
Time for grid setup =    0.707 sec

--------------
SCF ITERATIONS
--------------
ITER       Energy         Delta-E        Max-DP      RMS-DP      [F,P]     Damp
               ***  Starting incremental Fock matrix formation  ***
  0  -6592.1278422338   0.000000000000 0.01167948  0.00024747  0.3445954 0.7000
  1  -6592.1422703677  -0.014428133963 0.01007999  0.00016632  0.2343902 0.7000
                               ***Turning on DIIS***
  2  -6592.1494790007  -0.007208632986 0.00643129  0.00009893  0.1602608 0.7000
  3  -6592.1540227474  -0.004543746673 0.00282817  0.00005374  0.1101823 0.7000
  4  -6592.1570946037  -0.003071856318 0.00606019  0.00011190  0.0771114 0.0000
                      *** Initiating the SOSCF procedure ***
                           *** Shutting down DIIS ***
                      *** Re-Reading the Fockian *** 
                      *** Removing any level shift *** 
ITER      Energy       Delta-E        Grad      Rot      Max-DP    RMS-DP
  5  -6592.16426432  -0.0071697173  0.000478  0.000478  0.000405  0.000008
               *** Restarting incremental Fock matrix formation ***
  6  -6592.16426529  -0.0000009661  0.000343  0.000323  0.000341  0.000007
  7  -6592.16426509   0.0000001936  0.000385  0.000181  0.000191  0.000004
  8  -6592.16426601  -0.0000009215  0.000004  0.000006  0.000005  0.000000
  9  -6592.16426602  -0.0000000001  0.000001  0.000002  0.000001  0.000000
                  ***Gradient check signals convergence***
              ***Rediagonalizing the Fockian in SOSCF/NRSCF***

               *****************************************************
               *                     SUCCESS                       *
               *           SCF CONVERGED AFTER  10 CYCLES          *
               *****************************************************


----------------
TOTAL SCF ENERGY
----------------

Total Energy       :        -6592.16426602 Eh         -179381.90928 eV

Components:
Nuclear Repulsion  :            0.00000000 Eh               0.00000 eV
Electronic Energy  :        -6592.16426602 Eh         -179381.90928 eV
One Electron Energy:        -9018.09037222 Eh         -245394.71465 eV
Two Electron Energy:         2425.92610621 Eh           66012.80538 eV

Virial components:
Potential Energy   :       -13619.16711389 Eh         -370596.37792 eV
Kinetic Energy     :         7027.00284787 Eh          191214.46865 eV
Virial Ratio       :            1.93811891


DFT components:
N(Alpha)           :       26.999999763614 electrons
N(Beta)            :       23.999999765235 electrons
N(Total)           :       50.999999528849 electrons
E(X)               :     -169.318316476510 Eh       
E(C)               :       -2.695253546616 Eh       
E(XC)              :     -172.013570023127 Eh       
DFET-embed. en.    :        0.000000000000 Eh       

---------------
SCF CONVERGENCE
---------------

  Last Energy change         ...    2.7285e-12  Tolerance :   1.0000e-09
  Last MAX-Density change    ...    2.7145e-08  Tolerance :   1.0000e-08
  Last RMS-Density change    ...    5.2408e-10  Tolerance :   1.0000e-09
  Last Orbital Gradient      ...    1.9770e-07  Tolerance :   2.0000e-06
  Last Orbital Rotation      ...    2.8295e-08  Tolerance :   2.0000e-06

             **** THE GBW FILE WAS UPDATED (Sb_ano-r3_pbe.gbw) ****
             **** DENSITY Sb_ano-r3_pbe.scfp WAS UPDATED ****
             **** ENERGY FILE WAS UPDATED (Sb_ano-r3_pbe.en.tmp) ****
----------------------
UHF SPIN CONTAMINATION
----------------------

Warning: in a DFT calculation there is little theoretical justification to 
         calculate <S**2> as in Hartree-Fock theory. We will do it anyways
         but you should keep in mind that the values have only limited relevance

Expectation value of <S**2>     :     3.750876
Ideal value S*(S+1) for S=1.5   :     3.750000
Deviation                       :     0.000876

             **** THE GBW FILE WAS UPDATED (Sb_ano-r3_pbe.gbw) ****
             **** DENSITY Sb_ano-r3_pbe.scfp WAS UPDATED ****
----------------
ORBITAL ENERGIES
----------------
                 SPIN UP ORBITALS
  NO   OCC          E(Eh)            E(eV) 
   0   1.0000   -1154.216663    -31407.8322 
   1   1.0000    -171.039336     -4654.2169 
   2   1.0000    -154.156937     -4194.8235 
   3   1.0000    -154.156937     -4194.8235 
   4   1.0000    -154.156937     -4194.8235 
   5   1.0000     -33.346538      -907.4054 
   6   1.0000     -27.783802      -756.0357 
   7   1.0000     -27.783802      -756.0357 
   8   1.0000     -27.783802      -756.0357 
   9   1.0000     -19.063379      -518.7409 
  10   1.0000     -19.063379      -518.7409 
  11   1.0000     -19.063379      -518.7409 
  12   1.0000     -19.063379      -518.7409 
  13   1.0000     -19.063379      -518.7409 
  14   1.0000      -5.465309      -148.7186 
  15   1.0000      -3.752153      -102.1013 
  16   1.0000      -3.752153      -102.1013 
  17   1.0000      -3.752153      -102.1013 
  18   1.0000      -1.225121       -33.3372 
  19   1.0000      -1.225121       -33.3372 
  20   1.0000      -1.225121       -33.3372 
  21   1.0000      -1.225121       -33.3372 
  22   1.0000      -1.225121       -33.3372 
  23   1.0000      -0.492527       -13.4023 
  24   1.0000      -0.201069        -5.4714 
  25   1.0000      -0.201069        -5.4714 
  26   1.0000      -0.201069        -5.4714 
  27   0.0000      -0.005601        -0.1524 
  28   0.0000       0.131586         3.5806 
  29   0.0000       0.131586         3.5806 
  30   0.0000       0.131586         3.5806 
  31   0.0000       0.174428         4.7464 
  32   0.0000       0.174428         4.7464 
  33   0.0000       0.174428         4.7464 
  34   0.0000       0.174428         4.7464 
  35   0.0000       0.174428         4.7464 
  36   0.0000       0.460052        12.5187 
  37   0.0000       0.608473        16.5574 
  38   0.0000       0.608473        16.5574 
  39   0.0000       0.608473        16.5574 
  40   0.0000       0.608473        16.5574 
  41   0.0000       0.608473        16.5574 
  42   0.0000       0.608473        16.5574 
  43   0.0000       0.608473        16.5574 
  44   0.0000       1.178644        32.0725 
  45   0.0000       1.178644        32.0725 
  46   0.0000       1.178644        32.0725 
  47   0.0000       1.375286        37.4234 
  48   0.0000       1.375286        37.4234 
  49   0.0000       1.375286        37.4234 
  50   0.0000       1.375286        37.4234 
  51   0.0000       1.375286        37.4234 
  52   0.0000       1.787720        48.6463 
  53   0.0000       1.787720        48.6463 
  54   0.0000       1.787720        48.6463 
  55   0.0000       1.787720        48.6463 
  56   0.0000       1.787720        48.6463 
  57   0.0000       1.787720        48.6463 
  58   0.0000       1.787720        48.6463 
  59   0.0000       2.155072        58.6425 
  60   0.0000       2.155072        58.6425 
  61   0.0000       2.155072        58.6425 
  62   0.0000       2.155072        58.6425 
  63   0.0000       2.155072        58.6425 
  64   0.0000       2.155072        58.6425 
  65   0.0000       2.155072        58.6425 
  66   0.0000       2.155072        58.6425 
  67   0.0000       2.155072        58.6425 
  68   0.0000       3.568666        97.1083 
  69   0.0000       4.882738       132.8660 
  70   0.0000       4.882738       132.8660 
  71   0.0000       4.882738       132.8660 
  72   0.0000       4.882738       132.8660 
  73   0.0000       4.882738       132.8660 
  74   0.0000       4.882738       132.8660 
  75   0.0000       4.882738       132.8660 
  76   0.0000       5.506598       149.8421 
  77   0.0000       5.506598       149.8421 
  78   0.0000       5.506598       149.8421 
  79   0.0000       6.358294       173.0180 
  80   0.0000       6.358294       173.0180 
  81   0.0000       6.358294       173.0180 
  82   0.0000       6.358294       173.0180 
  83   0.0000       6.358294       173.0180 
  84   0.0000       7.369918       200.5457 
  85   0.0000       7.369918       200.5457 
  86   0.0000       7.369918       200.5457 
  87   0.0000       7.369918       200.5457 
  88   0.0000       7.369918       200.5457 
  89   0.0000       7.369918       200.5457 
  90   0.0000       7.369918       200.5457 
  91   0.0000       7.369918       200.5457 
  92   0.0000       7.369918       200.5457 
  93   0.0000       8.949026       243.5154 
  94   0.0000       8.949026       243.5154 
  95   0.0000       8.949026       243.5154 
  96   0.0000       8.949026       243.5154 
  97   0.0000       8.949026       243.5154 
  98   0.0000       8.949026       243.5154 
  99   0.0000       8.949026       243.5154 
 100   0.0000       8.949026       243.5154 
 101   0.0000       8.949026       243.5154 
 102   0.0000       8.949026       243.5154 
 103   0.0000       8.949026       243.5154 

                 SPIN DOWN ORBITALS
  NO   OCC          E(Eh)            E(eV) 
   0   1.0000   -1154.214561    -31407.7749 
   1   1.0000    -171.038524     -4654.1948 
   2   1.0000    -154.155254     -4194.7777 
   3   1.0000    -154.155254     -4194.7777 
   4   1.0000    -154.155254     -4194.7777 
   5   1.0000     -33.344657      -907.3543 
   6   1.0000     -27.781667      -755.9776 
   7   1.0000     -27.781667      -755.9776 
   8   1.0000     -27.781667      -755.9776 
   9   1.0000     -19.061378      -518.6865 
  10   1.0000     -19.061378      -518.6865 
  11   1.0000     -19.061378      -518.6865 
  12   1.0000     -19.061378      -518.6865 
  13   1.0000     -19.061378      -518.6865 
  14   1.0000      -5.460849      -148.5972 
  15   1.0000      -3.747347      -101.9705 
  16   1.0000      -3.747347      -101.9705 
  17   1.0000      -3.747347      -101.9705 
  18   1.0000      -1.214950       -33.0605 
  19   1.0000      -1.214950       -33.0605 
  20   1.0000      -1.214950       -33.0605 
  21   1.0000      -1.214950       -33.0605 
  22   1.0000      -1.214950       -33.0605 
  23   1.0000      -0.424924       -11.5628 
  24   0.0000      -0.129691        -3.5291 
  25   0.0000      -0.129691        -3.5291 
  26   0.0000      -0.129691        -3.5291 
  27   0.0000       0.035358         0.9622 
  28   0.0000       0.179439         4.8828 
  29   0.0000       0.179439         4.8828 
  30   0.0000       0.179439         4.8828 
  31   0.0000       0.246706         6.7132 
  32   0.0000       0.246706         6.7132 
  33   0.0000       0.246706         6.7132 
  34   0.0000       0.246706         6.7132 
  35   0.0000       0.246706         6.7132 
  36   0.0000       0.511561        13.9203 
  37   0.0000       0.681754        18.5515 
  38   0.0000       0.681754        18.5515 
  39   0.0000       0.681754        18.5515 
  40   0.0000       0.681754        18.5515 
  41   0.0000       0.681754        18.5515 
  42   0.0000       0.681754        18.5515 
  43   0.0000       0.681754        18.5515 
  44   0.0000       1.225771        33.3549 
  45   0.0000       1.225771        33.3549 
  46   0.0000       1.225771        33.3549 
  47   0.0000       1.423508        38.7356 
  48   0.0000       1.423508        38.7356 
  49   0.0000       1.423508        38.7356 
  50   0.0000       1.423508        38.7356 
  51   0.0000       1.423508        38.7356 
  52   0.0000       1.810275        49.2601 
  53   0.0000       1.810275        49.2601 
  54   0.0000       1.810275        49.2601 
  55   0.0000       1.810275        49.2601 
  56   0.0000       1.810275        49.2601 
  57   0.0000       1.810275        49.2601 
  58   0.0000       1.810275        49.2601 
  59   0.0000       2.223301        60.4991 
  60   0.0000       2.223301        60.4991 
  61   0.0000       2.223301        60.4991 
  62   0.0000       2.223301        60.4991 
  63   0.0000       2.223301        60.4991 
  64   0.0000       2.223301        60.4991 
  65   0.0000       2.223301        60.4991 
  66   0.0000       2.223301        60.4991 
  67   0.0000       2.223301        60.4991 
  68   0.0000       3.599631        97.9509 
  69   0.0000       4.905820       133.4942 
  70   0.0000       4.905820       133.4942 
  71   0.0000       4.905820       133.4942 
  72   0.0000       4.905820       133.4942 
  73   0.0000       4.905820       133.4942 
  74   0.0000       4.905820       133.4942 
  75   0.0000       4.905820       133.4942 
  76   0.0000       5.527609       150.4139 
  77   0.0000       5.527609       150.4139 
  78   0.0000       5.527609       150.4139 
  79   0.0000       6.379339       173.5906 
  80   0.0000       6.379339       173.5906 
  81   0.0000       6.379339       173.5906 
  82   0.0000       6.379339       173.5906 
  83   0.0000       6.379339       173.5906 
  84   0.0000       7.381403       200.8582 
  85   0.0000       7.381403       200.8582 
  86   0.0000       7.381403       200.8582 
  87   0.0000       7.381403       200.8582 
  88   0.0000       7.381403       200.8582 
  89   0.0000       7.381403       200.8582 
  90   0.0000       7.381403       200.8582 
  91   0.0000       7.381403       200.8582 
  92   0.0000       7.381403       200.8582 
  93   0.0000       8.964226       243.9290 
  94   0.0000       8.964226       243.9290 
  95   0.0000       8.964226       243.9290 
  96   0.0000       8.964226       243.9290 
  97   0.0000       8.964226       243.9290 
  98   0.0000       8.964226       243.9290 
  99   0.0000       8.964226       243.9290 
 100   0.0000       8.964226       243.9290 
 101   0.0000       8.964226       243.9290 
 102   0.0000       8.964226       243.9290 
 103   0.0000       8.964226       243.9290 

                    ********************************
                    * MULLIKEN POPULATION ANALYSIS *
                    ********************************

--------------------------------------------
MULLIKEN ATOMIC CHARGES AND SPIN POPULATIONS
--------------------------------------------
   0 Sb:   -0.000000    3.000000
Sum of atomic charges         :   -0.0000000
Sum of atomic spin populations:    3.0000000

-----------------------------------------------------
MULLIKEN REDUCED ORBITAL CHARGES AND SPIN POPULATIONS
-----------------------------------------------------
CHARGE
  0 Sbs       :    10.000000  s :    10.000000
      pz      :     7.000000  p :    21.000000
      px      :     7.000000
      py      :     7.000000
      dz2     :     4.000000  d :    20.000000
      dxz     :     4.000000
      dyz     :     4.000000
      dx2y2   :     4.000000
      dxy     :     4.000000
      f0      :     0.000000  f :     0.000000
      f+1     :     0.000000
      f-1     :     0.000000
      f+2     :     0.000000
      f-2     :     0.000000
      f+3     :     0.000000
      f-3     :     0.000000
      g0      :     0.000000  g :     0.000000
      g+1     :     0.000000
      g-1     :     0.000000
      g+2     :     0.000000
      g-2     :     0.000000
      g+3     :     0.000000
      g-3     :     0.000000
      g+4     :     0.000000
      g-4     :     0.000000
      h0      :     0.000000  h :     0.000000
      h+1     :     0.000000
      h-1     :     0.000000
      h+2     :     0.000000
      h-2     :     0.000000
      h+3     :     0.000000
      h-3     :     0.000000
      h+4     :     0.000000
      h-4     :     0.000000
      h+5     :     0.000000
      h-5     :     0.000000

SPIN
  0 Sbs       :    -0.000000  s :    -0.000000
      pz      :     1.000000  p :     3.000000
      px      :     1.000000
      py      :     1.000000
      dz2     :    -0.000000  d :     0.000000
      dxz     :     0.000000
      dyz     :     0.000000
      dx2y2   :     0.000000
      dxy     :     0.000000
      f0      :     0.000000  f :     0.000000
      f+1     :     0.000000
      f-1     :     0.000000
      f+2     :     0.000000
      f-2     :     0.000000
      f+3     :     0.000000
      f-3     :     0.000000
      g0      :     0.000000  g :     0.000000
      g+1     :     0.000000
      g-1     :     0.000000
      g+2     :     0.000000
      g-2     :     0.000000
      g+3     :     0.000000
      g-3     :     0.000000
      g+4     :     0.000000
      g-4     :     0.000000
      h0      :     0.000000  h :     0.000000
      h+1     :     0.000000
      h-1     :     0.000000
      h+2     :     0.000000
      h-2     :     0.000000
      h+3     :     0.000000
      h-3     :     0.000000
      h+4     :     0.000000
      h-4     :     0.000000
      h+5     :     0.000000
      h-5     :     0.000000


                     *******************************
                     * LOEWDIN POPULATION ANALYSIS *
                     *******************************

-------------------------------------------
LOEWDIN ATOMIC CHARGES AND SPIN POPULATIONS
-------------------------------------------
   0 Sb:    0.000000    3.000000

----------------------------------------------------
LOEWDIN REDUCED ORBITAL CHARGES AND SPIN POPULATIONS
----------------------------------------------------
CHARGE
  0 Sbs       :    10.000000  s :    10.000000
      pz      :     7.000000  p :    21.000000
      px      :     7.000000
      py      :     7.000000
      dz2     :     4.000000  d :    20.000000
      dxz     :     4.000000
      dyz     :     4.000000
      dx2y2   :     4.000000
      dxy     :     4.000000
      f0      :     0.000000  f :     0.000000
      f+1     :     0.000000
      f-1     :     0.000000
      f+2     :     0.000000
      f-2     :     0.000000
      f+3     :     0.000000
      f-3     :     0.000000
      g0      :     0.000000  g :     0.000000
      g+1     :     0.000000
      g-1     :     0.000000
      g+2     :     0.000000
      g-2     :     0.000000
      g+3     :     0.000000
      g-3     :     0.000000
      g+4     :     0.000000
      g-4     :     0.000000
      h0      :     0.000000  h :     0.000000
      h+1     :     0.000000
      h-1     :     0.000000
      h+2     :     0.000000
      h-2     :     0.000000
      h+3     :     0.000000
      h-3     :     0.000000
      h+4     :     0.000000
      h-4     :     0.000000
      h+5     :     0.000000
      h-5     :     0.000000

SPIN
  0 Sbs       :    -0.000000  s :    -0.000000
      pz      :     1.000000  p :     3.000000
      px      :     1.000000
      py      :     1.000000
      dz2     :    -0.000000  d :     0.000000
      dxz     :     0.000000
      dyz     :     0.000000
      dx2y2   :     0.000000
      dxy     :     0.000000
      f0      :     0.000000  f :     0.000000
      f+1     :     0.000000
      f-1     :     0.000000
      f+2     :     0.000000
      f-2     :     0.000000
      f+3     :     0.000000
      f-3     :     0.000000
      g0      :     0.000000  g :     0.000000
      g+1     :     0.000000
      g-1     :     0.000000
      g+2     :     0.000000
      g-2     :     0.000000
      g+3     :     0.000000
      g-3     :     0.000000
      g+4     :     0.000000
      g-4     :     0.000000
      h0      :     0.000000  h :     0.000000
      h+1     :     0.000000
      h-1     :     0.000000
      h+2     :     0.000000
      h-2     :     0.000000
      h+3     :     0.000000
      h-3     :     0.000000
      h+4     :     0.000000
      h-4     :     0.000000
      h+5     :     0.000000
      h-5     :     0.000000


                      *****************************
                      * MAYER POPULATION ANALYSIS *
                      *****************************

  NA   - Mulliken gross atomic population
  ZA   - Total nuclear charge
  QA   - Mulliken gross atomic charge
  VA   - Mayer's total valence
  BVA  - Mayer's bonded valence
  FA   - Mayer's free valence

  ATOM       NA         ZA         QA         VA         BVA        FA
  0 Sb    51.0000    51.0000     0.0000     3.0018     0.0000     3.0018

  Mayer bond orders larger than 0.100000


-------
TIMINGS
-------

Total SCF time: 0 days 0 hours 17 min 2 sec 

Total time                  ....    1022.717 sec
Sum of individual times     ....    1002.118 sec  ( 98.0%)

Fock matrix formation       ....     999.489 sec  ( 97.7%)
  XC integration            ....       1.196 sec  (  0.1% of F)
    Basis function eval.    ....       0.046 sec  (  3.8% of XC)
    Density eval.           ....       0.168 sec  ( 14.0% of XC)
    XC-Functional eval.     ....       0.017 sec  (  1.4% of XC)
    XC-Potential eval.      ....       0.036 sec  (  3.0% of XC)
Diagonalization             ....       0.129 sec  (  0.0%)
Density matrix formation    ....       0.007 sec  (  0.0%)
Population analysis         ....       0.072 sec  (  0.0%)
Initial guess               ....       0.887 sec  (  0.1%)
Orbital Transformation      ....       0.000 sec  (  0.0%)
Orbital Orthonormalization  ....       0.000 sec  (  0.0%)
DIIS solution               ....       0.208 sec  (  0.0%)
SOSCF solution              ....       0.516 sec  (  0.1%)
Grid generation             ....       0.810 sec  (  0.1%)

Maximum memory used throughout the entire SCF-calculation: 266.2 MB

-------------------------   --------------------
FINAL SINGLE POINT ENERGY     -6592.164266015016
-------------------------   --------------------


                            ***************************************
                            *     ORCA property calculations      *
                            ***************************************

                                    ---------------------
                                    Active property flags
                                    ---------------------
   (+) Dipole Moment


------------------------------------------------------------------------------
                       ORCA ELECTRIC PROPERTIES CALCULATION
------------------------------------------------------------------------------

Dipole Moment Calculation                       ... on
Quadrupole Moment Calculation                   ... off
Polarizability Calculation                      ... off
GBWName                                         ... Sb_ano-r3_pbe.gbw
Electron density                                ... Sb_ano-r3_pbe.scfp
The origin for moment calculation is the CENTER OF MASS  = ( 0.000000,  0.000000  0.000000)

-------------
DIPOLE MOMENT
-------------
                                X             Y             Z
Electronic contribution:      0.00000      -0.00000       0.00000
Nuclear contribution   :      0.00000       0.00000       0.00000
                        -----------------------------------------
Total Dipole Moment    :      0.00000      -0.00000       0.00000
                        -----------------------------------------
Magnitude (a.u.)       :      0.00000
Magnitude (Debye)      :      0.00000



--------------------
Rotational spectrum 
--------------------
 
Rotational constants in cm-1:     0.000000     0.000000     0.000000 
Rotational constants in MHz :     0.000000     0.000000     0.000000 

 Dipole components along the rotational axes: 
x,y,z [a.u.] :     0.000000    -0.000000     0.000000 
x,y,z [Debye]:     0.000000    -0.000000     0.000000 

 

Timings for individual modules:

Sum of individual times         ...     1152.198 sec (=  19.203 min)
GTO integral calculation        ...      113.323 sec (=   1.889 min)   9.8 %
Relativistic integrals          ...       13.175 sec (=   0.220 min)   1.1 %
SCF iterations                  ...     1025.700 sec (=  17.095 min)  89.0 %
                             ****ORCA TERMINATED NORMALLY****
TOTAL RUN TIME: 0 days 0 hours 19 minutes 29 seconds 18 msec
