
                                 *****************
                                 * O   R   C   A *
                                 *****************

                                            #,                                       
                                            ###                                      
                                            ####                                     
                                            #####                                    
                                            ######                                   
                                           ########,                                 
                                     ,,################,,,,,                         
                               ,,#################################,,                 
                          ,,##########################################,,             
                       ,#########################################, ''#####,          
                    ,#############################################,,   '####,        
                  ,##################################################,,,,####,       
                ,###########''''           ''''###############################       
              ,#####''   ,,,,##########,,,,          '''####'''          '####       
            ,##' ,,,,###########################,,,                        '##       
           ' ,,###''''                  '''############,,,                           
         ,,##''                                '''############,,,,        ,,,,,,###''
      ,#''                                            '''#######################'''  
     '                                                          ''''####''''         
             ,#######,   #######,   ,#######,      ##                                
            ,#'     '#,  ##    ##  ,#'     '#,    #''#        ######   ,####,        
            ##       ##  ##   ,#'  ##            #'  '#       #        #'  '#        
            ##       ##  #######   ##           ,######,      #####,   #    #        
            '#,     ,#'  ##    ##  '#,     ,#' ,#      #,         ##   #,  ,#        
             '#######'   ##     ##  '#######'  #'      '#     #####' # '####'        



                  #######################################################
                  #                        -***-                        #
                  #          Department of theory and spectroscopy      #
                  #    Directorship and core code : Frank Neese         #
                  #        Max Planck Institute fuer Kohlenforschung    #
                  #                Kaiser Wilhelm Platz 1               #
                  #                 D-45470 Muelheim/Ruhr               #
                  #                      Germany                        #
                  #                                                     #
                  #                  All rights reserved                #
                  #                        -***-                        #
                  #######################################################


                         Program Version 5.0.1 -  RELEASE  -


 With contributions from (in alphabetic order):
   Daniel Aravena         : Magnetic Suceptibility
   Michael Atanasov       : Ab Initio Ligand Field Theory (pilot matlab implementation)
   Alexander A. Auer      : GIAO ZORA, VPT2 properties, NMR spectrum
   Ute Becker             : Parallelization
   Giovanni Bistoni       : ED, misc. LED, open-shell LED, HFLD
   Martin Brehm           : Molecular dynamics
   Dmytro Bykov           : SCF Hessian
   Vijay G. Chilkuri      : MRCI spin determinant printing, contributions to CSF-ICE
   Dipayan Datta          : RHF DLPNO-CCSD density
   Achintya Kumar Dutta   : EOM-CC, STEOM-CC
   Dmitry Ganyushin       : Spin-Orbit,Spin-Spin,Magnetic field MRCI
   Miquel Garcia          : C-PCM and meta-GGA Hessian, CC/C-PCM, Gaussian charge scheme
   Yang Guo               : DLPNO-NEVPT2, F12-NEVPT2, CIM, IAO-localization
   Andreas Hansen         : Spin unrestricted coupled pair/coupled cluster methods
   Benjamin Helmich-Paris : MC-RPA, TRAH-SCF, COSX integrals
   Lee Huntington         : MR-EOM, pCC
   Robert Izsak           : Overlap fitted RIJCOSX, COSX-SCS-MP3, EOM
   Marcus Kettner         : VPT2
   Christian Kollmar      : KDIIS, OOCD, Brueckner-CCSD(T), CCSD density, CASPT2, CASPT2-K
   Simone Kossmann        : Meta GGA functionals, TD-DFT gradient, OOMP2, MP2 Hessian
   Martin Krupicka        : Initial AUTO-CI
   Lucas Lang             : DCDCAS
   Marvin Lechner         : AUTO-CI (C++ implementation), FIC-MRCC
   Dagmar Lenk            : GEPOL surface, SMD
   Dimitrios Liakos       : Extrapolation schemes; Compound Job, initial MDCI parallelization
   Dimitrios Manganas     : Further ROCIS development; embedding schemes
   Dimitrios Pantazis     : SARC Basis sets
   Anastasios Papadopoulos: AUTO-CI, single reference methods and gradients
   Taras Petrenko         : DFT Hessian,TD-DFT gradient, ASA, ECA, R-Raman, ABS, FL, XAS/XES, NRVS
   Peter Pinski           : DLPNO-MP2, DLPNO-MP2 Gradient
   Christoph Reimann      : Effective Core Potentials
   Marius Retegan         : Local ZFS, SOC
   Christoph Riplinger    : Optimizer, TS searches, QM/MM, DLPNO-CCSD(T), (RO)-DLPNO pert. Triples
   Tobias Risthaus        : Range-separated hybrids, TD-DFT gradient, RPA, STAB
   Michael Roemelt        : Original ROCIS implementation
   Masaaki Saitow         : Open-shell DLPNO-CCSD energy and density
   Barbara Sandhoefer     : DKH picture change effects
   Avijit Sen             : IP-ROCIS
   Kantharuban Sivalingam : CASSCF convergence, NEVPT2, FIC-MRCI
   Bernardo de Souza      : ESD, SOC TD-DFT
   Georgi Stoychev        : AutoAux, RI-MP2 NMR, DLPNO-MP2 response
   Willem Van den Heuvel  : Paramagnetic NMR
   Boris Wezisla          : Elementary symmetry handling
   Frank Wennmohs         : Technical directorship


 We gratefully acknowledge several colleagues who have allowed us to
 interface, adapt or use parts of their codes:
   Stefan Grimme, W. Hujo, H. Kruse, P. Pracht,  : VdW corrections, initial TS optimization,
                  C. Bannwarth, S. Ehlert          DFT functionals, gCP, sTDA/sTD-DF
   Ed Valeev, F. Pavosevic, A. Kumar             : LibInt (2-el integral package), F12 methods
   Garnet Chan, S. Sharma, J. Yang, R. Olivares  : DMRG
   Ulf Ekstrom                                   : XCFun DFT Library
   Mihaly Kallay                                 : mrcc  (arbitrary order and MRCC methods)
   Jiri Pittner, Ondrej Demel                    : Mk-CCSD
   Frank Weinhold                                : gennbo (NPA and NBO analysis)
   Christopher J. Cramer and Donald G. Truhlar   : smd solvation model
   Lars Goerigk                                  : TD-DFT with DH, B97 family of functionals
   V. Asgeirsson, H. Jonsson                     : NEB implementation
   FAccTs GmbH                                   : IRC, NEB, NEB-TS, DLPNO-Multilevel, CI-OPT
                                                   MM, QMMM, 2- and 3-layer-ONIOM, Crystal-QMMM,
                                                   LR-CPCM, SF, NACMEs, symmetry and pop. for TD-DFT,
                                                   nearIR, NL-DFT gradient (VV10), updates on ESD,
                                                   ML-optimized integration grids
   S Lehtola, MJT Oliveira, MAL Marques          : LibXC Library
   Liviu Ungur et al                             : ANISO software


 Your calculation uses the libint2 library for the computation of 2-el integrals
 For citations please refer to: http://libint.valeyev.net

 Your ORCA version has been built with support for libXC version: 5.1.0
 For citations please refer to: https://tddft.org/programs/libxc/

 This ORCA versions uses:
   CBLAS   interface :  Fast vector & matrix operations
   LAPACKE interface :  Fast linear algebra routines
   SCALAPACK package :  Parallel linear algebra routines
   Shared memory     :  Shared parallel matrices
   BLAS/LAPACK       :  OpenBLAS 0.3.15  USE64BITINT DYNAMIC_ARCH NO_AFFINITY Haswell SINGLE_THREADED
        Core in use  :  Haswell
   Copyright (c) 2011-2014, The OpenBLAS Project


SCAN-COORDS

Reading of a custom basis requested
Basis file         : Sn_sapporo-qzp-2012-diffuse.basis
READING GTO-BASIS: TIN
Basis successfully read

================================================================================

----- Orbital basis set information -----
================================================================================
                                        WARNINGS
                       Please study these warnings very carefully!
================================================================================


INFO   : the flag for use of the SHARK integral package has been found!

================================================================================
                                       INPUT FILE
================================================================================
NAME = Sn_sapporo-qzp-2012-diffuse_pbe.inp
|  1> !uks pbe nori verytightscf soscf notrah
|  2> 
|  3> %pal
|  4>   nprocs 32
|  5> end
|  6> %coords
|  7>   charge 0
|  8>   mult 3
|  9>   units bohrs
| 10>   coords
| 11>     Sn 0.0 0.0 0.0
| 12>   end
| 13> end
| 14> %basis
| 15>   gtoname "Sn_sapporo-qzp-2012-diffuse.basis"
| 16>   delECP Sn
| 17> end
| 18> %rel
| 19>   method zora
| 20>   modelpot 1, 0, 0, 0
| 21>   c 137.035999084
| 22> endd                         ****END OF INPUT****
================================================================================

                       ****************************
                       * Single Point Calculation *
                       ****************************

---------------------------------
CARTESIAN COORDINATES (ANGSTROEM)
---------------------------------
  Sn     0.000000    0.000000    0.000000

----------------------------
CARTESIAN COORDINATES (A.U.)
----------------------------
  NO LB      ZA    FRAG     MASS         X           Y           Z
   0 Sn   50.0000    0   118.690    0.000000    0.000000    0.000000

--------------------------------
INTERNAL COORDINATES (ANGSTROEM)
--------------------------------
 Sn     0   0   0     0.000000000000     0.00000000     0.00000000

---------------------------
INTERNAL COORDINATES (A.U.)
---------------------------
 Sn     0   0   0     0.000000000000     0.00000000     0.00000000

---------------------
BASIS SET INFORMATION
---------------------
There are 1 groups of distinct atoms

 Group   1 Type Sn  : 24s18p14d6f5g2h contracted to 11s10p8d6f4g2h pattern {74322111111/7221111111/71111111/111111/2111/11}

Atom   0Sn   basis set group =>   1


           ************************************************************
           *        Program running with 32 parallel MPI-processes    *
           *              working on a common directory               *
           ************************************************************
------------------------------------------------------------------------------
                           ORCA GTO INTEGRAL CALCULATION
------------------------------------------------------------------------------
------------------------------------------------------------------------------
                   ___                                                        
                  /   \      - P O W E R E D   B Y -                         
                 /     \                                                     
                 |  |  |   _    _      __       _____    __    __             
                 |  |  |  | |  | |    /  \     |  _  \  |  |  /  |          
                  \  \/   | |  | |   /    \    | | | |  |  | /  /          
                 / \  \   | |__| |  /  /\  \   | |_| |  |  |/  /          
                |  |  |   |  __  | /  /__\  \  |    /   |      \           
                |  |  |   | |  | | |   __   |  |    \   |  |\   \          
                \     /   | |  | | |  |  |  |  | |\  \  |  | \   \       
                 \___/    |_|  |_| |__|  |__|  |_| \__\ |__|  \__/        
                                                                              
                      - O R C A' S   B I G   F R I E N D -                    
                                      &                                       
                       - I N T E G R A L  F E E D E R -                       
                                                                              
 v1 FN, 2020, v2 2021                                                         
------------------------------------------------------------------------------


Reading SHARK input file Sn_sapporo-qzp-2012-diffuse_pbe.SHARKINP.tmp ... ok
----------------------
SHARK INTEGRAL PACKAGE
----------------------

Number of atoms                             ...      1
Number of basis functions                   ...    181
Number of shells                            ...     41
Maximum angular momentum                    ...      5
Integral batch strategy                     ... SHARK/LIBINT Hybrid
RI-J (if used) integral strategy            ... SPLIT-RIJ (Revised 2003 algorithm where possible)
Printlevel                                  ...      1
Contraction scheme used                     ... SEGMENTED contraction
Coulomb Range Separation                    ... NOT USED
Exchange Range Separation                   ... NOT USED
Finite Nucleus Model                        ... NOT USED
Auxiliary Coulomb fitting basis             ... NOT available
Auxiliary J/K fitting basis                 ... NOT available
Auxiliary Correlation fitting basis         ... NOT available
Auxiliary 'external' fitting basis          ... NOT available
Integral threshold                          ...     1.000000e-12
Primitive cut-off                           ...     1.000000e-14
Primitive pair pre-selection threshold      ...     1.000000e-14

Calculating pre-screening integrals         ... done (  3.1 sec) Dimension = 41
Organizing shell pair data                  ... done (  1.1 sec)
Shell pair information
Total number of shell pairs                 ...       861
Shell pairs after pre-screening             ...       861
Total number of primitive shell pairs       ...      2492
Primitive shell pairs kept                  ...      2492
          la=0 lb=0:     66 shell pairs
          la=1 lb=0:    110 shell pairs
          la=1 lb=1:     55 shell pairs
          la=2 lb=0:     88 shell pairs
          la=2 lb=1:     80 shell pairs
          la=2 lb=2:     36 shell pairs
          la=3 lb=0:     66 shell pairs
          la=3 lb=1:     60 shell pairs
          la=3 lb=2:     48 shell pairs
          la=3 lb=3:     21 shell pairs
          la=4 lb=0:     44 shell pairs
          la=4 lb=1:     40 shell pairs
          la=4 lb=2:     32 shell pairs
          la=4 lb=3:     24 shell pairs
          la=4 lb=4:     10 shell pairs
          la=5 lb=0:     22 shell pairs
          la=5 lb=1:     20 shell pairs
          la=5 lb=2:     16 shell pairs
          la=5 lb=3:     12 shell pairs
          la=5 lb=4:      8 shell pairs
          la=5 lb=5:      3 shell pairs

Calculating one electron integrals          ... done (  4.3 sec)
Calculating Nuclear repulsion               ... done (  0.0 sec) ENN=      0.000000000000 Eh

SHARK setup successfully completed in  10.1 seconds

Maximum memory used throughout the entire GTOINT-calculation: 39.4 MB


           ************************************************************
           *        Program running with 32 parallel MPI-processes    *
           *              working on a common directory               *
           ************************************************************
------------------------------------------------------------------------------
                          ORCA RELATIVISTIC HAMILTONIAN
------------------------------------------------------------------------------

Relativistic Method            ... ZORA(MP)
Treatment of potential         ... Van Wuellen
Nucleus model                  ... Point Nucleus
Speed of light used            ... 137.03599908400000


            *************************************************
            *         ZERO ORDER REGULAR APPROXIMATION      *
            *                     ZORA(MP)                  *
            *            Programmed by FN according to      *
            *                   C. van Wuellen              *
            *       J. Chem. Phys. (1998) vol 109, 392-399  *
            *************************************************

Terms included in model potential: +V(e,N)
Basis function cutoff value   ... 1.000000e-12
Loading the fitted atomic densities  (DKH4)  ... done
Calculating the cutoffs                      ... done
Number of fit functions                      ... 29
Setting up the integration grid ... done

Maximum memory used throughout the entire REL-calculation: 6.2 MB


           ************************************************************
           *        Program running with 32 parallel MPI-processes    *
           *              working on a common directory               *
           ************************************************************
-------------------------------------------------------------------------------
                                 ORCA SCF
-------------------------------------------------------------------------------

------------
SCF SETTINGS
------------
Hamiltonian:
 Density Functional     Method          .... DFT(GTOs)
 Exchange Functional    Exchange        .... PBE
   PBE kappa parameter   XKappa         ....  0.804000
   PBE mue parameter    XMuePBE         ....  0.219520
 Correlation Functional Correlation     .... PBE
   PBE beta parameter  CBetaPBE         ....  0.066725
 LDA part of GGA corr.  LDAOpt          .... PW91-LDA
 Gradients option       PostSCFGGA      .... off
   Density functional embedding theory  .... OFF
   NL short-range parameter             ....  6.400000

Relativistic Settings:
 Scalar relativistic method             .... ZORA
 Speed of light used       Velit        ....       137.035999
Orbital energies will be scaled


General Settings:
 Integral files         IntName         .... Sn_sapporo-qzp-2012-diffuse_pbe
 Hartree-Fock type      HFTyp           .... UHF
 Total Charge           Charge          ....    0
 Multiplicity           Mult            ....    3
 Number of Electrons    NEL             ....   50
 Basis Dimension        Dim             ....  181
 Nuclear Repulsion      ENuc            ....      0.0000000000 Eh

Convergence Acceleration:
 DIIS                   CNVDIIS         .... on
   Start iteration      DIISMaxIt       ....    12
   Startup error        DIISStart       ....  0.200000
   # of expansion vecs  DIISMaxEq       ....     5
   Bias factor          DIISBfac        ....   1.050
   Max. coefficient     DIISMaxC        ....  10.000
 Trust-Rad. Augm. Hess. CNVTRAH         .... off
 SOSCF                  CNVSOSCF        .... on
   Start iteration      SOSCFMaxIt      ....   150
   Startup grad/error   SOSCFStart      ....  0.003300
 Level Shifting         CNVShift        .... on
   Level shift para.    LevelShift      ....    0.2500
   Turn off err/grad.   ShiftErr        ....    0.0010
 Zerner damping         CNVZerner       .... off
 Static damping         CNVDamp         .... on
   Fraction old density DampFac         ....    0.7000
   Max. Damping (<1)    DampMax         ....    0.9800
   Min. Damping (>=0)   DampMin         ....    0.0000
   Turn off err/grad.   DampErr         ....    0.1000
 Fernandez-Rico         CNVRico         .... off

SCF Procedure:
 Maximum # iterations   MaxIter         ....   125
 SCF integral mode      SCFMode         .... Direct
   Integral package                     .... SHARK and LIBINT hybrid scheme
 Reset frequency        DirectResetFreq ....    20
 Integral Threshold     Thresh          ....  1.000e-12 Eh
 Primitive CutOff       TCut            ....  1.000e-14 Eh

Convergence Tolerance:
 Convergence Check Mode ConvCheckMode   .... Total+1el-Energy
 Convergence forced     ConvForced      .... 0
 Energy Change          TolE            ....  1.000e-09 Eh
 1-El. energy change                    ....  1.000e-06 Eh
 Orbital Gradient       TolG            ....  2.000e-06
 Orbital Rotation angle TolX            ....  2.000e-06
 DIIS Error             TolErr          ....  1.000e-08


Diagonalization of the overlap matrix:
Smallest eigenvalue                        ... 8.710e-04
Time for diagonalization                   ...    0.042 sec
Threshold for overlap eigenvalues          ... 1.000e-08
Number of eigenvalues below threshold      ... 0
Time for construction of square roots      ...    0.109 sec
Total time needed                          ...    0.153 sec

Time for model grid setup =    0.072 sec

------------------------------
INITIAL GUESS: MODEL POTENTIAL
------------------------------
Loading ZORA relativistic densities                ... done
Calculating cut-offs                               ... done
Initializing the effective Hamiltonian             ... done
Setting up the integral package (SHARK)            ... done
Starting the Coulomb interaction                   ... done (   2.8 sec)
Reading the grid                                   ... done
Mapping shells                                     ... done
Starting the XC term evaluation                    ... done (   0.1 sec)
  promolecular density results
     # of electrons  =     50.000300465
     EX              =   -169.581123317
     EC              =     -2.638666589
     EX+EC           =   -172.219789906
Transforming the Hamiltonian                       ... done (   0.1 sec)
Diagonalizing the Hamiltonian                      ... done (   0.0 sec)
Back transforming the eigenvectors                 ... done (   0.0 sec)
Now organizing SCF variables                       ... done
                      ------------------
                      INITIAL GUESS DONE (   3.6 sec)
                      ------------------
-------------------
DFT GRID GENERATION
-------------------

General Integration Accuracy     IntAcc      ... 4.388
Radial Grid Type                 RadialGrid  ... OptM3 with GC (2021)
Angular Grid (max. ang.)         AngularGrid ... 4 (Lebedev-302)
Angular grid pruning method      GridPruning ... 4 (adaptive)
Weight generation scheme         WeightScheme... Becke
Basis function cutoff            BFCut       ... 1.0000e-12
Integration weight cutoff        WCut        ... 1.0000e-14
Angular grids for H and He will be reduced by one unit
Partially contracted basis set               ... off
Rotationally invariant grid construction     ... off

Total number of grid points                  ...    15338
Total number of batches                      ...      240
Average number of points per batch           ...       63
Average number of grid points per atom       ...    15338
Time for grid setup =    0.782 sec

--------------
SCF ITERATIONS
--------------
ITER       Energy         Delta-E        Max-DP      RMS-DP      [F,P]     Damp
               ***  Starting incremental Fock matrix formation  ***
  0  -6255.4472611461   0.000000000000 0.09256424  0.00107860  0.5148379 0.7000
  1  -6255.4808779868  -0.033616840719 0.05337379  0.00064543  0.3448030 0.7000
  2  -6255.4989731065  -0.018095119616 0.03080736  0.00038592  0.2323607 0.7000
                               ***Turning on DIIS***
  3  -6255.5107089913  -0.011735884847 0.01854312  0.00024063  0.1575582 0.7000
  4  -6255.5187267683  -0.008017777028 0.00979821  0.00013791  0.1072651 0.7000
  5  -6255.5242654349  -0.005538666534 0.02340969  0.00032145  0.0747252 0.0000
                      *** Initiating the SOSCF procedure ***
                           *** Shutting down DIIS ***
                      *** Re-Reading the Fockian *** 
                      *** Removing any level shift *** 
ITER      Energy       Delta-E        Grad      Rot      Max-DP    RMS-DP
  6  -6255.53707155  -0.0128061169  0.000541  0.000541  0.000370  0.000006
               *** Restarting incremental Fock matrix formation ***
  7  -6255.53707188  -0.0000003271  0.000176  0.000135  0.000244  0.000004
  8  -6255.53707178   0.0000000985  0.000204  0.000078  0.000140  0.000002
  9  -6255.53707208  -0.0000003042  0.000004  0.000006  0.000005  0.000000
 10  -6255.53707208  -0.0000000001  0.000002  0.000002  0.000002  0.000000
                  ***Gradient check signals convergence***
              ***Rediagonalizing the Fockian in SOSCF/NRSCF***

               *****************************************************
               *                     SUCCESS                       *
               *           SCF CONVERGED AFTER  11 CYCLES          *
               *****************************************************


----------------
TOTAL SCF ENERGY
----------------

Total Energy       :        -6255.53707208 Eh         -170221.81764 eV

Components:
Nuclear Repulsion  :            0.00000000 Eh               0.00000 eV
Electronic Energy  :        -6255.53707208 Eh         -170221.81764 eV
One Electron Energy:        -8564.23439450 Eh         -233044.66564 eV
Two Electron Energy:         2308.69732241 Eh           62822.84799 eV

Virial components:
Potential Energy   :       -12173.58271524 Eh         -331260.02662 eV
Kinetic Energy     :         5918.04564316 Eh          161038.20897 eV
Virial Ratio       :            2.05702751


DFT components:
N(Alpha)           :       25.999999199677 electrons
N(Beta)            :       23.999999199602 electrons
N(Total)           :       49.999998399279 electrons
E(X)               :     -160.073915568602 Eh       
E(C)               :       -2.650026380314 Eh       
E(XC)              :     -162.723941948915 Eh       
DFET-embed. en.    :        0.000000000000 Eh       

---------------
SCF CONVERGENCE
---------------

  Last Energy change         ...   -2.6375e-11  Tolerance :   1.0000e-09
  Last MAX-Density change    ...    7.5594e-08  Tolerance :   1.0000e-08
  Last RMS-Density change    ...    1.0842e-09  Tolerance :   1.0000e-09
  Last Orbital Gradient      ...    2.8875e-08  Tolerance :   2.0000e-06
  Last Orbital Rotation      ...    3.5349e-07  Tolerance :   2.0000e-06

             **** THE GBW FILE WAS UPDATED (Sn_sapporo-qzp-2012-diffuse_pbe.gbw) ****
             **** DENSITY Sn_sapporo-qzp-2012-diffuse_pbe.scfp WAS UPDATED ****
             **** ENERGY FILE WAS UPDATED (Sn_sapporo-qzp-2012-diffuse_pbe.en.tmp) ****
----------------------
UHF SPIN CONTAMINATION
----------------------

Warning: in a DFT calculation there is little theoretical justification to 
         calculate <S**2> as in Hartree-Fock theory. We will do it anyways
         but you should keep in mind that the values have only limited relevance

Expectation value of <S**2>     :     2.001944
Ideal value S*(S+1) for S=1.0   :     2.000000
Deviation                       :     0.001944

             **** THE GBW FILE WAS UPDATED (Sn_sapporo-qzp-2012-diffuse_pbe.gbw) ****
             **** DENSITY Sn_sapporo-qzp-2012-diffuse_pbe.scfp WAS UPDATED ****
----------------
ORBITAL ENERGIES
----------------
                 SPIN UP ORBITALS
  NO   OCC          E(Eh)            E(eV) 
   0   1.0000   -1099.502901    -29918.9950 
   1   1.0000    -161.306363     -4389.3693 
   2   1.0000    -146.696361     -3991.8109 
   3   1.0000    -146.694868     -3991.7703 
   4   1.0000    -146.694868     -3991.7703 
   5   1.0000     -30.860932      -839.7687 
   6   1.0000     -25.865218      -703.8284 
   7   1.0000     -25.861434      -703.7254 
   8   1.0000     -25.861434      -703.7254 
   9   1.0000     -17.502345      -476.2630 
  10   1.0000     -17.501492      -476.2398 
  11   1.0000     -17.501492      -476.2398 
  12   1.0000     -17.498916      -476.1697 
  13   1.0000     -17.498916      -476.1697 
  14   1.0000      -4.874409      -132.6394 
  15   1.0000      -3.320850       -90.3649 
  16   1.0000      -3.311168       -90.1015 
  17   1.0000      -3.311168       -90.1015 
  18   1.0000      -0.959404       -26.1067 
  19   1.0000      -0.956975       -26.0406 
  20   1.0000      -0.956975       -26.0406 
  21   1.0000      -0.948605       -25.8129 
  22   1.0000      -0.948605       -25.8129 
  23   1.0000      -0.397115       -10.8061 
  24   1.0000      -0.152606        -4.1526 
  25   1.0000      -0.152606        -4.1526 
  26   0.0000      -0.149075        -4.0565 
  27   0.0000      -0.020452        -0.5565 
  28   0.0000       0.009075         0.2469 
  29   0.0000       0.009075         0.2469 
  30   0.0000       0.011129         0.3028 
  31   0.0000       0.033598         0.9142 
  32   0.0000       0.036833         1.0023 
  33   0.0000       0.036833         1.0023 
  34   0.0000       0.037372         1.0169 
  35   0.0000       0.037372         1.0169 
  36   0.0000       0.041406         1.1267 
  37   0.0000       0.118431         3.2227 
  38   0.0000       0.118431         3.2227 
  39   0.0000       0.118677         3.2294 
  40   0.0000       0.150218         4.0876 
  41   0.0000       0.150218         4.0876 
  42   0.0000       0.150733         4.1016 
  43   0.0000       0.150733         4.1016 
  44   0.0000       0.151784         4.1302 
  45   0.0000       0.151784         4.1303 
  46   0.0000       0.154442         4.2026 
  47   0.0000       0.201507         5.4833 
  48   0.0000       0.201507         5.4833 
  49   0.0000       0.203733         5.5439 
  50   0.0000       0.203733         5.5439 
  51   0.0000       0.208736         5.6800 
  52   0.0000       0.227682         6.1955 
  53   0.0000       0.274060         7.4576 
  54   0.0000       0.274060         7.4576 
  55   0.0000       0.274610         7.4725 
  56   0.0000       0.274610         7.4725 
  57   0.0000       0.274772         7.4769 
  58   0.0000       0.274772         7.4769 
  59   0.0000       0.276199         7.5157 
  60   0.0000       0.276201         7.5158 
  61   0.0000       0.278142         7.5686 
  62   0.0000       0.482601        13.1322 
  63   0.0000       0.482601        13.1322 
  64   0.0000       0.483074        13.1451 
  65   0.0000       0.483074        13.1451 
  66   0.0000       0.487508        13.2658 
  67   0.0000       0.487508        13.2658 
  68   0.0000       0.490242        13.3402 
  69   0.0000       0.551272        15.0009 
  70   0.0000       0.551272        15.0009 
  71   0.0000       0.553152        15.0520 
  72   0.0000       0.743409        20.2292 
  73   0.0000       0.743409        20.2292 
  74   0.0000       0.743580        20.2339 
  75   0.0000       0.743580        20.2339 
  76   0.0000       0.747813        20.3490 
  77   0.0000       0.931484        25.3470 
  78   0.0000       1.167898        31.7801 
  79   0.0000       1.167898        31.7801 
  80   0.0000       1.167965        31.7819 
  81   0.0000       1.169114        31.8132 
  82   0.0000       1.169114        31.8132 
  83   0.0000       1.173952        31.9449 
  84   0.0000       1.173952        31.9449 
  85   0.0000       1.244642        33.8684 
  86   0.0000       1.244642        33.8684 
  87   0.0000       1.245769        33.8991 
  88   0.0000       1.245769        33.8991 
  89   0.0000       1.246990        33.9323 
  90   0.0000       1.246990        33.9323 
  91   0.0000       1.250489        34.0275 
  92   0.0000       1.250489        34.0275 
  93   0.0000       1.251991        34.0684 
  94   0.0000       2.042592        55.5818 
  95   0.0000       2.042592        55.5818 
  96   0.0000       2.044914        55.6449 
  97   0.0000       2.046327        55.6834 
  98   0.0000       2.046327        55.6834 
  99   0.0000       2.134283        58.0768 
 100   0.0000       2.139878        58.2290 
 101   0.0000       2.139878        58.2290 
 102   0.0000       2.548555        69.3497 
 103   0.0000       2.548555        69.3497 
 104   0.0000       2.548770        69.3556 
 105   0.0000       2.549497        69.3754 
 106   0.0000       2.549497        69.3754 
 107   0.0000       2.553786        69.4920 
 108   0.0000       2.553786        69.4920 
 109   0.0000       3.972998       108.1108 
 110   0.0000       4.414987       120.1379 
 111   0.0000       4.415203       120.1438 
 112   0.0000       4.415203       120.1438 
 113   0.0000       4.415934       120.1637 
 114   0.0000       4.415934       120.1637 
 115   0.0000       4.417601       120.2090 
 116   0.0000       4.417601       120.2090 
 117   0.0000       4.420733       120.2943 
 118   0.0000       4.420733       120.2943 
 119   0.0000       4.425797       120.4321 
 120   0.0000       4.425797       120.4321 
 121   0.0000       5.194778       141.3571 
 122   0.0000       5.195717       141.3826 
 123   0.0000       5.195717       141.3826 
 124   0.0000       5.198643       141.4623 
 125   0.0000       5.198643       141.4623 
 126   0.0000       5.203854       141.6041 
 127   0.0000       5.203854       141.6041 
 128   0.0000       5.211563       141.8138 
 129   0.0000       5.211563       141.8138 
 130   0.0000       5.875082       159.8691 
 131   0.0000       5.875951       159.8928 
 132   0.0000       5.875951       159.8928 
 133   0.0000       5.882637       160.0747 
 134   0.0000       5.882637       160.0747 
 135   0.0000       6.463234       175.8736 
 136   0.0000       6.463905       175.8918 
 137   0.0000       6.463905       175.8918 
 138   0.0000       6.466775       175.9699 
 139   0.0000       6.466775       175.9699 
 140   0.0000       6.472870       176.1358 
 141   0.0000       6.472870       176.1358 
 142   0.0000      11.304977       307.6241 
 143   0.0000      11.312445       307.8273 
 144   0.0000      11.312445       307.8273 
 145   0.0000      13.155120       357.9690 
 146   0.0000      13.155668       357.9839 
 147   0.0000      13.155668       357.9839 
 148   0.0000      13.157355       358.0298 
 149   0.0000      13.157355       358.0298 
 150   0.0000      13.160278       358.1094 
 151   0.0000      13.160278       358.1094 
 152   0.0000      13.164516       358.2247 
 153   0.0000      13.164516       358.2247 
 154   0.0000      13.218346       359.6895 
 155   0.0000      13.218866       359.7036 
 156   0.0000      13.218866       359.7036 
 157   0.0000      13.220433       359.7463 
 158   0.0000      13.220433       359.7463 
 159   0.0000      13.223090       359.8186 
 160   0.0000      13.223090       359.8186 
 161   0.0000      13.226892       359.9220 
 162   0.0000      13.226892       359.9220 
 163   0.0000      13.231884       360.0579 
 164   0.0000      13.231884       360.0579 
 165   0.0000      14.017922       381.4471 
 166   0.0000      14.018829       381.4717 
 167   0.0000      14.018829       381.4717 
 168   0.0000      14.021919       381.5558 
 169   0.0000      14.021919       381.5558 
 170   0.0000      14.027598       381.7103 
 171   0.0000      14.027598       381.7103 
 172   0.0000      19.995417       544.1029 
 173   0.0000      19.997271       544.1534 
 174   0.0000      19.997271       544.1534 
 175   0.0000      20.002258       544.2891 
 176   0.0000      20.002258       544.2891 
 177   0.0000      20.054072       545.6990 
 178   0.0000      51.307918      1396.1594 
 179   0.0000      51.312288      1396.2783 
 180   0.0000      51.312288      1396.2783 

                 SPIN DOWN ORBITALS
  NO   OCC          E(Eh)            E(eV) 
   0   1.0000   -1099.501874    -29918.9670 
   1   1.0000    -161.306105     -4389.3623 
   2   1.0000    -146.696082     -3991.8033 
   3   1.0000    -146.693901     -3991.7440 
   4   1.0000    -146.693901     -3991.7440 
   5   1.0000     -30.860035      -839.7442 
   6   1.0000     -25.864837      -703.8180 
   7   1.0000     -25.860041      -703.6875 
   8   1.0000     -25.860041      -703.6875 
   9   1.0000     -17.501864      -476.2499 
  10   1.0000     -17.500783      -476.2205 
  11   1.0000     -17.500783      -476.2205 
  12   1.0000     -17.497503      -476.1313 
  13   1.0000     -17.497503      -476.1313 
  14   1.0000      -4.872223      -132.5799 
  15   1.0000      -3.320213       -90.3476 
  16   1.0000      -3.308035       -90.0162 
  17   1.0000      -3.308035       -90.0162 
  18   1.0000      -0.956226       -26.0202 
  19   1.0000      -0.952088       -25.9076 
  20   1.0000      -0.952088       -25.9076 
  21   1.0000      -0.940334       -25.5878 
  22   1.0000      -0.940334       -25.5878 
  23   1.0000      -0.355528        -9.6744 
  24   0.0000      -0.125544        -3.4162 
  25   0.0000      -0.097622        -2.6564 
  26   0.0000      -0.097622        -2.6564 
  27   0.0000       0.002029         0.0552 
  28   0.0000       0.026139         0.7113 
  29   0.0000       0.031213         0.8494 
  30   0.0000       0.031213         0.8494 
  31   0.0000       0.048424         1.3177 
  32   0.0000       0.067125         1.8266 
  33   0.0000       0.067903         1.8477 
  34   0.0000       0.067903         1.8477 
  35   0.0000       0.076538         2.0827 
  36   0.0000       0.076538         2.0827 
  37   0.0000       0.136584         3.7166 
  38   0.0000       0.150059         4.0833 
  39   0.0000       0.150059         4.0833 
  40   0.0000       0.179656         4.8887 
  41   0.0000       0.180858         4.9214 
  42   0.0000       0.180858         4.9214 
  43   0.0000       0.184176         5.0117 
  44   0.0000       0.184176         5.0117 
  45   0.0000       0.190752         5.1906 
  46   0.0000       0.190752         5.1906 
  47   0.0000       0.233693         6.3591 
  48   0.0000       0.239168         6.5081 
  49   0.0000       0.239168         6.5081 
  50   0.0000       0.252812         6.8794 
  51   0.0000       0.252812         6.8794 
  52   0.0000       0.258255         7.0275 
  53   0.0000       0.303180         8.2499 
  54   0.0000       0.303884         8.2691 
  55   0.0000       0.303884         8.2691 
  56   0.0000       0.305997         8.3266 
  57   0.0000       0.305997         8.3266 
  58   0.0000       0.309558         8.4235 
  59   0.0000       0.309558         8.4235 
  60   0.0000       0.314787         8.5658 
  61   0.0000       0.314787         8.5658 
  62   0.0000       0.521556        14.1923 
  63   0.0000       0.523838        14.2543 
  64   0.0000       0.523838        14.2543 
  65   0.0000       0.531588        14.4652 
  66   0.0000       0.531588        14.4652 
  67   0.0000       0.545717        14.8497 
  68   0.0000       0.545717        14.8497 
  69   0.0000       0.571610        15.5543 
  70   0.0000       0.592725        16.1289 
  71   0.0000       0.592725        16.1289 
  72   0.0000       0.773589        21.0504 
  73   0.0000       0.779578        21.2134 
  74   0.0000       0.779578        21.2134 
  75   0.0000       0.798609        21.7313 
  76   0.0000       0.798609        21.7313 
  77   0.0000       0.969562        26.3831 
  78   0.0000       1.185506        32.2592 
  79   0.0000       1.188244        32.3338 
  80   0.0000       1.188244        32.3338 
  81   0.0000       1.196666        32.5629 
  82   0.0000       1.196666        32.5629 
  83   0.0000       1.211161        32.9574 
  84   0.0000       1.211161        32.9574 
  85   0.0000       1.287098        35.0237 
  86   0.0000       1.288915        35.0732 
  87   0.0000       1.288915        35.0732 
  88   0.0000       1.294730        35.2314 
  89   0.0000       1.294730        35.2314 
  90   0.0000       1.304976        35.5102 
  91   0.0000       1.304976        35.5102 
  92   0.0000       1.319911        35.9166 
  93   0.0000       1.319911        35.9166 
  94   0.0000       2.065293        56.1995 
  95   0.0000       2.071159        56.3591 
  96   0.0000       2.071159        56.3591 
  97   0.0000       2.090272        56.8792 
  98   0.0000       2.090272        56.8792 
  99   0.0000       2.149027        58.4780 
 100   0.0000       2.174469        59.1703 
 101   0.0000       2.174469        59.1703 
 102   0.0000       2.563200        69.7482 
 103   0.0000       2.565541        69.8119 
 104   0.0000       2.565541        69.8119 
 105   0.0000       2.572808        70.0097 
 106   0.0000       2.572808        70.0097 
 107   0.0000       2.585334        70.3505 
 108   0.0000       2.585334        70.3505 
 109   0.0000       3.992015       108.6283 
 110   0.0000       4.435856       120.7058 
 111   0.0000       4.437332       120.7459 
 112   0.0000       4.437332       120.7459 
 113   0.0000       4.441762       120.8665 
 114   0.0000       4.441762       120.8665 
 115   0.0000       4.449138       121.0672 
 116   0.0000       4.449138       121.0672 
 117   0.0000       4.459422       121.3470 
 118   0.0000       4.459422       121.3470 
 119   0.0000       4.472540       121.7040 
 120   0.0000       4.472540       121.7040 
 121   0.0000       5.199483       141.4851 
 122   0.0000       5.200895       141.5236 
 123   0.0000       5.200895       141.5236 
 124   0.0000       5.205144       141.6392 
 125   0.0000       5.205144       141.6392 
 126   0.0000       5.212205       141.8313 
 127   0.0000       5.212205       141.8313 
 128   0.0000       5.222000       142.0978 
 129   0.0000       5.222000       142.0978 
 130   0.0000       5.883896       160.1090 
 131   0.0000       5.888471       160.2334 
 132   0.0000       5.888471       160.2334 
 133   0.0000       5.902643       160.6191 
 134   0.0000       5.902643       160.6191 
 135   0.0000       6.471444       176.0969 
 136   0.0000       6.473610       176.1559 
 137   0.0000       6.473610       176.1559 
 138   0.0000       6.480205       176.3354 
 139   0.0000       6.480205       176.3354 
 140   0.0000       6.491197       176.6345 
 141   0.0000       6.491197       176.6345 
 142   0.0000      11.308027       307.7071 
 143   0.0000      11.320872       308.0566 
 144   0.0000      11.320872       308.0566 
 145   0.0000      13.158120       358.0506 
 146   0.0000      13.159000       358.0746 
 147   0.0000      13.159000       358.0746 
 148   0.0000      13.161647       358.1466 
 149   0.0000      13.161647       358.1466 
 150   0.0000      13.166060       358.2667 
 151   0.0000      13.166060       358.2667 
 152   0.0000      13.172224       358.4344 
 153   0.0000      13.172224       358.4344 
 154   0.0000      13.219928       359.7325 
 155   0.0000      13.220594       359.7506 
 156   0.0000      13.220594       359.7506 
 157   0.0000      13.222591       359.8050 
 158   0.0000      13.222591       359.8050 
 159   0.0000      13.225918       359.8955 
 160   0.0000      13.225918       359.8955 
 161   0.0000      13.230563       360.0219 
 162   0.0000      13.230563       360.0219 
 163   0.0000      13.236512       360.1838 
 164   0.0000      13.236512       360.1838 
 165   0.0000      14.021504       381.5445 
 166   0.0000      14.023124       381.5886 
 167   0.0000      14.023124       381.5886 
 168   0.0000      14.028017       381.7218 
 169   0.0000      14.028017       381.7218 
 170   0.0000      14.036161       381.9434 
 171   0.0000      14.036161       381.9434 
 172   0.0000      19.996597       544.1351 
 173   0.0000      19.999915       544.2254 
 174   0.0000      19.999915       544.2254 
 175   0.0000      20.006812       544.4130 
 176   0.0000      20.006812       544.4130 
 177   0.0000      20.064665       545.9873 
 178   0.0000      51.308759      1396.1823 
 179   0.0000      51.315144      1396.3561 
 180   0.0000      51.315144      1396.3561 

                    ********************************
                    * MULLIKEN POPULATION ANALYSIS *
                    ********************************

--------------------------------------------
MULLIKEN ATOMIC CHARGES AND SPIN POPULATIONS
--------------------------------------------
   0 Sn:   -0.000000    2.000000
Sum of atomic charges         :   -0.0000000
Sum of atomic spin populations:    2.0000000

-----------------------------------------------------
MULLIKEN REDUCED ORBITAL CHARGES AND SPIN POPULATIONS
-----------------------------------------------------
CHARGE
  0 Sns       :     9.998984  s :     9.998984
      pz      :     6.164068  p :    19.999970
      px      :     6.988645
      py      :     6.847256
      dz2     :     4.000562  d :    20.000963
      dxz     :     4.000018
      dyz     :     4.000376
      dx2y2   :     4.000008
      dxy     :     3.999999
      f0      :     0.000009  f :     0.000030
      f+1     :     0.000007
      f-1     :     0.000005
      f+2     :     0.000004
      f-2     :     0.000004
      f+3     :     0.000000
      f-3     :     0.000000
      g0      :     0.000011  g :     0.000053
      g+1     :     0.000008
      g-1     :     0.000014
      g+2     :     0.000007
      g-2     :     0.000007
      g+3     :     0.000003
      g-3     :     0.000003
      g+4     :     0.000000
      g-4     :     0.000000
      h0      :     0.000000  h :     0.000000
      h+1     :     0.000000
      h-1     :     0.000000
      h+2     :     0.000000
      h-2     :     0.000000
      h+3     :     0.000000
      h-3     :     0.000000
      h+4     :     0.000000
      h-4     :     0.000000
      h+5     :     0.000000
      h-5     :     0.000000

SPIN
  0 Sns       :     0.000949  s :     0.000949
      pz      :     0.164075  p :     1.999987
      px      :     0.988650
      py      :     0.847261
      dz2     :    -0.000533  d :    -0.000921
      dxz     :    -0.000020
      dyz     :    -0.000357
      dx2y2   :    -0.000010
      dxy     :    -0.000001
      f0      :     0.000004  f :     0.000013
      f+1     :     0.000004
      f-1     :     0.000000
      f+2     :     0.000002
      f-2     :     0.000002
      f+3     :     0.000000
      f-3     :     0.000000
      g0      :    -0.000007  g :    -0.000028
      g+1     :    -0.000005
      g-1     :    -0.000004
      g+2     :    -0.000004
      g-2     :    -0.000004
      g+3     :    -0.000002
      g-3     :    -0.000002
      g+4     :    -0.000000
      g-4     :    -0.000000
      h0      :     0.000000  h :     0.000000
      h+1     :     0.000000
      h-1     :     0.000000
      h+2     :     0.000000
      h-2     :     0.000000
      h+3     :     0.000000
      h-3     :     0.000000
      h+4     :     0.000000
      h-4     :     0.000000
      h+5     :     0.000000
      h-5     :     0.000000


                     *******************************
                     * LOEWDIN POPULATION ANALYSIS *
                     *******************************

-------------------------------------------
LOEWDIN ATOMIC CHARGES AND SPIN POPULATIONS
-------------------------------------------
   0 Sn:    0.000000    2.000000

----------------------------------------------------
LOEWDIN REDUCED ORBITAL CHARGES AND SPIN POPULATIONS
----------------------------------------------------
CHARGE
  0 Sns       :     9.998984  s :     9.998984
      pz      :     6.164068  p :    19.999970
      px      :     6.988645
      py      :     6.847256
      dz2     :     4.000562  d :    20.000963
      dxz     :     4.000018
      dyz     :     4.000376
      dx2y2   :     4.000008
      dxy     :     3.999999
      f0      :     0.000009  f :     0.000030
      f+1     :     0.000007
      f-1     :     0.000005
      f+2     :     0.000004
      f-2     :     0.000004
      f+3     :     0.000000
      f-3     :     0.000000
      g0      :     0.000011  g :     0.000053
      g+1     :     0.000008
      g-1     :     0.000014
      g+2     :     0.000007
      g-2     :     0.000007
      g+3     :     0.000003
      g-3     :     0.000003
      g+4     :     0.000000
      g-4     :     0.000000
      h0      :     0.000000  h :     0.000000
      h+1     :     0.000000
      h-1     :     0.000000
      h+2     :     0.000000
      h-2     :     0.000000
      h+3     :     0.000000
      h-3     :     0.000000
      h+4     :     0.000000
      h-4     :     0.000000
      h+5     :     0.000000
      h-5     :     0.000000

SPIN
  0 Sns       :     0.000949  s :     0.000949
      pz      :     0.164075  p :     1.999987
      px      :     0.988650
      py      :     0.847261
      dz2     :    -0.000533  d :    -0.000921
      dxz     :    -0.000020
      dyz     :    -0.000357
      dx2y2   :    -0.000010
      dxy     :    -0.000001
      f0      :     0.000004  f :     0.000013
      f+1     :     0.000004
      f-1     :     0.000000
      f+2     :     0.000002
      f-2     :     0.000002
      f+3     :     0.000000
      f-3     :     0.000000
      g0      :    -0.000007  g :    -0.000028
      g+1     :    -0.000005
      g-1     :    -0.000004
      g+2     :    -0.000004
      g-2     :    -0.000004
      g+3     :    -0.000002
      g-3     :    -0.000002
      g+4     :    -0.000000
      g-4     :    -0.000000
      h0      :     0.000000  h :     0.000000
      h+1     :     0.000000
      h-1     :     0.000000
      h+2     :     0.000000
      h-2     :     0.000000
      h+3     :     0.000000
      h-3     :     0.000000
      h+4     :     0.000000
      h-4     :     0.000000
      h+5     :     0.000000
      h-5     :     0.000000


                      *****************************
                      * MAYER POPULATION ANALYSIS *
                      *****************************

  NA   - Mulliken gross atomic population
  ZA   - Total nuclear charge
  QA   - Mulliken gross atomic charge
  VA   - Mayer's total valence
  BVA  - Mayer's bonded valence
  FA   - Mayer's free valence

  ATOM       NA         ZA         QA         VA         BVA        FA
  0 Sn    50.0000    50.0000    -0.0000     2.0039     0.0000     2.0039

  Mayer bond orders larger than 0.100000


-------
TIMINGS
-------

Total SCF time: 0 days 0 hours 2 min 58 sec 

Total time                  ....     178.492 sec
Sum of individual times     ....     170.996 sec  ( 95.8%)

Fock matrix formation       ....     164.774 sec  ( 92.3%)
  XC integration            ....     110.424 sec  ( 67.0% of F)
    Basis function eval.    ....       0.028 sec  (  0.0% of XC)
    Density eval.           ....       0.125 sec  (  0.1% of XC)
    XC-Functional eval.     ....       0.060 sec  (  0.1% of XC)
    XC-Potential eval.      ....       0.074 sec  (  0.1% of XC)
Diagonalization             ....       0.679 sec  (  0.4%)
Density matrix formation    ....       0.012 sec  (  0.0%)
Population analysis         ....       0.190 sec  (  0.1%)
Initial guess               ....       3.516 sec  (  2.0%)
Orbital Transformation      ....       0.000 sec  (  0.0%)
Orbital Orthonormalization  ....       0.000 sec  (  0.0%)
DIIS solution               ....       0.740 sec  (  0.4%)
SOSCF solution              ....       0.231 sec  (  0.1%)
Grid generation             ....       0.854 sec  (  0.5%)

Maximum memory used throughout the entire SCF-calculation: 233.8 MB

-------------------------   --------------------
FINAL SINGLE POINT ENERGY     -6255.537072084675
-------------------------   --------------------


                            ***************************************
                            *     ORCA property calculations      *
                            ***************************************

                                    ---------------------
                                    Active property flags
                                    ---------------------
   (+) Dipole Moment


------------------------------------------------------------------------------
                       ORCA ELECTRIC PROPERTIES CALCULATION
------------------------------------------------------------------------------

Dipole Moment Calculation                       ... on
Quadrupole Moment Calculation                   ... off
Polarizability Calculation                      ... off
GBWName                                         ... Sn_sapporo-qzp-2012-diffuse_pbe.gbw
Electron density                                ... Sn_sapporo-qzp-2012-diffuse_pbe.scfp
The origin for moment calculation is the CENTER OF MASS  = ( 0.000000,  0.000000  0.000000)

-------------
DIPOLE MOMENT
-------------
                                X             Y             Z
Electronic contribution:      0.00000      -0.00000      -0.00000
Nuclear contribution   :      0.00000       0.00000       0.00000
                        -----------------------------------------
Total Dipole Moment    :      0.00000      -0.00000      -0.00000
                        -----------------------------------------
Magnitude (a.u.)       :      0.00000
Magnitude (Debye)      :      0.00000



--------------------
Rotational spectrum 
--------------------
 
Rotational constants in cm-1:     0.000000     0.000000     0.000000 
Rotational constants in MHz :     0.000000     0.000000     0.000000 

 Dipole components along the rotational axes: 
x,y,z [a.u.] :     0.000000    -0.000000    -0.000000 
x,y,z [Debye]:     0.000000    -0.000000    -0.000000 

 

Timings for individual modules:

Sum of individual times         ...      256.396 sec (=   4.273 min)
GTO integral calculation        ...       60.003 sec (=   1.000 min)  23.4 %
Relativistic integrals          ...       14.681 sec (=   0.245 min)   5.7 %
SCF iterations                  ...      181.711 sec (=   3.029 min)  70.9 %
                             ****ORCA TERMINATED NORMALLY****
TOTAL RUN TIME: 0 days 0 hours 4 minutes 29 seconds 751 msec
