
                                 *****************
                                 * O   R   C   A *
                                 *****************

                                            #,                                       
                                            ###                                      
                                            ####                                     
                                            #####                                    
                                            ######                                   
                                           ########,                                 
                                     ,,################,,,,,                         
                               ,,#################################,,                 
                          ,,##########################################,,             
                       ,#########################################, ''#####,          
                    ,#############################################,,   '####,        
                  ,##################################################,,,,####,       
                ,###########''''           ''''###############################       
              ,#####''   ,,,,##########,,,,          '''####'''          '####       
            ,##' ,,,,###########################,,,                        '##       
           ' ,,###''''                  '''############,,,                           
         ,,##''                                '''############,,,,        ,,,,,,###''
      ,#''                                            '''#######################'''  
     '                                                          ''''####''''         
             ,#######,   #######,   ,#######,      ##                                
            ,#'     '#,  ##    ##  ,#'     '#,    #''#        ######   ,####,        
            ##       ##  ##   ,#'  ##            #'  '#       #        #'  '#        
            ##       ##  #######   ##           ,######,      #####,   #    #        
            '#,     ,#'  ##    ##  '#,     ,#' ,#      #,         ##   #,  ,#        
             '#######'   ##     ##  '#######'  #'      '#     #####' # '####'        



                  #######################################################
                  #                        -***-                        #
                  #          Department of theory and spectroscopy      #
                  #    Directorship and core code : Frank Neese         #
                  #        Max Planck Institute fuer Kohlenforschung    #
                  #                Kaiser Wilhelm Platz 1               #
                  #                 D-45470 Muelheim/Ruhr               #
                  #                      Germany                        #
                  #                                                     #
                  #                  All rights reserved                #
                  #                        -***-                        #
                  #######################################################


                         Program Version 5.0.1 -  RELEASE  -


 With contributions from (in alphabetic order):
   Daniel Aravena         : Magnetic Suceptibility
   Michael Atanasov       : Ab Initio Ligand Field Theory (pilot matlab implementation)
   Alexander A. Auer      : GIAO ZORA, VPT2 properties, NMR spectrum
   Ute Becker             : Parallelization
   Giovanni Bistoni       : ED, misc. LED, open-shell LED, HFLD
   Martin Brehm           : Molecular dynamics
   Dmytro Bykov           : SCF Hessian
   Vijay G. Chilkuri      : MRCI spin determinant printing, contributions to CSF-ICE
   Dipayan Datta          : RHF DLPNO-CCSD density
   Achintya Kumar Dutta   : EOM-CC, STEOM-CC
   Dmitry Ganyushin       : Spin-Orbit,Spin-Spin,Magnetic field MRCI
   Miquel Garcia          : C-PCM and meta-GGA Hessian, CC/C-PCM, Gaussian charge scheme
   Yang Guo               : DLPNO-NEVPT2, F12-NEVPT2, CIM, IAO-localization
   Andreas Hansen         : Spin unrestricted coupled pair/coupled cluster methods
   Benjamin Helmich-Paris : MC-RPA, TRAH-SCF, COSX integrals
   Lee Huntington         : MR-EOM, pCC
   Robert Izsak           : Overlap fitted RIJCOSX, COSX-SCS-MP3, EOM
   Marcus Kettner         : VPT2
   Christian Kollmar      : KDIIS, OOCD, Brueckner-CCSD(T), CCSD density, CASPT2, CASPT2-K
   Simone Kossmann        : Meta GGA functionals, TD-DFT gradient, OOMP2, MP2 Hessian
   Martin Krupicka        : Initial AUTO-CI
   Lucas Lang             : DCDCAS
   Marvin Lechner         : AUTO-CI (C++ implementation), FIC-MRCC
   Dagmar Lenk            : GEPOL surface, SMD
   Dimitrios Liakos       : Extrapolation schemes; Compound Job, initial MDCI parallelization
   Dimitrios Manganas     : Further ROCIS development; embedding schemes
   Dimitrios Pantazis     : SARC Basis sets
   Anastasios Papadopoulos: AUTO-CI, single reference methods and gradients
   Taras Petrenko         : DFT Hessian,TD-DFT gradient, ASA, ECA, R-Raman, ABS, FL, XAS/XES, NRVS
   Peter Pinski           : DLPNO-MP2, DLPNO-MP2 Gradient
   Christoph Reimann      : Effective Core Potentials
   Marius Retegan         : Local ZFS, SOC
   Christoph Riplinger    : Optimizer, TS searches, QM/MM, DLPNO-CCSD(T), (RO)-DLPNO pert. Triples
   Tobias Risthaus        : Range-separated hybrids, TD-DFT gradient, RPA, STAB
   Michael Roemelt        : Original ROCIS implementation
   Masaaki Saitow         : Open-shell DLPNO-CCSD energy and density
   Barbara Sandhoefer     : DKH picture change effects
   Avijit Sen             : IP-ROCIS
   Kantharuban Sivalingam : CASSCF convergence, NEVPT2, FIC-MRCI
   Bernardo de Souza      : ESD, SOC TD-DFT
   Georgi Stoychev        : AutoAux, RI-MP2 NMR, DLPNO-MP2 response
   Willem Van den Heuvel  : Paramagnetic NMR
   Boris Wezisla          : Elementary symmetry handling
   Frank Wennmohs         : Technical directorship


 We gratefully acknowledge several colleagues who have allowed us to
 interface, adapt or use parts of their codes:
   Stefan Grimme, W. Hujo, H. Kruse, P. Pracht,  : VdW corrections, initial TS optimization,
                  C. Bannwarth, S. Ehlert          DFT functionals, gCP, sTDA/sTD-DF
   Ed Valeev, F. Pavosevic, A. Kumar             : LibInt (2-el integral package), F12 methods
   Garnet Chan, S. Sharma, J. Yang, R. Olivares  : DMRG
   Ulf Ekstrom                                   : XCFun DFT Library
   Mihaly Kallay                                 : mrcc  (arbitrary order and MRCC methods)
   Jiri Pittner, Ondrej Demel                    : Mk-CCSD
   Frank Weinhold                                : gennbo (NPA and NBO analysis)
   Christopher J. Cramer and Donald G. Truhlar   : smd solvation model
   Lars Goerigk                                  : TD-DFT with DH, B97 family of functionals
   V. Asgeirsson, H. Jonsson                     : NEB implementation
   FAccTs GmbH                                   : IRC, NEB, NEB-TS, DLPNO-Multilevel, CI-OPT
                                                   MM, QMMM, 2- and 3-layer-ONIOM, Crystal-QMMM,
                                                   LR-CPCM, SF, NACMEs, symmetry and pop. for TD-DFT,
                                                   nearIR, NL-DFT gradient (VV10), updates on ESD,
                                                   ML-optimized integration grids
   S Lehtola, MJT Oliveira, MAL Marques          : LibXC Library
   Liviu Ungur et al                             : ANISO software


 Your calculation uses the libint2 library for the computation of 2-el integrals
 For citations please refer to: http://libint.valeyev.net

 Your ORCA version has been built with support for libXC version: 5.1.0
 For citations please refer to: https://tddft.org/programs/libxc/

 This ORCA versions uses:
   CBLAS   interface :  Fast vector & matrix operations
   LAPACKE interface :  Fast linear algebra routines
   SCALAPACK package :  Parallel linear algebra routines
   Shared memory     :  Shared parallel matrices
   BLAS/LAPACK       :  OpenBLAS 0.3.15  USE64BITINT DYNAMIC_ARCH NO_AFFINITY Haswell SINGLE_THREADED
        Core in use  :  Haswell
   Copyright (c) 2011-2014, The OpenBLAS Project


SCAN-COORDS

Reading of a custom basis requested
Basis file         : Sr_sapporo-qzp-2012-diffuse.basis
READING GTO-BASIS: STRONTIUM
Basis successfully read

================================================================================

----- Orbital basis set information -----
================================================================================
                                        WARNINGS
                       Please study these warnings very carefully!
================================================================================


INFO   : the flag for use of the SHARK integral package has been found!

================================================================================
                                       INPUT FILE
================================================================================
NAME = Sr_sapporo-qzp-2012-diffuse_pbe.inp
|  1> !uks pbe nori verytightscf soscf notrah
|  2> 
|  3> %pal
|  4>   nprocs 32
|  5> end
|  6> %coords
|  7>   charge 0
|  8>   mult 1
|  9>   units bohrs
| 10>   coords
| 11>     Sr 0.0 0.0 0.0
| 12>   end
| 13> end
| 14> %basis
| 15>   gtoname "Sr_sapporo-qzp-2012-diffuse.basis"
| 16>   delECP Sr
| 17> end
| 18> %rel
| 19>   method zora
| 20>   modelpot 1, 0, 0, 0
| 21>   c 137.035999084
| 22> endd                         ****END OF INPUT****
================================================================================

                       ****************************
                       * Single Point Calculation *
                       ****************************

---------------------------------
CARTESIAN COORDINATES (ANGSTROEM)
---------------------------------
  Sr     0.000000    0.000000    0.000000

----------------------------
CARTESIAN COORDINATES (A.U.)
----------------------------
  NO LB      ZA    FRAG     MASS         X           Y           Z
   0 Sr   38.0000    0    87.620    0.000000    0.000000    0.000000

--------------------------------
INTERNAL COORDINATES (ANGSTROEM)
--------------------------------
 Sr     0   0   0     0.000000000000     0.00000000     0.00000000

---------------------------
INTERNAL COORDINATES (A.U.)
---------------------------
 Sr     0   0   0     0.000000000000     0.00000000     0.00000000

---------------------
BASIS SET INFORMATION
---------------------
There are 1 groups of distinct atoms

 Group   1 Type Sr  : 22s17p13d4f2g contracted to 11s9p6d3f2g pattern {74221111111/731111111/721111/211/11}

Atom   0Sr   basis set group =>   1


           ************************************************************
           *        Program running with 32 parallel MPI-processes    *
           *              working on a common directory               *
           ************************************************************
------------------------------------------------------------------------------
                           ORCA GTO INTEGRAL CALCULATION
------------------------------------------------------------------------------
------------------------------------------------------------------------------
                   ___                                                        
                  /   \      - P O W E R E D   B Y -                         
                 /     \                                                     
                 |  |  |   _    _      __       _____    __    __             
                 |  |  |  | |  | |    /  \     |  _  \  |  |  /  |          
                  \  \/   | |  | |   /    \    | | | |  |  | /  /          
                 / \  \   | |__| |  /  /\  \   | |_| |  |  |/  /          
                |  |  |   |  __  | /  /__\  \  |    /   |      \           
                |  |  |   | |  | | |   __   |  |    \   |  |\   \          
                \     /   | |  | | |  |  |  |  | |\  \  |  | \   \       
                 \___/    |_|  |_| |__|  |__|  |_| \__\ |__|  \__/        
                                                                              
                      - O R C A' S   B I G   F R I E N D -                    
                                      &                                       
                       - I N T E G R A L  F E E D E R -                       
                                                                              
 v1 FN, 2020, v2 2021                                                         
------------------------------------------------------------------------------


Reading SHARK input file Sr_sapporo-qzp-2012-diffuse_pbe.SHARKINP.tmp ... ok
----------------------
SHARK INTEGRAL PACKAGE
----------------------

Number of atoms                             ...      1
Number of basis functions                   ...    107
Number of shells                            ...     31
Maximum angular momentum                    ...      4
Integral batch strategy                     ... SHARK/LIBINT Hybrid
RI-J (if used) integral strategy            ... SPLIT-RIJ (Revised 2003 algorithm where possible)
Printlevel                                  ...      1
Contraction scheme used                     ... SEGMENTED contraction
Coulomb Range Separation                    ... NOT USED
Exchange Range Separation                   ... NOT USED
Finite Nucleus Model                        ... NOT USED
Auxiliary Coulomb fitting basis             ... NOT available
Auxiliary J/K fitting basis                 ... NOT available
Auxiliary Correlation fitting basis         ... NOT available
Auxiliary 'external' fitting basis          ... NOT available
Integral threshold                          ...     1.000000e-12
Primitive cut-off                           ...     1.000000e-14
Primitive pair pre-selection threshold      ...     1.000000e-14

Calculating pre-screening integrals         ... done (  3.9 sec) Dimension = 31
Organizing shell pair data                  ... done (  1.0 sec)
Shell pair information
Total number of shell pairs                 ...       496
Shell pairs after pre-screening             ...       496
Total number of primitive shell pairs       ...      1787
Primitive shell pairs kept                  ...      1787
          la=0 lb=0:     66 shell pairs
          la=1 lb=0:     99 shell pairs
          la=1 lb=1:     45 shell pairs
          la=2 lb=0:     66 shell pairs
          la=2 lb=1:     54 shell pairs
          la=2 lb=2:     21 shell pairs
          la=3 lb=0:     33 shell pairs
          la=3 lb=1:     27 shell pairs
          la=3 lb=2:     18 shell pairs
          la=3 lb=3:      6 shell pairs
          la=4 lb=0:     22 shell pairs
          la=4 lb=1:     18 shell pairs
          la=4 lb=2:     12 shell pairs
          la=4 lb=3:      6 shell pairs
          la=4 lb=4:      3 shell pairs

Calculating one electron integrals          ... done (  0.2 sec)
Calculating Nuclear repulsion               ... done (  0.0 sec) ENN=      0.000000000000 Eh

SHARK setup successfully completed in   7.6 seconds

Maximum memory used throughout the entire GTOINT-calculation: 23.7 MB


           ************************************************************
           *        Program running with 32 parallel MPI-processes    *
           *              working on a common directory               *
           ************************************************************
------------------------------------------------------------------------------
                          ORCA RELATIVISTIC HAMILTONIAN
------------------------------------------------------------------------------

Relativistic Method            ... ZORA(MP)
Treatment of potential         ... Van Wuellen
Nucleus model                  ... Point Nucleus
Speed of light used            ... 137.03599908400000


            *************************************************
            *         ZERO ORDER REGULAR APPROXIMATION      *
            *                     ZORA(MP)                  *
            *            Programmed by FN according to      *
            *                   C. van Wuellen              *
            *       J. Chem. Phys. (1998) vol 109, 392-399  *
            *************************************************

Terms included in model potential: +V(e,N)
Basis function cutoff value   ... 1.000000e-12
Loading the fitted atomic densities  (DKH4)  ... done
Calculating the cutoffs                      ... done
Number of fit functions                      ... 28
Setting up the integration grid ... done

Maximum memory used throughout the entire REL-calculation: 10.3 MB


           ************************************************************
           *        Program running with 32 parallel MPI-processes    *
           *              working on a common directory               *
           ************************************************************
-------------------------------------------------------------------------------
                                 ORCA SCF
-------------------------------------------------------------------------------

------------
SCF SETTINGS
------------
Hamiltonian:
 Density Functional     Method          .... DFT(GTOs)
 Exchange Functional    Exchange        .... PBE
   PBE kappa parameter   XKappa         ....  0.804000
   PBE mue parameter    XMuePBE         ....  0.219520
 Correlation Functional Correlation     .... PBE
   PBE beta parameter  CBetaPBE         ....  0.066725
 LDA part of GGA corr.  LDAOpt          .... PW91-LDA
 Gradients option       PostSCFGGA      .... off
   Density functional embedding theory  .... OFF
   NL short-range parameter             ....  6.400000

Relativistic Settings:
 Scalar relativistic method             .... ZORA
 Speed of light used       Velit        ....       137.035999
Orbital energies will be scaled


General Settings:
 Integral files         IntName         .... Sr_sapporo-qzp-2012-diffuse_pbe
 Hartree-Fock type      HFTyp           .... UHF
 Total Charge           Charge          ....    0
 Multiplicity           Mult            ....    1
 Number of Electrons    NEL             ....   38
 Basis Dimension        Dim             ....  107
 Nuclear Repulsion      ENuc            ....      0.0000000000 Eh

Convergence Acceleration:
 DIIS                   CNVDIIS         .... on
   Start iteration      DIISMaxIt       ....    12
   Startup error        DIISStart       ....  0.200000
   # of expansion vecs  DIISMaxEq       ....     5
   Bias factor          DIISBfac        ....   1.050
   Max. coefficient     DIISMaxC        ....  10.000
 Trust-Rad. Augm. Hess. CNVTRAH         .... off
 SOSCF                  CNVSOSCF        .... on
   Start iteration      SOSCFMaxIt      ....   150
   Startup grad/error   SOSCFStart      ....  0.003300
 Level Shifting         CNVShift        .... on
   Level shift para.    LevelShift      ....    0.2500
   Turn off err/grad.   ShiftErr        ....    0.0010
 Zerner damping         CNVZerner       .... off
 Static damping         CNVDamp         .... on
   Fraction old density DampFac         ....    0.7000
   Max. Damping (<1)    DampMax         ....    0.9800
   Min. Damping (>=0)   DampMin         ....    0.0000
   Turn off err/grad.   DampErr         ....    0.1000
 Fernandez-Rico         CNVRico         .... off

SCF Procedure:
 Maximum # iterations   MaxIter         ....   125
 SCF integral mode      SCFMode         .... Direct
   Integral package                     .... SHARK and LIBINT hybrid scheme
 Reset frequency        DirectResetFreq ....    20
 Integral Threshold     Thresh          ....  1.000e-12 Eh
 Primitive CutOff       TCut            ....  1.000e-14 Eh

Convergence Tolerance:
 Convergence Check Mode ConvCheckMode   .... Total+1el-Energy
 Convergence forced     ConvForced      .... 0
 Energy Change          TolE            ....  1.000e-09 Eh
 1-El. energy change                    ....  1.000e-06 Eh
 Orbital Gradient       TolG            ....  2.000e-06
 Orbital Rotation angle TolX            ....  2.000e-06
 DIIS Error             TolErr          ....  1.000e-08


Diagonalization of the overlap matrix:
Smallest eigenvalue                        ... 2.838e-04
Time for diagonalization                   ...    0.003 sec
Threshold for overlap eigenvalues          ... 1.000e-08
Number of eigenvalues below threshold      ... 0
Time for construction of square roots      ...    0.019 sec
Total time needed                          ...    0.024 sec

Time for model grid setup =    0.183 sec

------------------------------
INITIAL GUESS: MODEL POTENTIAL
------------------------------
Loading ZORA relativistic densities                ... done
Calculating cut-offs                               ... done
Initializing the effective Hamiltonian             ... done
Setting up the integral package (SHARK)            ... done
Starting the Coulomb interaction                   ... done (   2.9 sec)
Reading the grid                                   ... done
Mapping shells                                     ... done
Starting the XC term evaluation                    ... done (   0.6 sec)
  promolecular density results
     # of electrons  =     37.999999965
     EX              =   -104.940287177
     EC              =     -1.843632703
     EX+EC           =   -106.783919880
Transforming the Hamiltonian                       ... done (   0.2 sec)
Diagonalizing the Hamiltonian                      ... done (   0.1 sec)
Back transforming the eigenvectors                 ... done (   0.0 sec)
Now organizing SCF variables                       ... done
                      ------------------
                      INITIAL GUESS DONE (   4.4 sec)
                      ------------------
-------------------
DFT GRID GENERATION
-------------------

General Integration Accuracy     IntAcc      ... 4.388
Radial Grid Type                 RadialGrid  ... OptM3 with GC (2021)
Angular Grid (max. ang.)         AngularGrid ... 4 (Lebedev-302)
Angular grid pruning method      GridPruning ... 4 (adaptive)
Weight generation scheme         WeightScheme... Becke
Basis function cutoff            BFCut       ... 1.0000e-12
Integration weight cutoff        WCut        ... 1.0000e-14
Angular grids for H and He will be reduced by one unit
Partially contracted basis set               ... off
Rotationally invariant grid construction     ... off

Total number of grid points                  ...    27544
Total number of batches                      ...      431
Average number of points per batch           ...       63
Average number of grid points per atom       ...    27544
Time for grid setup =    0.718 sec

--------------
SCF ITERATIONS
--------------
ITER       Energy         Delta-E        Max-DP      RMS-DP      [F,P]     Damp
               ***  Starting incremental Fock matrix formation  ***
  0  -3208.1282033110   0.000000000000 0.01514535  0.00044706  0.1372204 0.7000
  1  -3208.1320106990  -0.003807387963 0.00974648  0.00027245  0.0928492 0.7000
                               ***Turning on DIIS***
  2  -3208.1341499574  -0.002139258368 0.02093350  0.00055369  0.0630203 0.0000
  3  -3208.1383635792  -0.004213621800 0.00534023  0.00015612  0.0168513 0.0000
  4  -3208.1385350963  -0.000171517109 0.00251017  0.00004793  0.0059690 0.0000
                      *** Initiating the SOSCF procedure ***
                           *** Shutting down DIIS ***
                      *** Re-Reading the Fockian *** 
                      *** Removing any level shift *** 
ITER      Energy       Delta-E        Grad      Rot      Max-DP    RMS-DP
  5  -3208.13856362  -0.0000285239  0.000069  0.000069  0.001591  0.000018
               *** Restarting incremental Fock matrix formation ***
  6  -3208.13856374  -0.0000001179  0.000014  0.000010  0.000040  0.000001
  7  -3208.13856374  -0.0000000009  0.000006  0.000005  0.000009  0.000000
  8  -3208.13856374  -0.0000000004  0.000002  0.000001  0.000006  0.000000
  9  -3208.13856374  -0.0000000000  0.000001  0.000000  0.000000  0.000000
                  ***Gradient check signals convergence***
              ***Rediagonalizing the Fockian in SOSCF/NRSCF***

               *****************************************************
               *                     SUCCESS                       *
               *           SCF CONVERGED AFTER  10 CYCLES          *
               *****************************************************


----------------
TOTAL SCF ENERGY
----------------

Total Energy       :        -3208.13856374 Eh          -87297.88846 eV

Components:
Nuclear Repulsion  :            0.00000000 Eh               0.00000 eV
Electronic Energy  :        -3208.13856374 Eh          -87297.88846 eV
One Electron Energy:        -4422.17205598 Eh         -120333.41928 eV
Two Electron Energy:         1214.03349224 Eh           33035.53082 eV

Virial components:
Potential Energy   :        -6287.98119986 Eh         -171104.66724 eV
Kinetic Energy     :         3079.84263612 Eh           83806.77878 eV
Virial Ratio       :            2.04165665


DFT components:
N(Alpha)           :       18.999999999962 electrons
N(Beta)            :       18.999999999962 electrons
N(Total)           :       37.999999999923 electrons
E(X)               :     -102.034576033174 Eh       
E(C)               :       -1.853166581163 Eh       
E(XC)              :     -103.887742614338 Eh       
DFET-embed. en.    :        0.000000000000 Eh       

---------------
SCF CONVERGENCE
---------------

  Last Energy change         ...    1.1369e-11  Tolerance :   1.0000e-09
  Last MAX-Density change    ...    1.5544e-07  Tolerance :   1.0000e-08
  Last RMS-Density change    ...    2.8837e-09  Tolerance :   1.0000e-09
  Last Orbital Gradient      ...    1.6193e-08  Tolerance :   2.0000e-06
  Last Orbital Rotation      ...    7.0484e-08  Tolerance :   2.0000e-06

             **** THE GBW FILE WAS UPDATED (Sr_sapporo-qzp-2012-diffuse_pbe.gbw) ****
             **** DENSITY Sr_sapporo-qzp-2012-diffuse_pbe.scfp WAS UPDATED ****
             **** ENERGY FILE WAS UPDATED (Sr_sapporo-qzp-2012-diffuse_pbe.en.tmp) ****
----------------------
UHF SPIN CONTAMINATION
----------------------

Warning: in a DFT calculation there is little theoretical justification to 
         calculate <S**2> as in Hartree-Fock theory. We will do it anyways
         but you should keep in mind that the values have only limited relevance

Expectation value of <S**2>     :    -0.000000
Ideal value S*(S+1) for S=0.0   :     0.000000
Deviation                       :    -0.000000

             **** THE GBW FILE WAS UPDATED (Sr_sapporo-qzp-2012-diffuse_pbe.gbw) ****
             **** DENSITY Sr_sapporo-qzp-2012-diffuse_pbe.scfp WAS UPDATED ****
----------------
ORBITAL ENERGIES
----------------
                 SPIN UP ORBITALS
  NO   OCC          E(Eh)            E(eV) 
   0   1.0000    -598.435668    -16284.2624 
   1   1.0000     -79.844834     -2172.6884 
   2   1.0000     -71.356472     -1941.7083 
   3   1.0000     -71.356472     -1941.7083 
   4   1.0000     -71.356472     -1941.7083 
   5   1.0000     -12.267129      -333.8055 
   6   1.0000      -9.473824      -257.7959 
   7   1.0000      -9.473824      -257.7959 
   8   1.0000      -9.473824      -257.7959 
   9   1.0000      -4.727928      -128.6535 
  10   1.0000      -4.727928      -128.6535 
  11   1.0000      -4.727928      -128.6535 
  12   1.0000      -4.727928      -128.6535 
  13   1.0000      -4.727928      -128.6535 
  14   1.0000      -1.500771       -40.8381 
  15   1.0000      -0.843624       -22.9562 
  16   1.0000      -0.843624       -22.9562 
  17   1.0000      -0.843624       -22.9562 
  18   1.0000      -0.129391        -3.5209 
  19   0.0000      -0.047450        -1.2912 
  20   0.0000      -0.047450        -1.2912 
  21   0.0000      -0.047450        -1.2912 
  22   0.0000      -0.044274        -1.2047 
  23   0.0000      -0.044274        -1.2047 
  24   0.0000      -0.044274        -1.2047 
  25   0.0000      -0.044274        -1.2047 
  26   0.0000      -0.044274        -1.2047 
  27   0.0000      -0.002709        -0.0737 
  28   0.0000       0.026033         0.7084 
  29   0.0000       0.026033         0.7084 
  30   0.0000       0.026033         0.7084 
  31   0.0000       0.044486         1.2105 
  32   0.0000       0.044486         1.2105 
  33   0.0000       0.044486         1.2105 
  34   0.0000       0.044486         1.2105 
  35   0.0000       0.044486         1.2105 
  36   0.0000       0.058232         1.5846 
  37   0.0000       0.087490         2.3807 
  38   0.0000       0.087490         2.3807 
  39   0.0000       0.087490         2.3807 
  40   0.0000       0.087490         2.3807 
  41   0.0000       0.087490         2.3807 
  42   0.0000       0.087490         2.3807 
  43   0.0000       0.087490         2.3807 
  44   0.0000       0.188718         5.1353 
  45   0.0000       0.188718         5.1353 
  46   0.0000       0.188718         5.1353 
  47   0.0000       0.277811         7.5596 
  48   0.0000       0.277811         7.5596 
  49   0.0000       0.277811         7.5596 
  50   0.0000       0.277811         7.5596 
  51   0.0000       0.277811         7.5596 
  52   0.0000       0.307333         8.3629 
  53   0.0000       0.307333         8.3629 
  54   0.0000       0.307333         8.3629 
  55   0.0000       0.307333         8.3629 
  56   0.0000       0.307333         8.3629 
  57   0.0000       0.307333         8.3629 
  58   0.0000       0.307333         8.3629 
  59   0.0000       0.311867         8.4863 
  60   0.0000       0.679262        18.4837 
  61   0.0000       0.679262        18.4837 
  62   0.0000       0.679262        18.4837 
  63   0.0000       1.211558        32.9682 
  64   0.0000       1.211558        32.9682 
  65   0.0000       1.211558        32.9682 
  66   0.0000       1.211558        32.9682 
  67   0.0000       1.211558        32.9682 
  68   0.0000       1.211558        32.9682 
  69   0.0000       1.211558        32.9682 
  70   0.0000       1.211558        32.9682 
  71   0.0000       1.211558        32.9682 
  72   0.0000       1.239749        33.7353 
  73   0.0000       1.239749        33.7353 
  74   0.0000       1.239749        33.7353 
  75   0.0000       1.239749        33.7353 
  76   0.0000       1.239749        33.7353 
  77   0.0000       1.330652        36.2089 
  78   0.0000       1.603324        43.6287 
  79   0.0000       1.603324        43.6287 
  80   0.0000       1.603324        43.6287 
  81   0.0000       1.603324        43.6287 
  82   0.0000       1.603324        43.6287 
  83   0.0000       1.603324        43.6287 
  84   0.0000       1.603324        43.6287 
  85   0.0000       2.275332        61.9149 
  86   0.0000       2.275332        61.9149 
  87   0.0000       2.275332        61.9149 
  88   0.0000       3.407027        92.7099 
  89   0.0000       3.407027        92.7099 
  90   0.0000       3.407027        92.7099 
  91   0.0000       3.407027        92.7099 
  92   0.0000       3.407027        92.7099 
  93   0.0000       3.823077       104.0312 
  94   0.0000       3.823077       104.0312 
  95   0.0000       3.823077       104.0312 
  96   0.0000       3.823077       104.0312 
  97   0.0000       3.823077       104.0312 
  98   0.0000       3.823077       104.0312 
  99   0.0000       3.823077       104.0312 
 100   0.0000       3.823077       104.0312 
 101   0.0000       3.823077       104.0312 
 102   0.0000       4.173359       113.5629 
 103   0.0000       8.236912       224.1378 
 104   0.0000       8.236912       224.1378 
 105   0.0000       8.236912       224.1378 
 106   0.0000      11.078435       301.4595 

                 SPIN DOWN ORBITALS
  NO   OCC          E(Eh)            E(eV) 
   0   1.0000    -598.435668    -16284.2624 
   1   1.0000     -79.844834     -2172.6884 
   2   1.0000     -71.356472     -1941.7083 
   3   1.0000     -71.356472     -1941.7083 
   4   1.0000     -71.356472     -1941.7083 
   5   1.0000     -12.267129      -333.8055 
   6   1.0000      -9.473824      -257.7959 
   7   1.0000      -9.473824      -257.7959 
   8   1.0000      -9.473824      -257.7959 
   9   1.0000      -4.727928      -128.6535 
  10   1.0000      -4.727928      -128.6535 
  11   1.0000      -4.727928      -128.6535 
  12   1.0000      -4.727928      -128.6535 
  13   1.0000      -4.727928      -128.6535 
  14   1.0000      -1.500771       -40.8381 
  15   1.0000      -0.843624       -22.9562 
  16   1.0000      -0.843624       -22.9562 
  17   1.0000      -0.843624       -22.9562 
  18   1.0000      -0.129391        -3.5209 
  19   0.0000      -0.047450        -1.2912 
  20   0.0000      -0.047450        -1.2912 
  21   0.0000      -0.047450        -1.2912 
  22   0.0000      -0.044274        -1.2047 
  23   0.0000      -0.044274        -1.2047 
  24   0.0000      -0.044274        -1.2047 
  25   0.0000      -0.044274        -1.2047 
  26   0.0000      -0.044274        -1.2047 
  27   0.0000      -0.002709        -0.0737 
  28   0.0000       0.026033         0.7084 
  29   0.0000       0.026033         0.7084 
  30   0.0000       0.026033         0.7084 
  31   0.0000       0.044486         1.2105 
  32   0.0000       0.044486         1.2105 
  33   0.0000       0.044486         1.2105 
  34   0.0000       0.044486         1.2105 
  35   0.0000       0.044486         1.2105 
  36   0.0000       0.058232         1.5846 
  37   0.0000       0.087490         2.3807 
  38   0.0000       0.087490         2.3807 
  39   0.0000       0.087490         2.3807 
  40   0.0000       0.087490         2.3807 
  41   0.0000       0.087490         2.3807 
  42   0.0000       0.087490         2.3807 
  43   0.0000       0.087490         2.3807 
  44   0.0000       0.188718         5.1353 
  45   0.0000       0.188718         5.1353 
  46   0.0000       0.188718         5.1353 
  47   0.0000       0.277811         7.5596 
  48   0.0000       0.277811         7.5596 
  49   0.0000       0.277811         7.5596 
  50   0.0000       0.277811         7.5596 
  51   0.0000       0.277811         7.5596 
  52   0.0000       0.307333         8.3629 
  53   0.0000       0.307333         8.3629 
  54   0.0000       0.307333         8.3629 
  55   0.0000       0.307333         8.3629 
  56   0.0000       0.307333         8.3629 
  57   0.0000       0.307333         8.3629 
  58   0.0000       0.307333         8.3629 
  59   0.0000       0.311867         8.4863 
  60   0.0000       0.679262        18.4837 
  61   0.0000       0.679262        18.4837 
  62   0.0000       0.679262        18.4837 
  63   0.0000       1.211558        32.9682 
  64   0.0000       1.211558        32.9682 
  65   0.0000       1.211558        32.9682 
  66   0.0000       1.211558        32.9682 
  67   0.0000       1.211558        32.9682 
  68   0.0000       1.211558        32.9682 
  69   0.0000       1.211558        32.9682 
  70   0.0000       1.211558        32.9682 
  71   0.0000       1.211558        32.9682 
  72   0.0000       1.239749        33.7353 
  73   0.0000       1.239749        33.7353 
  74   0.0000       1.239749        33.7353 
  75   0.0000       1.239749        33.7353 
  76   0.0000       1.239749        33.7353 
  77   0.0000       1.330652        36.2089 
  78   0.0000       1.603324        43.6287 
  79   0.0000       1.603324        43.6287 
  80   0.0000       1.603324        43.6287 
  81   0.0000       1.603324        43.6287 
  82   0.0000       1.603324        43.6287 
  83   0.0000       1.603324        43.6287 
  84   0.0000       1.603324        43.6287 
  85   0.0000       2.275332        61.9149 
  86   0.0000       2.275332        61.9149 
  87   0.0000       2.275332        61.9149 
  88   0.0000       3.407027        92.7099 
  89   0.0000       3.407027        92.7099 
  90   0.0000       3.407027        92.7099 
  91   0.0000       3.407027        92.7099 
  92   0.0000       3.407027        92.7099 
  93   0.0000       3.823077       104.0312 
  94   0.0000       3.823077       104.0312 
  95   0.0000       3.823077       104.0312 
  96   0.0000       3.823077       104.0312 
  97   0.0000       3.823077       104.0312 
  98   0.0000       3.823077       104.0312 
  99   0.0000       3.823077       104.0312 
 100   0.0000       3.823077       104.0312 
 101   0.0000       3.823077       104.0312 
 102   0.0000       4.173359       113.5629 
 103   0.0000       8.236912       224.1378 
 104   0.0000       8.236912       224.1378 
 105   0.0000       8.236912       224.1378 
 106   0.0000      11.078435       301.4595 

                    ********************************
                    * MULLIKEN POPULATION ANALYSIS *
                    ********************************

--------------------------------------------
MULLIKEN ATOMIC CHARGES AND SPIN POPULATIONS
--------------------------------------------
   0 Sr:   -0.000000    0.000000
Sum of atomic charges         :   -0.0000000
Sum of atomic spin populations:    0.0000000

-----------------------------------------------------
MULLIKEN REDUCED ORBITAL CHARGES AND SPIN POPULATIONS
-----------------------------------------------------
CHARGE
  0 Srs       :    10.000000  s :    10.000000
      pz      :     6.000000  p :    18.000000
      px      :     6.000000
      py      :     6.000000
      dz2     :     2.000000  d :    10.000000
      dxz     :     2.000000
      dyz     :     2.000000
      dx2y2   :     2.000000
      dxy     :     2.000000
      f0      :     0.000000  f :     0.000000
      f+1     :     0.000000
      f-1     :     0.000000
      f+2     :     0.000000
      f-2     :     0.000000
      f+3     :     0.000000
      f-3     :     0.000000
      g0      :     0.000000  g :     0.000000
      g+1     :     0.000000
      g-1     :     0.000000
      g+2     :     0.000000
      g-2     :     0.000000
      g+3     :     0.000000
      g-3     :     0.000000
      g+4     :     0.000000
      g-4     :     0.000000

SPIN
  0 Srs       :     0.000000  s :     0.000000
      pz      :     0.000000  p :     0.000000
      px      :     0.000000
      py      :     0.000000
      dz2     :     0.000000  d :     0.000000
      dxz     :     0.000000
      dyz     :     0.000000
      dx2y2   :     0.000000
      dxy     :     0.000000
      f0      :     0.000000  f :     0.000000
      f+1     :     0.000000
      f-1     :     0.000000
      f+2     :     0.000000
      f-2     :     0.000000
      f+3     :     0.000000
      f-3     :     0.000000
      g0      :     0.000000  g :     0.000000
      g+1     :     0.000000
      g-1     :     0.000000
      g+2     :     0.000000
      g-2     :     0.000000
      g+3     :     0.000000
      g-3     :     0.000000
      g+4     :     0.000000
      g-4     :     0.000000


                     *******************************
                     * LOEWDIN POPULATION ANALYSIS *
                     *******************************

-------------------------------------------
LOEWDIN ATOMIC CHARGES AND SPIN POPULATIONS
-------------------------------------------
   0 Sr:   -0.000000    0.000000

----------------------------------------------------
LOEWDIN REDUCED ORBITAL CHARGES AND SPIN POPULATIONS
----------------------------------------------------
CHARGE
  0 Srs       :    10.000000  s :    10.000000
      pz      :     6.000000  p :    18.000000
      px      :     6.000000
      py      :     6.000000
      dz2     :     2.000000  d :    10.000000
      dxz     :     2.000000
      dyz     :     2.000000
      dx2y2   :     2.000000
      dxy     :     2.000000
      f0      :     0.000000  f :     0.000000
      f+1     :     0.000000
      f-1     :     0.000000
      f+2     :     0.000000
      f-2     :     0.000000
      f+3     :     0.000000
      f-3     :     0.000000
      g0      :     0.000000  g :     0.000000
      g+1     :     0.000000
      g-1     :     0.000000
      g+2     :     0.000000
      g-2     :     0.000000
      g+3     :     0.000000
      g-3     :     0.000000
      g+4     :     0.000000
      g-4     :     0.000000

SPIN
  0 Srs       :     0.000000  s :     0.000000
      pz      :     0.000000  p :     0.000000
      px      :     0.000000
      py      :     0.000000
      dz2     :     0.000000  d :     0.000000
      dxz     :     0.000000
      dyz     :     0.000000
      dx2y2   :     0.000000
      dxy     :     0.000000
      f0      :     0.000000  f :     0.000000
      f+1     :     0.000000
      f-1     :     0.000000
      f+2     :     0.000000
      f-2     :     0.000000
      f+3     :     0.000000
      f-3     :     0.000000
      g0      :     0.000000  g :     0.000000
      g+1     :     0.000000
      g-1     :     0.000000
      g+2     :     0.000000
      g-2     :     0.000000
      g+3     :     0.000000
      g-3     :     0.000000
      g+4     :     0.000000
      g-4     :     0.000000


                      *****************************
                      * MAYER POPULATION ANALYSIS *
                      *****************************

  NA   - Mulliken gross atomic population
  ZA   - Total nuclear charge
  QA   - Mulliken gross atomic charge
  VA   - Mayer's total valence
  BVA  - Mayer's bonded valence
  FA   - Mayer's free valence

  ATOM       NA         ZA         QA         VA         BVA        FA
  0 Sr    38.0000    38.0000    -0.0000    -0.0000     0.0000    -0.0000

  Mayer bond orders larger than 0.100000


-------
TIMINGS
-------

Total SCF time: 0 days 0 hours 1 min 50 sec 

Total time                  ....     110.287 sec
Sum of individual times     ....     103.376 sec  ( 93.7%)

Fock matrix formation       ....      96.651 sec  ( 87.6%)
  XC integration            ....      61.599 sec  ( 63.7% of F)
    Basis function eval.    ....       0.031 sec  (  0.1% of XC)
    Density eval.           ....       0.112 sec  (  0.2% of XC)
    XC-Functional eval.     ....       0.056 sec  (  0.1% of XC)
    XC-Potential eval.      ....       0.047 sec  (  0.1% of XC)
Diagonalization             ....       0.639 sec  (  0.6%)
Density matrix formation    ....       0.007 sec  (  0.0%)
Population analysis         ....       0.163 sec  (  0.1%)
Initial guess               ....       4.168 sec  (  3.8%)
Orbital Transformation      ....       0.000 sec  (  0.0%)
Orbital Orthonormalization  ....       0.000 sec  (  0.0%)
DIIS solution               ....       0.595 sec  (  0.5%)
SOSCF solution              ....       0.252 sec  (  0.2%)
Grid generation             ....       0.901 sec  (  0.8%)

Maximum memory used throughout the entire SCF-calculation: 229.8 MB

-------------------------   --------------------
FINAL SINGLE POINT ENERGY     -3208.138563739415
-------------------------   --------------------


                            ***************************************
                            *     ORCA property calculations      *
                            ***************************************

                                    ---------------------
                                    Active property flags
                                    ---------------------
   (+) Dipole Moment


------------------------------------------------------------------------------
                       ORCA ELECTRIC PROPERTIES CALCULATION
------------------------------------------------------------------------------

Dipole Moment Calculation                       ... on
Quadrupole Moment Calculation                   ... off
Polarizability Calculation                      ... off
GBWName                                         ... Sr_sapporo-qzp-2012-diffuse_pbe.gbw
Electron density                                ... Sr_sapporo-qzp-2012-diffuse_pbe.scfp
The origin for moment calculation is the CENTER OF MASS  = ( 0.000000,  0.000000  0.000000)

-------------
DIPOLE MOMENT
-------------
                                X             Y             Z
Electronic contribution:     -0.00000       0.00000       0.00000
Nuclear contribution   :      0.00000       0.00000       0.00000
                        -----------------------------------------
Total Dipole Moment    :     -0.00000       0.00000       0.00000
                        -----------------------------------------
Magnitude (a.u.)       :      0.00000
Magnitude (Debye)      :      0.00000



--------------------
Rotational spectrum 
--------------------
 
Rotational constants in cm-1:     0.000000     0.000000     0.000000 
Rotational constants in MHz :     0.000000     0.000000     0.000000 

 Dipole components along the rotational axes: 
x,y,z [a.u.] :    -0.000000     0.000000     0.000000 
x,y,z [Debye]:    -0.000000     0.000000     0.000000 

 

Timings for individual modules:

Sum of individual times         ...      217.373 sec (=   3.623 min)
GTO integral calculation        ...       93.523 sec (=   1.559 min)  43.0 %
Relativistic integrals          ...        9.040 sec (=   0.151 min)   4.2 %
SCF iterations                  ...      114.810 sec (=   1.913 min)  52.8 %
                             ****ORCA TERMINATED NORMALLY****
TOTAL RUN TIME: 0 days 0 hours 4 minutes 5 seconds 268 msec
