
                                 *****************
                                 * O   R   C   A *
                                 *****************

                                            #,                                       
                                            ###                                      
                                            ####                                     
                                            #####                                    
                                            ######                                   
                                           ########,                                 
                                     ,,################,,,,,                         
                               ,,#################################,,                 
                          ,,##########################################,,             
                       ,#########################################, ''#####,          
                    ,#############################################,,   '####,        
                  ,##################################################,,,,####,       
                ,###########''''           ''''###############################       
              ,#####''   ,,,,##########,,,,          '''####'''          '####       
            ,##' ,,,,###########################,,,                        '##       
           ' ,,###''''                  '''############,,,                           
         ,,##''                                '''############,,,,        ,,,,,,###''
      ,#''                                            '''#######################'''  
     '                                                          ''''####''''         
             ,#######,   #######,   ,#######,      ##                                
            ,#'     '#,  ##    ##  ,#'     '#,    #''#        ######   ,####,        
            ##       ##  ##   ,#'  ##            #'  '#       #        #'  '#        
            ##       ##  #######   ##           ,######,      #####,   #    #        
            '#,     ,#'  ##    ##  '#,     ,#' ,#      #,         ##   #,  ,#        
             '#######'   ##     ##  '#######'  #'      '#     #####' # '####'        



                  #######################################################
                  #                        -***-                        #
                  #          Department of theory and spectroscopy      #
                  #    Directorship and core code : Frank Neese         #
                  #        Max Planck Institute fuer Kohlenforschung    #
                  #                Kaiser Wilhelm Platz 1               #
                  #                 D-45470 Muelheim/Ruhr               #
                  #                      Germany                        #
                  #                                                     #
                  #                  All rights reserved                #
                  #                        -***-                        #
                  #######################################################


                         Program Version 5.0.1 -  RELEASE  -


 With contributions from (in alphabetic order):
   Daniel Aravena         : Magnetic Suceptibility
   Michael Atanasov       : Ab Initio Ligand Field Theory (pilot matlab implementation)
   Alexander A. Auer      : GIAO ZORA, VPT2 properties, NMR spectrum
   Ute Becker             : Parallelization
   Giovanni Bistoni       : ED, misc. LED, open-shell LED, HFLD
   Martin Brehm           : Molecular dynamics
   Dmytro Bykov           : SCF Hessian
   Vijay G. Chilkuri      : MRCI spin determinant printing, contributions to CSF-ICE
   Dipayan Datta          : RHF DLPNO-CCSD density
   Achintya Kumar Dutta   : EOM-CC, STEOM-CC
   Dmitry Ganyushin       : Spin-Orbit,Spin-Spin,Magnetic field MRCI
   Miquel Garcia          : C-PCM and meta-GGA Hessian, CC/C-PCM, Gaussian charge scheme
   Yang Guo               : DLPNO-NEVPT2, F12-NEVPT2, CIM, IAO-localization
   Andreas Hansen         : Spin unrestricted coupled pair/coupled cluster methods
   Benjamin Helmich-Paris : MC-RPA, TRAH-SCF, COSX integrals
   Lee Huntington         : MR-EOM, pCC
   Robert Izsak           : Overlap fitted RIJCOSX, COSX-SCS-MP3, EOM
   Marcus Kettner         : VPT2
   Christian Kollmar      : KDIIS, OOCD, Brueckner-CCSD(T), CCSD density, CASPT2, CASPT2-K
   Simone Kossmann        : Meta GGA functionals, TD-DFT gradient, OOMP2, MP2 Hessian
   Martin Krupicka        : Initial AUTO-CI
   Lucas Lang             : DCDCAS
   Marvin Lechner         : AUTO-CI (C++ implementation), FIC-MRCC
   Dagmar Lenk            : GEPOL surface, SMD
   Dimitrios Liakos       : Extrapolation schemes; Compound Job, initial MDCI parallelization
   Dimitrios Manganas     : Further ROCIS development; embedding schemes
   Dimitrios Pantazis     : SARC Basis sets
   Anastasios Papadopoulos: AUTO-CI, single reference methods and gradients
   Taras Petrenko         : DFT Hessian,TD-DFT gradient, ASA, ECA, R-Raman, ABS, FL, XAS/XES, NRVS
   Peter Pinski           : DLPNO-MP2, DLPNO-MP2 Gradient
   Christoph Reimann      : Effective Core Potentials
   Marius Retegan         : Local ZFS, SOC
   Christoph Riplinger    : Optimizer, TS searches, QM/MM, DLPNO-CCSD(T), (RO)-DLPNO pert. Triples
   Tobias Risthaus        : Range-separated hybrids, TD-DFT gradient, RPA, STAB
   Michael Roemelt        : Original ROCIS implementation
   Masaaki Saitow         : Open-shell DLPNO-CCSD energy and density
   Barbara Sandhoefer     : DKH picture change effects
   Avijit Sen             : IP-ROCIS
   Kantharuban Sivalingam : CASSCF convergence, NEVPT2, FIC-MRCI
   Bernardo de Souza      : ESD, SOC TD-DFT
   Georgi Stoychev        : AutoAux, RI-MP2 NMR, DLPNO-MP2 response
   Willem Van den Heuvel  : Paramagnetic NMR
   Boris Wezisla          : Elementary symmetry handling
   Frank Wennmohs         : Technical directorship


 We gratefully acknowledge several colleagues who have allowed us to
 interface, adapt or use parts of their codes:
   Stefan Grimme, W. Hujo, H. Kruse, P. Pracht,  : VdW corrections, initial TS optimization,
                  C. Bannwarth, S. Ehlert          DFT functionals, gCP, sTDA/sTD-DF
   Ed Valeev, F. Pavosevic, A. Kumar             : LibInt (2-el integral package), F12 methods
   Garnet Chan, S. Sharma, J. Yang, R. Olivares  : DMRG
   Ulf Ekstrom                                   : XCFun DFT Library
   Mihaly Kallay                                 : mrcc  (arbitrary order and MRCC methods)
   Jiri Pittner, Ondrej Demel                    : Mk-CCSD
   Frank Weinhold                                : gennbo (NPA and NBO analysis)
   Christopher J. Cramer and Donald G. Truhlar   : smd solvation model
   Lars Goerigk                                  : TD-DFT with DH, B97 family of functionals
   V. Asgeirsson, H. Jonsson                     : NEB implementation
   FAccTs GmbH                                   : IRC, NEB, NEB-TS, DLPNO-Multilevel, CI-OPT
                                                   MM, QMMM, 2- and 3-layer-ONIOM, Crystal-QMMM,
                                                   LR-CPCM, SF, NACMEs, symmetry and pop. for TD-DFT,
                                                   nearIR, NL-DFT gradient (VV10), updates on ESD,
                                                   ML-optimized integration grids
   S Lehtola, MJT Oliveira, MAL Marques          : LibXC Library
   Liviu Ungur et al                             : ANISO software


 Your calculation uses the libint2 library for the computation of 2-el integrals
 For citations please refer to: http://libint.valeyev.net

 Your ORCA version has been built with support for libXC version: 5.1.0
 For citations please refer to: https://tddft.org/programs/libxc/

 This ORCA versions uses:
   CBLAS   interface :  Fast vector & matrix operations
   LAPACKE interface :  Fast linear algebra routines
   SCALAPACK package :  Parallel linear algebra routines
   Shared memory     :  Shared parallel matrices
   BLAS/LAPACK       :  OpenBLAS 0.3.15  USE64BITINT DYNAMIC_ARCH NO_AFFINITY Haswell SINGLE_THREADED
        Core in use  :  Haswell
   Copyright (c) 2011-2014, The OpenBLAS Project


SCAN-COORDS

Reading of a custom basis requested
Basis file         : Sr_ugbs.basis
READING GTO-BASIS: STRONTIUM
Basis successfully read

================================================================================

----- Orbital basis set information -----
================================================================================
                                        WARNINGS
                       Please study these warnings very carefully!
================================================================================


INFO   : the flag for use of the SHARK integral package has been found!

================================================================================
                                       INPUT FILE
================================================================================
NAME = Sr_ugbs_pbe.inp
|  1> !uks pbe nori verytightscf soscf notrah
|  2> 
|  3> %pal
|  4>   nprocs 32
|  5> end
|  6> %coords
|  7>   charge 0
|  8>   mult 1
|  9>   units bohrs
| 10>   coords
| 11>     Sr 0.0 0.0 0.0
| 12>   end
| 13> end
| 14> %basis
| 15>   gtoname "Sr_ugbs.basis"
| 16>   delECP Sr
| 17> end
| 18> %rel
| 19>   method zora
| 20>   modelpot 1, 0, 0, 0
| 21>   c 137.035999084
| 22> endd                         ****END OF INPUT****
================================================================================

                       ****************************
                       * Single Point Calculation *
                       ****************************

---------------------------------
CARTESIAN COORDINATES (ANGSTROEM)
---------------------------------
  Sr     0.000000    0.000000    0.000000

----------------------------
CARTESIAN COORDINATES (A.U.)
----------------------------
  NO LB      ZA    FRAG     MASS         X           Y           Z
   0 Sr   38.0000    0    87.620    0.000000    0.000000    0.000000

--------------------------------
INTERNAL COORDINATES (ANGSTROEM)
--------------------------------
 Sr     0   0   0     0.000000000000     0.00000000     0.00000000

---------------------------
INTERNAL COORDINATES (A.U.)
---------------------------
 Sr     0   0   0     0.000000000000     0.00000000     0.00000000

---------------------
BASIS SET INFORMATION
---------------------
There are 1 groups of distinct atoms

 Group   1 Type Sr  : 30s21p14d contracted to 30s21p14d pattern {111111111111111111111111111111/111111111111111111111/11111111111111}

Atom   0Sr   basis set group =>   1


           ************************************************************
           *        Program running with 32 parallel MPI-processes    *
           *              working on a common directory               *
           ************************************************************
------------------------------------------------------------------------------
                           ORCA GTO INTEGRAL CALCULATION
------------------------------------------------------------------------------
------------------------------------------------------------------------------
                   ___                                                        
                  /   \      - P O W E R E D   B Y -                         
                 /     \                                                     
                 |  |  |   _    _      __       _____    __    __             
                 |  |  |  | |  | |    /  \     |  _  \  |  |  /  |          
                  \  \/   | |  | |   /    \    | | | |  |  | /  /          
                 / \  \   | |__| |  /  /\  \   | |_| |  |  |/  /          
                |  |  |   |  __  | /  /__\  \  |    /   |      \           
                |  |  |   | |  | | |   __   |  |    \   |  |\   \          
                \     /   | |  | | |  |  |  |  | |\  \  |  | \   \       
                 \___/    |_|  |_| |__|  |__|  |_| \__\ |__|  \__/        
                                                                              
                      - O R C A' S   B I G   F R I E N D -                    
                                      &                                       
                       - I N T E G R A L  F E E D E R -                       
                                                                              
 v1 FN, 2020, v2 2021                                                         
------------------------------------------------------------------------------


Reading SHARK input file Sr_ugbs_pbe.SHARKINP.tmp ... ok
----------------------
SHARK INTEGRAL PACKAGE
----------------------

Number of atoms                             ...      1
Number of basis functions                   ...    163
Number of shells                            ...     65
Maximum angular momentum                    ...      2
Integral batch strategy                     ... SHARK/LIBINT Hybrid
RI-J (if used) integral strategy            ... SPLIT-RIJ (Revised 2003 algorithm where possible)
Printlevel                                  ...      1
Contraction scheme used                     ... SEGMENTED contraction
Coulomb Range Separation                    ... NOT USED
Exchange Range Separation                   ... NOT USED
Finite Nucleus Model                        ... NOT USED
Auxiliary Coulomb fitting basis             ... NOT available
Auxiliary J/K fitting basis                 ... NOT available
Auxiliary Correlation fitting basis         ... NOT available
Auxiliary 'external' fitting basis          ... NOT available
Integral threshold                          ...     1.000000e-12
Primitive cut-off                           ...     1.000000e-14
Primitive pair pre-selection threshold      ...     1.000000e-14

Calculating pre-screening integrals         ... done (  0.1 sec) Dimension = 65
Organizing shell pair data                  ... done (  0.0 sec)
Shell pair information
Total number of shell pairs                 ...      2145
Shell pairs after pre-screening             ...      2145
Total number of primitive shell pairs       ...      2145
Primitive shell pairs kept                  ...      2145
          la=0 lb=0:    465 shell pairs
          la=1 lb=0:    630 shell pairs
          la=1 lb=1:    231 shell pairs
          la=2 lb=0:    420 shell pairs
          la=2 lb=1:    294 shell pairs
          la=2 lb=2:    105 shell pairs

Calculating one electron integrals          ... done (  0.0 sec)
Calculating Nuclear repulsion               ... done (  0.0 sec) ENN=      0.000000000000 Eh

SHARK setup successfully completed in  18.8 seconds

Maximum memory used throughout the entire GTOINT-calculation: 6.0 MB


           ************************************************************
           *        Program running with 32 parallel MPI-processes    *
           *              working on a common directory               *
           ************************************************************
------------------------------------------------------------------------------
                          ORCA RELATIVISTIC HAMILTONIAN
------------------------------------------------------------------------------

Relativistic Method            ... ZORA(MP)
Treatment of potential         ... Van Wuellen
Nucleus model                  ... Point Nucleus
Speed of light used            ... 137.03599908400000


            *************************************************
            *         ZERO ORDER REGULAR APPROXIMATION      *
            *                     ZORA(MP)                  *
            *            Programmed by FN according to      *
            *                   C. van Wuellen              *
            *       J. Chem. Phys. (1998) vol 109, 392-399  *
            *************************************************

Terms included in model potential: +V(e,N)
Basis function cutoff value   ... 1.000000e-12
Loading the fitted atomic densities  (DKH4)  ... done
Calculating the cutoffs                      ... done
Number of fit functions                      ... 28
Setting up the integration grid ... done

Maximum memory used throughout the entire REL-calculation: 10.5 MB


           ************************************************************
           *        Program running with 32 parallel MPI-processes    *
           *              working on a common directory               *
           ************************************************************
-------------------------------------------------------------------------------
                                 ORCA SCF
-------------------------------------------------------------------------------

------------
SCF SETTINGS
------------
Hamiltonian:
 Density Functional     Method          .... DFT(GTOs)
 Exchange Functional    Exchange        .... PBE
   PBE kappa parameter   XKappa         ....  0.804000
   PBE mue parameter    XMuePBE         ....  0.219520
 Correlation Functional Correlation     .... PBE
   PBE beta parameter  CBetaPBE         ....  0.066725
 LDA part of GGA corr.  LDAOpt          .... PW91-LDA
 Gradients option       PostSCFGGA      .... off
   Density functional embedding theory  .... OFF
   NL short-range parameter             ....  6.400000

Relativistic Settings:
 Scalar relativistic method             .... ZORA
 Speed of light used       Velit        ....       137.035999
Orbital energies will be scaled


General Settings:
 Integral files         IntName         .... Sr_ugbs_pbe
 Hartree-Fock type      HFTyp           .... UHF
 Total Charge           Charge          ....    0
 Multiplicity           Mult            ....    1
 Number of Electrons    NEL             ....   38
 Basis Dimension        Dim             ....  163
 Nuclear Repulsion      ENuc            ....      0.0000000000 Eh

Convergence Acceleration:
 DIIS                   CNVDIIS         .... on
   Start iteration      DIISMaxIt       ....    12
   Startup error        DIISStart       ....  0.200000
   # of expansion vecs  DIISMaxEq       ....     5
   Bias factor          DIISBfac        ....   1.050
   Max. coefficient     DIISMaxC        ....  10.000
 Trust-Rad. Augm. Hess. CNVTRAH         .... off
 SOSCF                  CNVSOSCF        .... on
   Start iteration      SOSCFMaxIt      ....   150
   Startup grad/error   SOSCFStart      ....  0.003300
 Level Shifting         CNVShift        .... on
   Level shift para.    LevelShift      ....    0.2500
   Turn off err/grad.   ShiftErr        ....    0.0010
 Zerner damping         CNVZerner       .... off
 Static damping         CNVDamp         .... on
   Fraction old density DampFac         ....    0.7000
   Max. Damping (<1)    DampMax         ....    0.9800
   Min. Damping (>=0)   DampMin         ....    0.0000
   Turn off err/grad.   DampErr         ....    0.1000
 Fernandez-Rico         CNVRico         .... off

SCF Procedure:
 Maximum # iterations   MaxIter         ....   125
 SCF integral mode      SCFMode         .... Direct
   Integral package                     .... SHARK and LIBINT hybrid scheme
 Reset frequency        DirectResetFreq ....    20
 Integral Threshold     Thresh          ....  1.000e-12 Eh
 Primitive CutOff       TCut            ....  1.000e-14 Eh

Convergence Tolerance:
 Convergence Check Mode ConvCheckMode   .... Total+1el-Energy
 Convergence forced     ConvForced      .... 0
 Energy Change          TolE            ....  1.000e-09 Eh
 1-El. energy change                    ....  1.000e-06 Eh
 Orbital Gradient       TolG            ....  2.000e-06
 Orbital Rotation angle TolX            ....  2.000e-06
 DIIS Error             TolErr          ....  1.000e-08


Diagonalization of the overlap matrix:
Smallest eigenvalue                        ... 6.125e-05
Time for diagonalization                   ...    0.109 sec
Threshold for overlap eigenvalues          ... 1.000e-08
Number of eigenvalues below threshold      ... 0
Time for construction of square roots      ...    1.684 sec
Total time needed                          ...    1.794 sec

Time for model grid setup =    2.356 sec

------------------------------
INITIAL GUESS: MODEL POTENTIAL
------------------------------
Loading ZORA relativistic densities                ... done
Calculating cut-offs                               ... done
Initializing the effective Hamiltonian             ... done
Setting up the integral package (SHARK)            ... done
Starting the Coulomb interaction                   ... done (   1.5 sec)
Reading the grid                                   ... done
Mapping shells                                     ... done
Starting the XC term evaluation                    ... done (   0.9 sec)
  promolecular density results
     # of electrons  =     37.999999965
     EX              =   -104.940287177
     EC              =     -1.843632703
     EX+EC           =   -106.783919880
Transforming the Hamiltonian                       ... done (   7.2 sec)
Diagonalizing the Hamiltonian                      ... done (   1.4 sec)
Back transforming the eigenvectors                 ... done (   0.7 sec)
Now organizing SCF variables                       ... done
                      ------------------
                      INITIAL GUESS DONE (  17.0 sec)
                      ------------------
-------------------
DFT GRID GENERATION
-------------------

General Integration Accuracy     IntAcc      ... 4.388
Radial Grid Type                 RadialGrid  ... OptM3 with GC (2021)
Angular Grid (max. ang.)         AngularGrid ... 4 (Lebedev-302)
Angular grid pruning method      GridPruning ... 4 (adaptive)
Weight generation scheme         WeightScheme... Becke
Basis function cutoff            BFCut       ... 1.0000e-12
Integration weight cutoff        WCut        ... 1.0000e-14
Angular grids for H and He will be reduced by one unit
Partially contracted basis set               ... off
Rotationally invariant grid construction     ... off

Total number of grid points                  ...    27544
Total number of batches                      ...      431
Average number of points per batch           ...       63
Average number of grid points per atom       ...    27544
Time for grid setup =    2.227 sec

--------------
SCF ITERATIONS
--------------
ITER       Energy         Delta-E        Max-DP      RMS-DP      [F,P]     Damp
               ***  Starting incremental Fock matrix formation  ***
  0  -3215.7720131292   0.000000000000 0.00447457  0.00005838  0.9304845 0.7000
  1  -3215.7731784442  -0.001165314967 0.00342151  0.00004498  0.6421537 0.7000
                      *** Initiating the SOSCF procedure ***
                      *** Re-Reading the Fockian *** 
                      *** Removing any level shift *** 
ITER      Energy       Delta-E        Grad      Rot      Max-DP    RMS-DP
  2  -3215.77386041  -0.0006819619  0.002501  0.002501  0.008257  0.000121
               *** Restarting incremental Fock matrix formation ***
  3  -3215.77526734  -0.0014069294  0.005060  0.001625  0.006845  0.000071
  4  -3215.77527989  -0.0000125511  0.002606  0.000443  0.000722  0.000014
  5  -3215.77530729  -0.0000273995  0.000262  0.000156  0.000282  0.000004
  6  -3215.77530737  -0.0000000863  0.000066  0.000063  0.000113  0.000001
  7  -3215.77530740  -0.0000000250  0.000008  0.000004  0.000006  0.000000
  8  -3215.77530740  -0.0000000000  0.000001  0.000001  0.000001  0.000000
                 **** Energy Check signals convergence ****
              ***Rediagonalizing the Fockian in SOSCF/NRSCF***

               *****************************************************
               *                     SUCCESS                       *
               *           SCF CONVERGED AFTER   9 CYCLES          *
               *****************************************************


----------------
TOTAL SCF ENERGY
----------------

Total Energy       :        -3215.77530740 Eh          -87505.69482 eV

Components:
Nuclear Repulsion  :            0.00000000 Eh               0.00000 eV
Electronic Energy  :        -3215.77530740 Eh          -87505.69482 eV
One Electron Energy:        -4437.55869323 Eh         -120752.11096 eV
Two Electron Energy:         1221.78338584 Eh           33246.41614 eV

Virial components:
Potential Energy   :        -6516.21313921 Eh         -177315.17405 eV
Kinetic Energy     :         3300.43783181 Eh           89809.47923 eV
Virial Ratio       :            1.97434809


DFT components:
N(Alpha)           :       18.999999999962 electrons
N(Beta)            :       18.999999999962 electrons
N(Total)           :       37.999999999924 electrons
E(X)               :     -103.817733619264 Eh       
E(C)               :       -1.845350063440 Eh       
E(XC)              :     -105.663083682704 Eh       
DFET-embed. en.    :        0.000000000000 Eh       

---------------
SCF CONVERGENCE
---------------

  Last Energy change         ...   -1.9099e-11  Tolerance :   1.0000e-09
  Last MAX-Density change    ...    5.3961e-08  Tolerance :   1.0000e-08
  Last RMS-Density change    ...    7.8014e-10  Tolerance :   1.0000e-09
  Last Orbital Gradient      ...    1.2693e-08  Tolerance :   2.0000e-06
  Last Orbital Rotation      ...    1.6938e-08  Tolerance :   2.0000e-06

             **** THE GBW FILE WAS UPDATED (Sr_ugbs_pbe.gbw) ****
             **** DENSITY Sr_ugbs_pbe.scfp WAS UPDATED ****
             **** ENERGY FILE WAS UPDATED (Sr_ugbs_pbe.en.tmp) ****
----------------------
UHF SPIN CONTAMINATION
----------------------

Warning: in a DFT calculation there is little theoretical justification to 
         calculate <S**2> as in Hartree-Fock theory. We will do it anyways
         but you should keep in mind that the values have only limited relevance

Expectation value of <S**2>     :    -0.000000
Ideal value S*(S+1) for S=0.0   :     0.000000
Deviation                       :    -0.000000

             **** THE GBW FILE WAS UPDATED (Sr_ugbs_pbe.gbw) ****
             **** DENSITY Sr_ugbs_pbe.scfp WAS UPDATED ****
----------------
ORBITAL ENERGIES
----------------
                 SPIN UP ORBITALS
  NO   OCC          E(Eh)            E(eV) 
   0   1.0000    -599.142029    -16303.4835 
   1   1.0000     -79.891884     -2173.9687 
   2   1.0000     -70.917689     -1929.7684 
   3   1.0000     -70.917689     -1929.7684 
   4   1.0000     -70.917689     -1929.7684 
   5   1.0000     -12.322888      -335.3228 
   6   1.0000      -9.445108      -257.0144 
   7   1.0000      -9.445108      -257.0144 
   8   1.0000      -9.445108      -257.0144 
   9   1.0000      -4.705262      -128.0367 
  10   1.0000      -4.705262      -128.0367 
  11   1.0000      -4.705262      -128.0367 
  12   1.0000      -4.705262      -128.0367 
  13   1.0000      -4.705262      -128.0367 
  14   1.0000      -1.508063       -41.0365 
  15   1.0000      -0.839720       -22.8499 
  16   1.0000      -0.839720       -22.8499 
  17   1.0000      -0.839720       -22.8499 
  18   1.0000      -0.129802        -3.5321 
  19   0.0000      -0.023271        -0.6332 
  20   0.0000      -0.023271        -0.6332 
  21   0.0000      -0.023271        -0.6332 
  22   0.0000       0.010357         0.2818 
  23   0.0000       0.027450         0.7470 
  24   0.0000       0.027450         0.7470 
  25   0.0000       0.027450         0.7470 
  26   0.0000       0.027450         0.7470 
  27   0.0000       0.027450         0.7470 
  28   0.0000       0.158028         4.3002 
  29   0.0000       0.359673         9.7872 
  30   0.0000       0.359673         9.7872 
  31   0.0000       0.359673         9.7872 
  32   0.0000       0.546436        14.8693 
  33   0.0000       0.971579        26.4380 
  34   0.0000       0.971579        26.4380 
  35   0.0000       0.971579        26.4380 
  36   0.0000       0.971579        26.4380 
  37   0.0000       0.971579        26.4380 
  38   0.0000       1.316841        35.8331 
  39   0.0000       1.316841        35.8331 
  40   0.0000       1.316841        35.8331 
  41   0.0000       1.571121        42.7524 
  42   0.0000       3.274061        89.0917 
  43   0.0000       3.274061        89.0917 
  44   0.0000       3.274061        89.0917 
  45   0.0000       3.274061        89.0917 
  46   0.0000       3.274061        89.0917 
  47   0.0000       3.689216       100.3887 
  48   0.0000       3.689216       100.3887 
  49   0.0000       3.689216       100.3887 
  50   0.0000       4.248502       115.6076 
  51   0.0000       8.441114       229.6944 
  52   0.0000       8.441114       229.6944 
  53   0.0000       8.441114       229.6944 
  54   0.0000       8.441114       229.6944 
  55   0.0000       8.441114       229.6944 
  56   0.0000       9.642757       262.3928 
  57   0.0000       9.642757       262.3928 
  58   0.0000       9.642757       262.3928 
  59   0.0000      11.398053       310.1568 
  60   0.0000      19.958119       543.0880 
  61   0.0000      19.958119       543.0880 
  62   0.0000      19.958119       543.0880 
  63   0.0000      19.958119       543.0880 
  64   0.0000      19.958119       543.0880 
  65   0.0000      24.624734       670.0731 
  66   0.0000      24.624734       670.0731 
  67   0.0000      24.624734       670.0731 
  68   0.0000      30.493917       829.7817 
  69   0.0000      45.432460      1236.2801 
  70   0.0000      45.432460      1236.2801 
  71   0.0000      45.432460      1236.2801 
  72   0.0000      45.432460      1236.2801 
  73   0.0000      45.432460      1236.2801 
  74   0.0000      61.421609      1671.3669 
  75   0.0000      61.421609      1671.3669 
  76   0.0000      61.421609      1671.3669 
  77   0.0000      80.336847      2186.0767 
  78   0.0000     101.188177      2753.4703 
  79   0.0000     101.188177      2753.4703 
  80   0.0000     101.188177      2753.4703 
  81   0.0000     101.188177      2753.4703 
  82   0.0000     101.188177      2753.4703 
  83   0.0000     148.432064      4039.0418 
  84   0.0000     148.432064      4039.0418 
  85   0.0000     148.432064      4039.0418 
  86   0.0000     205.496391      5591.8411 
  87   0.0000     221.795938      6035.3743 
  88   0.0000     221.795938      6035.3743 
  89   0.0000     221.795938      6035.3743 
  90   0.0000     221.795938      6035.3743 
  91   0.0000     221.795938      6035.3743 
  92   0.0000     344.943212      9386.3820 
  93   0.0000     344.943212      9386.3820 
  94   0.0000     344.943212      9386.3820 
  95   0.0000     478.035953     13008.0196 
  96   0.0000     478.035953     13008.0196 
  97   0.0000     478.035953     13008.0196 
  98   0.0000     478.035953     13008.0196 
  99   0.0000     478.035953     13008.0196 
 100   0.0000     503.538110     13701.9686 
 101   0.0000     770.206333     20958.3798 
 102   0.0000     770.206333     20958.3798 
 103   0.0000     770.206333     20958.3798 
 104   0.0000    1014.707485     27611.5944 
 105   0.0000    1014.707485     27611.5944 
 106   0.0000    1014.707485     27611.5944 
 107   0.0000    1014.707485     27611.5944 
 108   0.0000    1014.707485     27611.5944 
 109   0.0000    1174.289975     31954.0547 
 110   0.0000    1661.716509     45217.6050 
 111   0.0000    1661.716509     45217.6050 
 112   0.0000    1661.716509     45217.6050 
 113   0.0000    2126.142774     57855.2862 
 114   0.0000    2126.142774     57855.2862 
 115   0.0000    2126.142774     57855.2862 
 116   0.0000    2126.142774     57855.2862 
 117   0.0000    2126.142774     57855.2862 
 118   0.0000    2611.825664     71071.3895 
 119   0.0000    3485.922951     94856.7859 
 120   0.0000    3485.922951     94856.7859 
 121   0.0000    3485.922951     94856.7859 
 122   0.0000    4466.022937    121526.6624 
 123   0.0000    4466.022937    121526.6624 
 124   0.0000    4466.022937    121526.6624 
 125   0.0000    4466.022937    121526.6624 
 126   0.0000    4466.022937    121526.6624 
 127   0.0000    5582.181520    151898.8815 
 128   0.0000    7154.310941    194678.6980 
 129   0.0000    7154.310941    194678.6980 
 130   0.0000    7154.310941    194678.6980 
 131   0.0000    9505.223063    258650.2691 
 132   0.0000    9505.223063    258650.2691 
 133   0.0000    9505.223063    258650.2691 
 134   0.0000    9505.223063    258650.2691 
 135   0.0000    9505.223063    258650.2691 
 136   0.0000   11561.187073    314595.8940 
 137   0.0000   14420.195931    392393.4802 
 138   0.0000   14420.195931    392393.4802 
 139   0.0000   14420.195931    392393.4802 
 140   0.0000   23353.952459    635493.3543 
 141   0.0000   28722.544894    781580.1813 
 142   0.0000   28722.544894    781580.1813 
 143   0.0000   28722.544894    781580.1813 
 144   0.0000   46205.531555   1257316.4343 
 145   0.0000   56484.978987   1537034.4196 
 146   0.0000   56484.978987   1537034.4196 
 147   0.0000   56484.978987   1537034.4196 
 148   0.0000   89703.587686   2440958.7169 
 149   0.0000   112226.283442   3053832.4263 
 150   0.0000   112226.283442   3053832.4263 
 151   0.0000   112226.283442   3053832.4263 
 152   0.0000   170981.658851   4652647.4734 
 153   0.0000   219259.317615   5966349.3556 
 154   0.0000   219259.317615   5966349.3556 
 155   0.0000   219259.317615   5966349.3556 
 156   0.0000   319515.753176   8694465.6620 
 157   0.0000   585010.038464   15918932.4495 
 158   0.0000   1044659.374658   28426626.7662 
 159   0.0000   1829975.225071   49796157.4619 
 160   0.0000   3090316.162104   84091777.9142 
 161   0.0000   5348522.426812   145540694.3795 
 162   0.0000   8334081.501915   226781887.0355 

                 SPIN DOWN ORBITALS
  NO   OCC          E(Eh)            E(eV) 
   0   1.0000    -599.142029    -16303.4835 
   1   1.0000     -79.891884     -2173.9687 
   2   1.0000     -70.917689     -1929.7684 
   3   1.0000     -70.917689     -1929.7684 
   4   1.0000     -70.917689     -1929.7684 
   5   1.0000     -12.322888      -335.3228 
   6   1.0000      -9.445108      -257.0144 
   7   1.0000      -9.445108      -257.0144 
   8   1.0000      -9.445108      -257.0144 
   9   1.0000      -4.705262      -128.0367 
  10   1.0000      -4.705262      -128.0367 
  11   1.0000      -4.705262      -128.0367 
  12   1.0000      -4.705262      -128.0367 
  13   1.0000      -4.705262      -128.0367 
  14   1.0000      -1.508063       -41.0365 
  15   1.0000      -0.839720       -22.8499 
  16   1.0000      -0.839720       -22.8499 
  17   1.0000      -0.839720       -22.8499 
  18   1.0000      -0.129802        -3.5321 
  19   0.0000      -0.023271        -0.6332 
  20   0.0000      -0.023271        -0.6332 
  21   0.0000      -0.023271        -0.6332 
  22   0.0000       0.010357         0.2818 
  23   0.0000       0.027450         0.7470 
  24   0.0000       0.027450         0.7470 
  25   0.0000       0.027450         0.7470 
  26   0.0000       0.027450         0.7470 
  27   0.0000       0.027450         0.7470 
  28   0.0000       0.158028         4.3002 
  29   0.0000       0.359673         9.7872 
  30   0.0000       0.359673         9.7872 
  31   0.0000       0.359673         9.7872 
  32   0.0000       0.546436        14.8693 
  33   0.0000       0.971579        26.4380 
  34   0.0000       0.971579        26.4380 
  35   0.0000       0.971579        26.4380 
  36   0.0000       0.971579        26.4380 
  37   0.0000       0.971579        26.4380 
  38   0.0000       1.316841        35.8331 
  39   0.0000       1.316841        35.8331 
  40   0.0000       1.316841        35.8331 
  41   0.0000       1.571121        42.7524 
  42   0.0000       3.274061        89.0917 
  43   0.0000       3.274061        89.0917 
  44   0.0000       3.274061        89.0917 
  45   0.0000       3.274061        89.0917 
  46   0.0000       3.274061        89.0917 
  47   0.0000       3.689216       100.3887 
  48   0.0000       3.689216       100.3887 
  49   0.0000       3.689216       100.3887 
  50   0.0000       4.248502       115.6076 
  51   0.0000       8.441114       229.6944 
  52   0.0000       8.441114       229.6944 
  53   0.0000       8.441114       229.6944 
  54   0.0000       8.441114       229.6944 
  55   0.0000       8.441114       229.6944 
  56   0.0000       9.642757       262.3928 
  57   0.0000       9.642757       262.3928 
  58   0.0000       9.642757       262.3928 
  59   0.0000      11.398053       310.1568 
  60   0.0000      19.958119       543.0880 
  61   0.0000      19.958119       543.0880 
  62   0.0000      19.958119       543.0880 
  63   0.0000      19.958119       543.0880 
  64   0.0000      19.958119       543.0880 
  65   0.0000      24.624734       670.0731 
  66   0.0000      24.624734       670.0731 
  67   0.0000      24.624734       670.0731 
  68   0.0000      30.493917       829.7817 
  69   0.0000      45.432460      1236.2801 
  70   0.0000      45.432460      1236.2801 
  71   0.0000      45.432460      1236.2801 
  72   0.0000      45.432460      1236.2801 
  73   0.0000      45.432460      1236.2801 
  74   0.0000      61.421609      1671.3669 
  75   0.0000      61.421609      1671.3669 
  76   0.0000      61.421609      1671.3669 
  77   0.0000      80.336847      2186.0767 
  78   0.0000     101.188177      2753.4703 
  79   0.0000     101.188177      2753.4703 
  80   0.0000     101.188177      2753.4703 
  81   0.0000     101.188177      2753.4703 
  82   0.0000     101.188177      2753.4703 
  83   0.0000     148.432064      4039.0418 
  84   0.0000     148.432064      4039.0418 
  85   0.0000     148.432064      4039.0418 
  86   0.0000     205.496391      5591.8411 
  87   0.0000     221.795938      6035.3743 
  88   0.0000     221.795938      6035.3743 
  89   0.0000     221.795938      6035.3743 
  90   0.0000     221.795938      6035.3743 
  91   0.0000     221.795938      6035.3743 
  92   0.0000     344.943212      9386.3820 
  93   0.0000     344.943212      9386.3820 
  94   0.0000     344.943212      9386.3820 
  95   0.0000     478.035953     13008.0196 
  96   0.0000     478.035953     13008.0196 
  97   0.0000     478.035953     13008.0196 
  98   0.0000     478.035953     13008.0196 
  99   0.0000     478.035953     13008.0196 
 100   0.0000     503.538110     13701.9686 
 101   0.0000     770.206333     20958.3798 
 102   0.0000     770.206333     20958.3798 
 103   0.0000     770.206333     20958.3798 
 104   0.0000    1014.707485     27611.5944 
 105   0.0000    1014.707485     27611.5944 
 106   0.0000    1014.707485     27611.5944 
 107   0.0000    1014.707485     27611.5944 
 108   0.0000    1014.707485     27611.5944 
 109   0.0000    1174.289975     31954.0547 
 110   0.0000    1661.716509     45217.6050 
 111   0.0000    1661.716509     45217.6050 
 112   0.0000    1661.716509     45217.6050 
 113   0.0000    2126.142774     57855.2862 
 114   0.0000    2126.142774     57855.2862 
 115   0.0000    2126.142774     57855.2862 
 116   0.0000    2126.142774     57855.2862 
 117   0.0000    2126.142774     57855.2862 
 118   0.0000    2611.825664     71071.3895 
 119   0.0000    3485.922951     94856.7859 
 120   0.0000    3485.922951     94856.7859 
 121   0.0000    3485.922951     94856.7859 
 122   0.0000    4466.022937    121526.6624 
 123   0.0000    4466.022937    121526.6624 
 124   0.0000    4466.022937    121526.6624 
 125   0.0000    4466.022937    121526.6624 
 126   0.0000    4466.022937    121526.6624 
 127   0.0000    5582.181520    151898.8815 
 128   0.0000    7154.310941    194678.6980 
 129   0.0000    7154.310941    194678.6980 
 130   0.0000    7154.310941    194678.6980 
 131   0.0000    9505.223063    258650.2691 
 132   0.0000    9505.223063    258650.2691 
 133   0.0000    9505.223063    258650.2691 
 134   0.0000    9505.223063    258650.2691 
 135   0.0000    9505.223063    258650.2691 
 136   0.0000   11561.187073    314595.8940 
 137   0.0000   14420.195931    392393.4802 
 138   0.0000   14420.195931    392393.4802 
 139   0.0000   14420.195931    392393.4802 
 140   0.0000   23353.952459    635493.3543 
 141   0.0000   28722.544894    781580.1813 
 142   0.0000   28722.544894    781580.1813 
 143   0.0000   28722.544894    781580.1813 
 144   0.0000   46205.531555   1257316.4343 
 145   0.0000   56484.978987   1537034.4196 
 146   0.0000   56484.978987   1537034.4196 
 147   0.0000   56484.978987   1537034.4196 
 148   0.0000   89703.587686   2440958.7169 
 149   0.0000   112226.283442   3053832.4263 
 150   0.0000   112226.283442   3053832.4263 
 151   0.0000   112226.283442   3053832.4263 
 152   0.0000   170981.658851   4652647.4734 
 153   0.0000   219259.317615   5966349.3556 
 154   0.0000   219259.317615   5966349.3556 
 155   0.0000   219259.317615   5966349.3556 
 156   0.0000   319515.753176   8694465.6620 
 157   0.0000   585010.038464   15918932.4495 
 158   0.0000   1044659.374658   28426626.7662 
 159   0.0000   1829975.225071   49796157.4619 
 160   0.0000   3090316.162104   84091777.9142 
 161   0.0000   5348522.426812   145540694.3795 
 162   0.0000   8334081.501915   226781887.0355 

                    ********************************
                    * MULLIKEN POPULATION ANALYSIS *
                    ********************************

--------------------------------------------
MULLIKEN ATOMIC CHARGES AND SPIN POPULATIONS
--------------------------------------------
   0 Sr:    0.000000    0.000000
Sum of atomic charges         :    0.0000000
Sum of atomic spin populations:    0.0000000

-----------------------------------------------------
MULLIKEN REDUCED ORBITAL CHARGES AND SPIN POPULATIONS
-----------------------------------------------------
CHARGE
  0 Srs       :    10.000000  s :    10.000000
      pz      :     6.000000  p :    18.000000
      px      :     6.000000
      py      :     6.000000
      dz2     :     2.000000  d :    10.000000
      dxz     :     2.000000
      dyz     :     2.000000
      dx2y2   :     2.000000
      dxy     :     2.000000

SPIN
  0 Srs       :     0.000000  s :     0.000000
      pz      :     0.000000  p :     0.000000
      px      :     0.000000
      py      :     0.000000
      dz2     :     0.000000  d :     0.000000
      dxz     :     0.000000
      dyz     :     0.000000
      dx2y2   :     0.000000
      dxy     :     0.000000


                     *******************************
                     * LOEWDIN POPULATION ANALYSIS *
                     *******************************

-------------------------------------------
LOEWDIN ATOMIC CHARGES AND SPIN POPULATIONS
-------------------------------------------
   0 Sr:   -0.000000    0.000000

----------------------------------------------------
LOEWDIN REDUCED ORBITAL CHARGES AND SPIN POPULATIONS
----------------------------------------------------
CHARGE
  0 Srs       :    10.000000  s :    10.000000
      pz      :     6.000000  p :    18.000000
      px      :     6.000000
      py      :     6.000000
      dz2     :     2.000000  d :    10.000000
      dxz     :     2.000000
      dyz     :     2.000000
      dx2y2   :     2.000000
      dxy     :     2.000000

SPIN
  0 Srs       :     0.000000  s :     0.000000
      pz      :     0.000000  p :     0.000000
      px      :    -0.000000
      py      :     0.000000
      dz2     :    -0.000000  d :    -0.000000
      dxz     :    -0.000000
      dyz     :    -0.000000
      dx2y2   :     0.000000
      dxy     :     0.000000


                      *****************************
                      * MAYER POPULATION ANALYSIS *
                      *****************************

  NA   - Mulliken gross atomic population
  ZA   - Total nuclear charge
  QA   - Mulliken gross atomic charge
  VA   - Mayer's total valence
  BVA  - Mayer's bonded valence
  FA   - Mayer's free valence

  ATOM       NA         ZA         QA         VA         BVA        FA
  0 Sr    38.0000    38.0000     0.0000    -0.0000     0.0000    -0.0000

  Mayer bond orders larger than 0.100000


-------
TIMINGS
-------

Total SCF time: 0 days 0 hours 2 min 51 sec 

Total time                  ....     171.196 sec
Sum of individual times     ....     145.050 sec  ( 84.7%)

Fock matrix formation       ....     119.619 sec  ( 69.9%)
  XC integration            ....      18.603 sec  ( 15.6% of F)
    Basis function eval.    ....       0.020 sec  (  0.1% of XC)
    Density eval.           ....       0.185 sec  (  1.0% of XC)
    XC-Functional eval.     ....       0.133 sec  (  0.7% of XC)
    XC-Potential eval.      ....       0.090 sec  (  0.5% of XC)
Diagonalization             ....       0.082 sec  (  0.0%)
Density matrix formation    ....       0.010 sec  (  0.0%)
Population analysis         ....       1.810 sec  (  1.1%)
Initial guess               ....      14.676 sec  (  8.6%)
Orbital Transformation      ....       0.000 sec  (  0.0%)
Orbital Orthonormalization  ....       0.000 sec  (  0.0%)
DIIS solution               ....       0.024 sec  (  0.0%)
SOSCF solution              ....       4.247 sec  (  2.5%)
Grid generation             ....       4.583 sec  (  2.7%)

Maximum memory used throughout the entire SCF-calculation: 228.9 MB

-------------------------   --------------------
FINAL SINGLE POINT ENERGY     -3215.775307397525
-------------------------   --------------------


                            ***************************************
                            *     ORCA property calculations      *
                            ***************************************

                                    ---------------------
                                    Active property flags
                                    ---------------------
   (+) Dipole Moment


------------------------------------------------------------------------------
                       ORCA ELECTRIC PROPERTIES CALCULATION
------------------------------------------------------------------------------

Dipole Moment Calculation                       ... on
Quadrupole Moment Calculation                   ... off
Polarizability Calculation                      ... off
GBWName                                         ... Sr_ugbs_pbe.gbw
Electron density                                ... Sr_ugbs_pbe.scfp
The origin for moment calculation is the CENTER OF MASS  = ( 0.000000,  0.000000  0.000000)

-------------
DIPOLE MOMENT
-------------
                                X             Y             Z
Electronic contribution:      0.00000       0.00000      -0.00000
Nuclear contribution   :      0.00000       0.00000       0.00000
                        -----------------------------------------
Total Dipole Moment    :      0.00000       0.00000      -0.00000
                        -----------------------------------------
Magnitude (a.u.)       :      0.00000
Magnitude (Debye)      :      0.00000



--------------------
Rotational spectrum 
--------------------
 
Rotational constants in cm-1:     0.000000     0.000000     0.000000 
Rotational constants in MHz :     0.000000     0.000000     0.000000 

 Dipole components along the rotational axes: 
x,y,z [a.u.] :     0.000000     0.000000    -0.000000 
x,y,z [Debye]:     0.000000     0.000000    -0.000000 

 

Timings for individual modules:

Sum of individual times         ...      327.791 sec (=   5.463 min)
GTO integral calculation        ...      113.411 sec (=   1.890 min)  34.6 %
Relativistic integrals          ...       31.404 sec (=   0.523 min)   9.6 %
SCF iterations                  ...      182.976 sec (=   3.050 min)  55.8 %
                             ****ORCA TERMINATED NORMALLY****
TOTAL RUN TIME: 0 days 0 hours 5 minutes 41 seconds 904 msec
