
                                 *****************
                                 * O   R   C   A *
                                 *****************

                                            #,                                       
                                            ###                                      
                                            ####                                     
                                            #####                                    
                                            ######                                   
                                           ########,                                 
                                     ,,################,,,,,                         
                               ,,#################################,,                 
                          ,,##########################################,,             
                       ,#########################################, ''#####,          
                    ,#############################################,,   '####,        
                  ,##################################################,,,,####,       
                ,###########''''           ''''###############################       
              ,#####''   ,,,,##########,,,,          '''####'''          '####       
            ,##' ,,,,###########################,,,                        '##       
           ' ,,###''''                  '''############,,,                           
         ,,##''                                '''############,,,,        ,,,,,,###''
      ,#''                                            '''#######################'''  
     '                                                          ''''####''''         
             ,#######,   #######,   ,#######,      ##                                
            ,#'     '#,  ##    ##  ,#'     '#,    #''#        ######   ,####,        
            ##       ##  ##   ,#'  ##            #'  '#       #        #'  '#        
            ##       ##  #######   ##           ,######,      #####,   #    #        
            '#,     ,#'  ##    ##  '#,     ,#' ,#      #,         ##   #,  ,#        
             '#######'   ##     ##  '#######'  #'      '#     #####' # '####'        



                  #######################################################
                  #                        -***-                        #
                  #          Department of theory and spectroscopy      #
                  #    Directorship and core code : Frank Neese         #
                  #        Max Planck Institute fuer Kohlenforschung    #
                  #                Kaiser Wilhelm Platz 1               #
                  #                 D-45470 Muelheim/Ruhr               #
                  #                      Germany                        #
                  #                                                     #
                  #                  All rights reserved                #
                  #                        -***-                        #
                  #######################################################


                         Program Version 5.0.1 -  RELEASE  -


 With contributions from (in alphabetic order):
   Daniel Aravena         : Magnetic Suceptibility
   Michael Atanasov       : Ab Initio Ligand Field Theory (pilot matlab implementation)
   Alexander A. Auer      : GIAO ZORA, VPT2 properties, NMR spectrum
   Ute Becker             : Parallelization
   Giovanni Bistoni       : ED, misc. LED, open-shell LED, HFLD
   Martin Brehm           : Molecular dynamics
   Dmytro Bykov           : SCF Hessian
   Vijay G. Chilkuri      : MRCI spin determinant printing, contributions to CSF-ICE
   Dipayan Datta          : RHF DLPNO-CCSD density
   Achintya Kumar Dutta   : EOM-CC, STEOM-CC
   Dmitry Ganyushin       : Spin-Orbit,Spin-Spin,Magnetic field MRCI
   Miquel Garcia          : C-PCM and meta-GGA Hessian, CC/C-PCM, Gaussian charge scheme
   Yang Guo               : DLPNO-NEVPT2, F12-NEVPT2, CIM, IAO-localization
   Andreas Hansen         : Spin unrestricted coupled pair/coupled cluster methods
   Benjamin Helmich-Paris : MC-RPA, TRAH-SCF, COSX integrals
   Lee Huntington         : MR-EOM, pCC
   Robert Izsak           : Overlap fitted RIJCOSX, COSX-SCS-MP3, EOM
   Marcus Kettner         : VPT2
   Christian Kollmar      : KDIIS, OOCD, Brueckner-CCSD(T), CCSD density, CASPT2, CASPT2-K
   Simone Kossmann        : Meta GGA functionals, TD-DFT gradient, OOMP2, MP2 Hessian
   Martin Krupicka        : Initial AUTO-CI
   Lucas Lang             : DCDCAS
   Marvin Lechner         : AUTO-CI (C++ implementation), FIC-MRCC
   Dagmar Lenk            : GEPOL surface, SMD
   Dimitrios Liakos       : Extrapolation schemes; Compound Job, initial MDCI parallelization
   Dimitrios Manganas     : Further ROCIS development; embedding schemes
   Dimitrios Pantazis     : SARC Basis sets
   Anastasios Papadopoulos: AUTO-CI, single reference methods and gradients
   Taras Petrenko         : DFT Hessian,TD-DFT gradient, ASA, ECA, R-Raman, ABS, FL, XAS/XES, NRVS
   Peter Pinski           : DLPNO-MP2, DLPNO-MP2 Gradient
   Christoph Reimann      : Effective Core Potentials
   Marius Retegan         : Local ZFS, SOC
   Christoph Riplinger    : Optimizer, TS searches, QM/MM, DLPNO-CCSD(T), (RO)-DLPNO pert. Triples
   Tobias Risthaus        : Range-separated hybrids, TD-DFT gradient, RPA, STAB
   Michael Roemelt        : Original ROCIS implementation
   Masaaki Saitow         : Open-shell DLPNO-CCSD energy and density
   Barbara Sandhoefer     : DKH picture change effects
   Avijit Sen             : IP-ROCIS
   Kantharuban Sivalingam : CASSCF convergence, NEVPT2, FIC-MRCI
   Bernardo de Souza      : ESD, SOC TD-DFT
   Georgi Stoychev        : AutoAux, RI-MP2 NMR, DLPNO-MP2 response
   Willem Van den Heuvel  : Paramagnetic NMR
   Boris Wezisla          : Elementary symmetry handling
   Frank Wennmohs         : Technical directorship


 We gratefully acknowledge several colleagues who have allowed us to
 interface, adapt or use parts of their codes:
   Stefan Grimme, W. Hujo, H. Kruse, P. Pracht,  : VdW corrections, initial TS optimization,
                  C. Bannwarth, S. Ehlert          DFT functionals, gCP, sTDA/sTD-DF
   Ed Valeev, F. Pavosevic, A. Kumar             : LibInt (2-el integral package), F12 methods
   Garnet Chan, S. Sharma, J. Yang, R. Olivares  : DMRG
   Ulf Ekstrom                                   : XCFun DFT Library
   Mihaly Kallay                                 : mrcc  (arbitrary order and MRCC methods)
   Jiri Pittner, Ondrej Demel                    : Mk-CCSD
   Frank Weinhold                                : gennbo (NPA and NBO analysis)
   Christopher J. Cramer and Donald G. Truhlar   : smd solvation model
   Lars Goerigk                                  : TD-DFT with DH, B97 family of functionals
   V. Asgeirsson, H. Jonsson                     : NEB implementation
   FAccTs GmbH                                   : IRC, NEB, NEB-TS, DLPNO-Multilevel, CI-OPT
                                                   MM, QMMM, 2- and 3-layer-ONIOM, Crystal-QMMM,
                                                   LR-CPCM, SF, NACMEs, symmetry and pop. for TD-DFT,
                                                   nearIR, NL-DFT gradient (VV10), updates on ESD,
                                                   ML-optimized integration grids
   S Lehtola, MJT Oliveira, MAL Marques          : LibXC Library
   Liviu Ungur et al                             : ANISO software


 Your calculation uses the libint2 library for the computation of 2-el integrals
 For citations please refer to: http://libint.valeyev.net

 Your ORCA version has been built with support for libXC version: 5.1.0
 For citations please refer to: https://tddft.org/programs/libxc/

 This ORCA versions uses:
   CBLAS   interface :  Fast vector & matrix operations
   LAPACKE interface :  Fast linear algebra routines
   SCALAPACK package :  Parallel linear algebra routines
   Shared memory     :  Shared parallel matrices
   BLAS/LAPACK       :  OpenBLAS 0.3.15  USE64BITINT DYNAMIC_ARCH NO_AFFINITY Haswell SINGLE_THREADED
        Core in use  :  Haswell
   Copyright (c) 2011-2014, The OpenBLAS Project


SCAN-COORDS

Reading of a custom basis requested
Basis file         : Tc_sarc-zora-tzvpp.basis
READING GTO-BASIS: TECHNETIUM
Basis successfully read

================================================================================

----- Orbital basis set information -----
================================================================================
                                        WARNINGS
                       Please study these warnings very carefully!
================================================================================


INFO   : the flag for use of the SHARK integral package has been found!

================================================================================
                                       INPUT FILE
================================================================================
NAME = Tc_sarc-zora-tzvpp_pbe.inp
|  1> !uks pbe nori verytightscf soscf notrah
|  2> 
|  3> %pal
|  4>   nprocs 32
|  5> end
|  6> %coords
|  7>   charge 0
|  8>   mult 6
|  9>   units bohrs
| 10>   coords
| 11>     Tc 0.0 0.0 0.0
| 12>   end
| 13> end
| 14> %basis
| 15>   gtoname "Tc_sarc-zora-tzvpp.basis"
| 16>   delECP Tc
| 17> end
| 18> %rel
| 19>   method zora
| 20>   modelpot 1, 0, 0, 0
| 21>   c 137.035999084
| 22> endd                         ****END OF INPUT****
================================================================================

                       ****************************
                       * Single Point Calculation *
                       ****************************

---------------------------------
CARTESIAN COORDINATES (ANGSTROEM)
---------------------------------
  Tc     0.000000    0.000000    0.000000

----------------------------
CARTESIAN COORDINATES (A.U.)
----------------------------
  NO LB      ZA    FRAG     MASS         X           Y           Z
   0 Tc   43.0000    0    97.000    0.000000    0.000000    0.000000

--------------------------------
INTERNAL COORDINATES (ANGSTROEM)
--------------------------------
 Tc     0   0   0     0.000000000000     0.00000000     0.00000000

---------------------------
INTERNAL COORDINATES (A.U.)
---------------------------
 Tc     0   0   0     0.000000000000     0.00000000     0.00000000

---------------------
BASIS SET INFORMATION
---------------------
There are 1 groups of distinct atoms

 Group   1 Type Tc  : 22s15p10d2f1g contracted to 15s10p6d2f1g pattern {811111111111111/6111111111/511111/11/1}

Atom   0Tc   basis set group =>   1


           ************************************************************
           *        Program running with 32 parallel MPI-processes    *
           *              working on a common directory               *
           ************************************************************
------------------------------------------------------------------------------
                           ORCA GTO INTEGRAL CALCULATION
------------------------------------------------------------------------------
------------------------------------------------------------------------------
                   ___                                                        
                  /   \      - P O W E R E D   B Y -                         
                 /     \                                                     
                 |  |  |   _    _      __       _____    __    __             
                 |  |  |  | |  | |    /  \     |  _  \  |  |  /  |          
                  \  \/   | |  | |   /    \    | | | |  |  | /  /          
                 / \  \   | |__| |  /  /\  \   | |_| |  |  |/  /          
                |  |  |   |  __  | /  /__\  \  |    /   |      \           
                |  |  |   | |  | | |   __   |  |    \   |  |\   \          
                \     /   | |  | | |  |  |  |  | |\  \  |  | \   \       
                 \___/    |_|  |_| |__|  |__|  |_| \__\ |__|  \__/        
                                                                              
                      - O R C A' S   B I G   F R I E N D -                    
                                      &                                       
                       - I N T E G R A L  F E E D E R -                       
                                                                              
 v1 FN, 2020, v2 2021                                                         
------------------------------------------------------------------------------


Reading SHARK input file Tc_sarc-zora-tzvpp_pbe.SHARKINP.tmp ... ok
----------------------
SHARK INTEGRAL PACKAGE
----------------------

Number of atoms                             ...      1
Number of basis functions                   ...     98
Number of shells                            ...     34
Maximum angular momentum                    ...      4
Integral batch strategy                     ... SHARK/LIBINT Hybrid
RI-J (if used) integral strategy            ... SPLIT-RIJ (Revised 2003 algorithm where possible)
Printlevel                                  ...      1
Contraction scheme used                     ... SEGMENTED contraction
Coulomb Range Separation                    ... NOT USED
Exchange Range Separation                   ... NOT USED
Finite Nucleus Model                        ... NOT USED
Auxiliary Coulomb fitting basis             ... NOT available
Auxiliary J/K fitting basis                 ... NOT available
Auxiliary Correlation fitting basis         ... NOT available
Auxiliary 'external' fitting basis          ... NOT available
Integral threshold                          ...     1.000000e-12
Primitive cut-off                           ...     1.000000e-14
Primitive pair pre-selection threshold      ...     1.000000e-14

Calculating pre-screening integrals         ... done ( 12.9 sec) Dimension = 34
Organizing shell pair data                  ... done (  2.5 sec)
Shell pair information
Total number of shell pairs                 ...       595
Shell pairs after pre-screening             ...       595
Total number of primitive shell pairs       ...      1328
Primitive shell pairs kept                  ...      1328
          la=0 lb=0:    120 shell pairs
          la=1 lb=0:    150 shell pairs
          la=1 lb=1:     55 shell pairs
          la=2 lb=0:     90 shell pairs
          la=2 lb=1:     60 shell pairs
          la=2 lb=2:     21 shell pairs
          la=3 lb=0:     30 shell pairs
          la=3 lb=1:     20 shell pairs
          la=3 lb=2:     12 shell pairs
          la=3 lb=3:      3 shell pairs
          la=4 lb=0:     15 shell pairs
          la=4 lb=1:     10 shell pairs
          la=4 lb=2:      6 shell pairs
          la=4 lb=3:      2 shell pairs
          la=4 lb=4:      1 shell pairs

Calculating one electron integrals          ... done (  3.7 sec)
Calculating Nuclear repulsion               ... done (  0.0 sec) ENN=      0.000000000000 Eh

SHARK setup successfully completed in  24.4 seconds

Maximum memory used throughout the entire GTOINT-calculation: 25.8 MB


           ************************************************************
           *        Program running with 32 parallel MPI-processes    *
           *              working on a common directory               *
           ************************************************************
------------------------------------------------------------------------------
                          ORCA RELATIVISTIC HAMILTONIAN
------------------------------------------------------------------------------

Relativistic Method            ... ZORA(MP)
Treatment of potential         ... Van Wuellen
Nucleus model                  ... Point Nucleus
Speed of light used            ... 137.03599908400000


            *************************************************
            *         ZERO ORDER REGULAR APPROXIMATION      *
            *                     ZORA(MP)                  *
            *            Programmed by FN according to      *
            *                   C. van Wuellen              *
            *       J. Chem. Phys. (1998) vol 109, 392-399  *
            *************************************************

Terms included in model potential: +V(e,N)
Basis function cutoff value   ... 1.000000e-12
Loading the fitted atomic densities  (DKH4)  ... done
Calculating the cutoffs                      ... done
Number of fit functions                      ... 28
Setting up the integration grid ... done

Maximum memory used throughout the entire REL-calculation: 10.3 MB


           ************************************************************
           *        Program running with 32 parallel MPI-processes    *
           *              working on a common directory               *
           ************************************************************
-------------------------------------------------------------------------------
                                 ORCA SCF
-------------------------------------------------------------------------------

------------
SCF SETTINGS
------------
Hamiltonian:
 Density Functional     Method          .... DFT(GTOs)
 Exchange Functional    Exchange        .... PBE
   PBE kappa parameter   XKappa         ....  0.804000
   PBE mue parameter    XMuePBE         ....  0.219520
 Correlation Functional Correlation     .... PBE
   PBE beta parameter  CBetaPBE         ....  0.066725
 LDA part of GGA corr.  LDAOpt          .... PW91-LDA
 Gradients option       PostSCFGGA      .... off
   Density functional embedding theory  .... OFF
   NL short-range parameter             ....  6.400000

Relativistic Settings:
 Scalar relativistic method             .... ZORA
 Speed of light used       Velit        ....       137.035999
Orbital energies will be scaled


General Settings:
 Integral files         IntName         .... Tc_sarc-zora-tzvpp_pbe
 Hartree-Fock type      HFTyp           .... UHF
 Total Charge           Charge          ....    0
 Multiplicity           Mult            ....    6
 Number of Electrons    NEL             ....   43
 Basis Dimension        Dim             ....   98
 Nuclear Repulsion      ENuc            ....      0.0000000000 Eh

Convergence Acceleration:
 DIIS                   CNVDIIS         .... on
   Start iteration      DIISMaxIt       ....    12
   Startup error        DIISStart       ....  0.200000
   # of expansion vecs  DIISMaxEq       ....     5
   Bias factor          DIISBfac        ....   1.050
   Max. coefficient     DIISMaxC        ....  10.000
 Trust-Rad. Augm. Hess. CNVTRAH         .... off
 SOSCF                  CNVSOSCF        .... on
   Start iteration      SOSCFMaxIt      ....   150
   Startup grad/error   SOSCFStart      ....  0.003300
 Level Shifting         CNVShift        .... on
   Level shift para.    LevelShift      ....    0.2500
   Turn off err/grad.   ShiftErr        ....    0.0010
 Zerner damping         CNVZerner       .... off
 Static damping         CNVDamp         .... on
   Fraction old density DampFac         ....    0.7000
   Max. Damping (<1)    DampMax         ....    0.9800
   Min. Damping (>=0)   DampMin         ....    0.0000
   Turn off err/grad.   DampErr         ....    0.1000
 Fernandez-Rico         CNVRico         .... off

SCF Procedure:
 Maximum # iterations   MaxIter         ....   125
 SCF integral mode      SCFMode         .... Direct
   Integral package                     .... SHARK and LIBINT hybrid scheme
 Reset frequency        DirectResetFreq ....    20
 Integral Threshold     Thresh          ....  1.000e-12 Eh
 Primitive CutOff       TCut            ....  1.000e-14 Eh

Convergence Tolerance:
 Convergence Check Mode ConvCheckMode   .... Total+1el-Energy
 Convergence forced     ConvForced      .... 0
 Energy Change          TolE            ....  1.000e-09 Eh
 1-El. energy change                    ....  1.000e-06 Eh
 Orbital Gradient       TolG            ....  2.000e-06
 Orbital Rotation angle TolX            ....  2.000e-06
 DIIS Error             TolErr          ....  1.000e-08


Diagonalization of the overlap matrix:
Smallest eigenvalue                        ... 7.218e-04
Time for diagonalization                   ...    0.125 sec
Threshold for overlap eigenvalues          ... 1.000e-08
Number of eigenvalues below threshold      ... 0
Time for construction of square roots      ...    0.346 sec
Total time needed                          ...    0.472 sec

Time for model grid setup =    0.278 sec

------------------------------
INITIAL GUESS: MODEL POTENTIAL
------------------------------
Loading ZORA relativistic densities                ... done
Calculating cut-offs                               ... done
Initializing the effective Hamiltonian             ... done
Setting up the integral package (SHARK)            ... done
Starting the Coulomb interaction                   ... done (   5.5 sec)
Reading the grid                                   ... done
Mapping shells                                     ... done
Starting the XC term evaluation                    ... done (   1.1 sec)
  promolecular density results
     # of electrons  =     42.999970770
     EX              =   -129.672407903
     EC              =     -2.151899865
     EX+EC           =   -131.824307768
Transforming the Hamiltonian                       ... done (   0.1 sec)
Diagonalizing the Hamiltonian                      ... done (   0.1 sec)
Back transforming the eigenvectors                 ... done (   0.0 sec)
Now organizing SCF variables                       ... done
                      ------------------
                      INITIAL GUESS DONE (   7.8 sec)
                      ------------------
-------------------
DFT GRID GENERATION
-------------------

General Integration Accuracy     IntAcc      ... 4.388
Radial Grid Type                 RadialGrid  ... OptM3 with GC (2021)
Angular Grid (max. ang.)         AngularGrid ... 4 (Lebedev-302)
Angular grid pruning method      GridPruning ... 4 (adaptive)
Weight generation scheme         WeightScheme... Becke
Basis function cutoff            BFCut       ... 1.0000e-12
Integration weight cutoff        WCut        ... 1.0000e-14
Angular grids for H and He will be reduced by one unit
Partially contracted basis set               ... off
Rotationally invariant grid construction     ... off

Total number of grid points                  ...    27544
Total number of batches                      ...      431
Average number of points per batch           ...       63
Average number of grid points per atom       ...    27544
Time for grid setup =    0.966 sec

--------------
SCF ITERATIONS
--------------
ITER       Energy         Delta-E        Max-DP      RMS-DP      [F,P]     Damp
               ***  Starting incremental Fock matrix formation  ***
  0  -4346.6396876434   0.000000000000 0.04118870  0.00096887  2.0395992 0.7000
  1  -4346.6673086948  -0.027621051404 0.05342517  0.00086613  1.4103690 0.7000
  2  -4346.6799356092  -0.012626914462 0.04669033  0.00060459  0.9751091 0.7000
  3  -4346.6870117599  -0.007076150672 0.03155911  0.00037370  0.6741008 0.7000
  4  -4346.6919930238  -0.004981263868 0.01854461  0.00021370  0.4661018 0.7000
                      *** Initiating the SOSCF procedure ***
                      *** Re-Reading the Fockian *** 
                      *** Removing any level shift *** 
ITER      Energy       Delta-E        Grad      Rot      Max-DP    RMS-DP
  5  -4346.69552435  -0.0035313308  0.002073  0.002073  0.033852  0.000395
               *** Restarting incremental Fock matrix formation ***
  6  -4346.70367528  -0.0081509298  0.004279  0.009563  0.008065  0.000130
  7  -4346.70366990   0.0000053853  0.002933  0.005435  0.004227  0.000074
  8  -4346.70374019  -0.0000702922  0.000993  0.007941  0.004303  0.000060
  9  -4346.70374977  -0.0000095773  0.000739  0.014835  0.002400  0.000062
 10  -4346.70376109  -0.0000113194  0.000572  0.101344  0.019353  0.000442
 11  -4346.70380653  -0.0000454406  0.000807  0.085158  0.020223  0.000417
 12  -4346.70386998  -0.0000634496  0.001412  0.185793  0.047176  0.000919
 13  -4346.70374361   0.0001263674  0.001550  0.033144  0.006752  0.000149
 14  -4346.70376688  -0.0000232723  0.000519  0.013677  0.002985  0.000072
 15  -4346.70376750  -0.0000006163  0.000157  0.004880  0.000956  0.000022
 16  -4346.70376778  -0.0000002831  0.000047  0.001053  0.000368  0.000006
 17  -4346.70376780  -0.0000000183  0.000008  0.000387  0.000147  0.000003
 18  -4346.70376780   0.0000000006  0.000004  0.000169  0.000049  0.000001
 19  -4346.70376780  -0.0000000005  0.000004  2.065477  0.341896  0.005543
 20  -4346.63220396   0.0715638398  0.122850  2.065343  0.102569  0.001663
 21  -4346.66062340  -0.0284194402  0.037767  1.323340  0.155282  0.003293
 22  -4346.69469409  -0.0340706839  0.037948  0.507711  0.079626  0.002352
 23  -4346.69916427  -0.0044701882  0.022226  0.886516  0.225941  0.004231
 24  -4346.67941588   0.0197483976  0.053443  0.432364  0.183421  0.002963
 25  -4346.70343740  -0.0240215207  0.018353  0.559626  0.095938  0.002336
               *** Restarting incremental Fock matrix formation ***
 26  -4346.70019495   0.0032424505  0.027020  0.911911  0.131372  0.003317
 27  -4346.70429746  -0.0041025118  0.015674  0.102523  0.016275  0.000481
 28  -4346.70467367  -0.0003762160  0.007091  0.226375  0.029486  0.000926
 29  -4346.70482327  -0.0001495962  0.007446  0.082226  0.010911  0.000363
 30  -4346.70490062  -0.0000773458  0.007139  0.014369  0.002731  0.000081
 31  -4346.70492069  -0.0000200713  0.006275  0.029857  0.005546  0.000193
 32  -4346.70494505  -0.0000243636  0.005414  0.021234  0.003450  0.000099
 33  -4346.70495579  -0.0000107426  0.005009  0.017128  0.002683  0.000083
 34  -4346.70496333  -0.0000075405  0.004916  0.015704  0.002141  0.000080
 35  -4346.70497148  -0.0000081450  0.004904  0.044731  0.006463  0.000193
 36  -4346.70499169  -0.0000202129  0.004962  0.086969  0.012712  0.000356
 37  -4346.70502387  -0.0000321768  0.005164  0.065340  0.009222  0.000268
 38  -4346.70504691  -0.0000230427  0.005257  0.008612  0.001877  0.000051
 39  -4346.70507933  -0.0000324174  0.004944  0.022935  0.007937  0.000159
 40  -4346.70518614  -0.0001068104  0.003720  0.042356  0.015880  0.000296
 41  -4346.70534726  -0.0001611229  0.005742  0.092339  0.038058  0.000687
 42  -4346.70564543  -0.0002981716  0.007116  0.071311  0.029956  0.000576
 43  -4346.70589554  -0.0002501073  0.005037  0.034709  0.017948  0.000303
 44  -4346.70606662  -0.0001710794  0.002432  0.059188  0.010589  0.000271
 45  -4346.70613169  -0.0000650695  0.000730  0.051415  0.009896  0.000251
               *** Restarting incremental Fock matrix formation ***
 46  -4346.70615057  -0.0000188823  0.000470  0.031402  0.005999  0.000147
 47  -4346.70615604  -0.0000054721  0.000245  0.019075  0.003643  0.000094
 48  -4346.70615759  -0.0000015419  0.000131  0.008495  0.001622  0.000038
 49  -4346.70615778  -0.0000001916  0.000047  0.001874  0.000345  0.000009
 50  -4346.70615780  -0.0000000199  0.000014  0.000324  0.000066  0.000002
 51  -4346.70615780  -0.0000000013  0.000003  0.000091  0.000019  0.000001
 52  -4346.70615780  -0.0000000001  0.000001  0.000077  0.000015  0.000000
                  ***Gradient check signals convergence***
              ***Rediagonalizing the Fockian in SOSCF/NRSCF***

               *****************************************************
               *                     SUCCESS                       *
               *           SCF CONVERGED AFTER  53 CYCLES          *
               *****************************************************


----------------
TOTAL SCF ENERGY
----------------

Total Energy       :        -4346.70615780 Eh         -118279.88779 eV

Components:
Nuclear Repulsion  :            0.00000000 Eh               0.00000 eV
Electronic Energy  :        -4346.70615780 Eh         -118279.88779 eV
One Electron Energy:        -5973.88080205 Eh         -162557.56089 eV
Two Electron Energy:         1627.17464426 Eh           44277.67310 eV

Virial components:
Potential Energy   :        -8836.93671493 Eh         -240465.27303 eV
Kinetic Energy     :         4490.23055713 Eh          122185.38524 eV
Virial Ratio       :            1.96803630


DFT components:
N(Alpha)           :       24.000000000029 electrons
N(Beta)            :       19.000000000036 electrons
N(Total)           :       43.000000000065 electrons
E(X)               :     -127.374223666858 Eh       
E(C)               :       -2.149118790048 Eh       
E(XC)              :     -129.523342456906 Eh       
DFET-embed. en.    :        0.000000000000 Eh       

---------------
SCF CONVERGENCE
---------------

  Last Energy change         ...   -2.5466e-11  Tolerance :   1.0000e-09
  Last MAX-Density change    ...    6.5439e-06  Tolerance :   1.0000e-08
  Last RMS-Density change    ...    1.7705e-07  Tolerance :   1.0000e-09
  Last Orbital Gradient      ...    4.1793e-07  Tolerance :   2.0000e-06
  Last Orbital Rotation      ...    3.1554e-05  Tolerance :   2.0000e-06

             **** THE GBW FILE WAS UPDATED (Tc_sarc-zora-tzvpp_pbe.gbw) ****
             **** DENSITY Tc_sarc-zora-tzvpp_pbe.scfp WAS UPDATED ****
             **** ENERGY FILE WAS UPDATED (Tc_sarc-zora-tzvpp_pbe.en.tmp) ****
----------------------
UHF SPIN CONTAMINATION
----------------------

Warning: in a DFT calculation there is little theoretical justification to 
         calculate <S**2> as in Hartree-Fock theory. We will do it anyways
         but you should keep in mind that the values have only limited relevance

Expectation value of <S**2>     :     8.757553
Ideal value S*(S+1) for S=2.5   :     8.750000
Deviation                       :     0.007553

             **** THE GBW FILE WAS UPDATED (Tc_sarc-zora-tzvpp_pbe.gbw) ****
             **** DENSITY Tc_sarc-zora-tzvpp_pbe.scfp WAS UPDATED ****
----------------
ORBITAL ENERGIES
----------------
                 SPIN UP ORBITALS
  NO   OCC          E(Eh)            E(eV) 
   0   1.0000    -789.527991    -21484.1489 
   1   1.0000    -110.417904     -3004.6239 
   2   1.0000     -98.716236     -2686.2053 
   3   1.0000     -98.713065     -2686.1191 
   4   1.0000     -98.711240     -2686.0694 
   5   1.0000     -19.094798      -519.5959 
   6   1.0000     -15.284258      -415.9058 
   7   1.0000     -15.277555      -415.7234 
   8   1.0000     -15.276669      -415.6993 
   9   1.0000      -9.127739      -248.3784 
  10   1.0000      -9.127733      -248.3782 
  11   1.0000      -9.126056      -248.3326 
  12   1.0000      -9.123497      -248.2630 
  13   1.0000      -9.118846      -248.1364 
  14   1.0000      -2.669701       -72.6463 
  15   1.0000      -1.653533       -44.9949 
  16   1.0000      -1.640832       -44.6493 
  17   1.0000      -1.620088       -44.0848 
  18   1.0000      -0.242241        -6.5917 
  19   1.0000      -0.241809        -6.5800 
  20   1.0000      -0.224652        -6.1131 
  21   1.0000      -0.222906        -6.0656 
  22   1.0000      -0.210544        -5.7292 
  23   1.0000      -0.175967        -4.7883 
  24   0.0000      -0.053390        -1.4528 
  25   0.0000      -0.053112        -1.4453 
  26   0.0000      -0.037090        -1.0093 
  27   0.0000       0.073864         2.0099 
  28   0.0000       0.074226         2.0198 
  29   0.0000       0.074348         2.0231 
  30   0.0000       0.079594         2.1659 
  31   0.0000       0.079757         2.1703 
  32   0.0000       0.085223         2.3190 
  33   0.0000       0.146599         3.9892 
  34   0.0000       0.146766         3.9937 
  35   0.0000       0.162608         4.4248 
  36   0.0000       0.401803        10.9336 
  37   0.0000       0.401918        10.9367 
  38   0.0000       0.412796        11.2328 
  39   0.0000       0.412989        11.2380 
  40   0.0000       0.422181        11.4881 
  41   0.0000       0.625538        17.0217 
  42   0.0000       0.836980        22.7754 
  43   0.0000       0.839619        22.8472 
  44   0.0000       0.864027        23.5114 
  45   0.0000       0.992513        27.0076 
  46   0.0000       0.992567        27.0091 
  47   0.0000       1.007603        27.4183 
  48   0.0000       1.008159        27.4334 
  49   0.0000       1.028240        27.9798 
  50   0.0000       1.029186        28.0056 
  51   0.0000       1.039204        28.2782 
  52   0.0000       1.672190        45.5026 
  53   0.0000       1.672624        45.5144 
  54   0.0000       1.688140        45.9366 
  55   0.0000       1.689203        45.9655 
  56   0.0000       1.706020        46.4232 
  57   0.0000       2.543360        69.2083 
  58   0.0000       3.496207        95.1366 
  59   0.0000       3.496248        95.1377 
  60   0.0000       3.501427        95.2787 
  61   0.0000       3.501531        95.2815 
  62   0.0000       3.515831        95.6706 
  63   0.0000       3.521012        95.8116 
  64   0.0000       3.526144        95.9513 
  65   0.0000       3.696001       100.5733 
  66   0.0000       3.704271       100.7983 
  67   0.0000       3.728448       101.4562 
  68   0.0000       3.753373       102.1345 
  69   0.0000       3.753389       102.1349 
  70   0.0000       3.761506       102.3558 
  71   0.0000       3.761619       102.3589 
  72   0.0000       3.778396       102.8154 
  73   0.0000       3.778745       102.8249 
  74   0.0000       3.791183       103.1633 
  75   0.0000       3.794629       103.2571 
  76   0.0000       3.798684       103.3675 
  77   0.0000       7.188392       195.6061 
  78   0.0000       7.188757       195.6160 
  79   0.0000       7.195598       195.8022 
  80   0.0000       7.199521       195.9089 
  81   0.0000       7.213843       196.2986 
  82   0.0000       9.812779       267.0193 
  83   0.0000      17.114317       465.7042 
  84   0.0000      17.124163       465.9722 
  85   0.0000      17.131108       466.1612 
  86   0.0000      38.413460      1045.2834 
  87   0.0000      78.054719      2123.9769 
  88   0.0000      78.061115      2124.1509 
  89   0.0000      78.062022      2124.1756 
  90   0.0000     143.625015      3908.2353 
  91   0.0000     350.778636      9545.1720 
  92   0.0000     350.781653      9545.2540 
  93   0.0000     350.782827      9545.2860 
  94   0.0000     484.445703     13182.4378 
  95   0.0000    1475.118824     40140.0239 
  96   0.0000    4162.405757    113264.8189 
  97   0.0000   14876.438166    404808.4626 

                 SPIN DOWN ORBITALS
  NO   OCC          E(Eh)            E(eV) 
   0   1.0000    -789.527999    -21484.1491 
   1   1.0000    -110.400477     -3004.1497 
   2   1.0000     -98.702073     -2685.8199 
   3   1.0000     -98.699860     -2685.7597 
   4   1.0000     -98.699652     -2685.7541 
   5   1.0000     -19.084649      -519.3197 
   6   1.0000     -15.272217      -415.5782 
   7   1.0000     -15.266311      -415.4174 
   8   1.0000     -15.265555      -415.3969 
   9   1.0000      -9.110594      -247.9119 
  10   1.0000      -9.109458      -247.8810 
  11   1.0000      -9.108625      -247.8583 
  12   1.0000      -9.105197      -247.7650 
  13   1.0000      -9.104554      -247.7475 
  14   1.0000      -2.572277       -69.9952 
  15   1.0000      -1.536677       -41.8151 
  16   1.0000      -1.534473       -41.7551 
  17   1.0000      -1.523154       -41.4471 
  18   1.0000      -0.130890        -3.5617 
  19   0.0000      -0.119442        -3.2502 
  20   0.0000      -0.117778        -3.2049 
  21   0.0000      -0.115341        -3.1386 
  22   0.0000      -0.113691        -3.0937 
  23   0.0000      -0.105416        -2.8685 
  24   0.0000      -0.020198        -0.5496 
  25   0.0000      -0.008206        -0.2233 
  26   0.0000      -0.000971        -0.0264 
  27   0.0000       0.094397         2.5687 
  28   0.0000       0.094668         2.5760 
  29   0.0000       0.097311         2.6480 
  30   0.0000       0.103545         2.8176 
  31   0.0000       0.103882         2.8268 
  32   0.0000       0.112016         3.0481 
  33   0.0000       0.184994         5.0339 
  34   0.0000       0.194429         5.2907 
  35   0.0000       0.200957         5.4683 
  36   0.0000       0.456337        12.4176 
  37   0.0000       0.456599        12.4247 
  38   0.0000       0.463838        12.6217 
  39   0.0000       0.472032        12.8447 
  40   0.0000       0.472701        12.8628 
  41   0.0000       0.690568        18.7913 
  42   0.0000       0.916560        24.9409 
  43   0.0000       0.922348        25.0984 
  44   0.0000       0.927650        25.2426 
  45   0.0000       1.126497        30.6535 
  46   0.0000       1.128511        30.7083 
  47   0.0000       1.128806        30.7164 
  48   0.0000       1.130648        30.7665 
  49   0.0000       1.135714        30.9043 
  50   0.0000       1.143389        31.1132 
  51   0.0000       1.144972        31.1563 
  52   0.0000       1.764828        48.0234 
  53   0.0000       1.770749        48.1845 
  54   0.0000       1.771765        48.2122 
  55   0.0000       1.774260        48.2801 
  56   0.0000       1.781706        48.4827 
  57   0.0000       2.639638        71.8282 
  58   0.0000       3.594692        97.8166 
  59   0.0000       3.594789        97.8192 
  60   0.0000       3.604387        98.0804 
  61   0.0000       3.604982        98.0965 
  62   0.0000       3.609821        98.2282 
  63   0.0000       3.610763        98.2539 
  64   0.0000       3.611252        98.2672 
  65   0.0000       3.802090       103.4601 
  66   0.0000       3.805167       103.5439 
  67   0.0000       3.806867       103.5901 
  68   0.0000       3.903035       106.2070 
  69   0.0000       3.903064       106.2078 
  70   0.0000       3.908461       106.3546 
  71   0.0000       3.909845       106.3923 
  72   0.0000       3.912420       106.4624 
  73   0.0000       3.919063       106.6431 
  74   0.0000       3.919147       106.6454 
  75   0.0000       3.921548       106.7108 
  76   0.0000       3.921867       106.7194 
  77   0.0000       7.261092       197.5844 
  78   0.0000       7.262028       197.6098 
  79   0.0000       7.264265       197.6707 
  80   0.0000       7.268582       197.7882 
  81   0.0000       7.274782       197.9569 
  82   0.0000       9.881929       268.9010 
  83   0.0000      17.161697       466.9935 
  84   0.0000      17.167078       467.1399 
  85   0.0000      17.171267       467.2539 
  86   0.0000      38.446659      1046.1868 
  87   0.0000      78.078193      2124.6156 
  88   0.0000      78.082167      2124.7238 
  89   0.0000      78.083162      2124.7508 
  90   0.0000     143.647544      3908.8484 
  91   0.0000     350.790047      9545.4825 
  92   0.0000     350.792062      9545.5373 
  93   0.0000     350.792704      9545.5548 
  94   0.0000     484.459228     13182.8058 
  95   0.0000    1475.123471     40140.1503 
  96   0.0000    4162.407158    113264.8571 
  97   0.0000   14876.439158    404808.4896 

                    ********************************
                    * MULLIKEN POPULATION ANALYSIS *
                    ********************************

--------------------------------------------
MULLIKEN ATOMIC CHARGES AND SPIN POPULATIONS
--------------------------------------------
   0 Tc:    0.000000    5.000000
Sum of atomic charges         :    0.0000000
Sum of atomic spin populations:    5.0000000

-----------------------------------------------------
MULLIKEN REDUCED ORBITAL CHARGES AND SPIN POPULATIONS
-----------------------------------------------------
CHARGE
  0 Tcs       :     9.366591  s :     9.366591
      pz      :     5.999900  p :    17.999832
      px      :     5.999966
      py      :     5.999965
      dz2     :     3.571187  d :    15.633284
      dxz     :     3.011326
      dyz     :     3.008680
      dx2y2   :     3.002853
      dxy     :     3.039238
      f0      :     0.000095  f :     0.000168
      f+1     :     0.000031
      f-1     :     0.000032
      f+2     :     0.000001
      f-2     :     0.000003
      f+3     :     0.000004
      f-3     :     0.000005
      g0      :     0.000051  g :     0.000125
      g+1     :     0.000028
      g-1     :     0.000031
      g+2     :     0.000005
      g-2     :     0.000005
      g+3     :     0.000000
      g-3     :     0.000000
      g+4     :     0.000002
      g-4     :     0.000002

SPIN
  0 Tcs       :     0.634379  s :     0.634379
      pz      :    -0.000086  p :    -0.000101
      px      :    -0.000004
      py      :    -0.000011
      dz2     :     0.427751  d :     4.365503
      dxz     :     0.988603
      dyz     :     0.991245
      dx2y2   :     0.997136
      dxy     :     0.960767
      f0      :     0.000083  f :     0.000101
      f+1     :     0.000002
      f-1     :     0.000009
      f+2     :     0.000000
      f-2     :    -0.000001
      f+3     :     0.000003
      f-3     :     0.000004
      g0      :     0.000046  g :     0.000118
      g+1     :     0.000028
      g-1     :     0.000031
      g+2     :     0.000005
      g-2     :     0.000005
      g+3     :     0.000000
      g-3     :     0.000000
      g+4     :     0.000002
      g-4     :     0.000002


                     *******************************
                     * LOEWDIN POPULATION ANALYSIS *
                     *******************************

-------------------------------------------
LOEWDIN ATOMIC CHARGES AND SPIN POPULATIONS
-------------------------------------------
   0 Tc:   -0.000000    5.000000

----------------------------------------------------
LOEWDIN REDUCED ORBITAL CHARGES AND SPIN POPULATIONS
----------------------------------------------------
CHARGE
  0 Tcs       :     9.366591  s :     9.366591
      pz      :     5.999900  p :    17.999832
      px      :     5.999966
      py      :     5.999965
      dz2     :     3.571187  d :    15.633284
      dxz     :     3.011326
      dyz     :     3.008680
      dx2y2   :     3.002853
      dxy     :     3.039238
      f0      :     0.000095  f :     0.000168
      f+1     :     0.000031
      f-1     :     0.000032
      f+2     :     0.000001
      f-2     :     0.000003
      f+3     :     0.000004
      f-3     :     0.000005
      g0      :     0.000051  g :     0.000125
      g+1     :     0.000028
      g-1     :     0.000031
      g+2     :     0.000005
      g-2     :     0.000005
      g+3     :     0.000000
      g-3     :     0.000000
      g+4     :     0.000002
      g-4     :     0.000002

SPIN
  0 Tcs       :     0.634379  s :     0.634379
      pz      :    -0.000086  p :    -0.000101
      px      :    -0.000004
      py      :    -0.000011
      dz2     :     0.427751  d :     4.365503
      dxz     :     0.988603
      dyz     :     0.991245
      dx2y2   :     0.997136
      dxy     :     0.960767
      f0      :     0.000083  f :     0.000101
      f+1     :     0.000002
      f-1     :     0.000009
      f+2     :     0.000000
      f-2     :    -0.000001
      f+3     :     0.000003
      f-3     :     0.000004
      g0      :     0.000046  g :     0.000118
      g+1     :     0.000028
      g-1     :     0.000031
      g+2     :     0.000005
      g-2     :     0.000005
      g+3     :     0.000000
      g-3     :     0.000000
      g+4     :     0.000002
      g-4     :     0.000002


                      *****************************
                      * MAYER POPULATION ANALYSIS *
                      *****************************

  NA   - Mulliken gross atomic population
  ZA   - Total nuclear charge
  QA   - Mulliken gross atomic charge
  VA   - Mayer's total valence
  BVA  - Mayer's bonded valence
  FA   - Mayer's free valence

  ATOM       NA         ZA         QA         VA         BVA        FA
  0 Tc    43.0000    43.0000    -0.0000     5.0151     0.0000     5.0151

  Mayer bond orders larger than 0.100000


-------
TIMINGS
-------

Total SCF time: 0 days 0 hours 9 min 38 sec 

Total time                  ....     578.473 sec
Sum of individual times     ....     569.259 sec  ( 98.4%)

Fock matrix formation       ....     559.491 sec  ( 96.7%)
  XC integration            ....      63.066 sec  ( 11.3% of F)
    Basis function eval.    ....       0.102 sec  (  0.2% of XC)
    Density eval.           ....       0.233 sec  (  0.4% of XC)
    XC-Functional eval.     ....       0.226 sec  (  0.4% of XC)
    XC-Potential eval.      ....       0.178 sec  (  0.3% of XC)
Diagonalization             ....       0.127 sec  (  0.0%)
Density matrix formation    ....       0.013 sec  (  0.0%)
Population analysis         ....       0.438 sec  (  0.1%)
Initial guess               ....       7.543 sec  (  1.3%)
Orbital Transformation      ....       0.000 sec  (  0.0%)
Orbital Orthonormalization  ....       0.000 sec  (  0.0%)
DIIS solution               ....       0.033 sec  (  0.0%)
SOSCF solution              ....       0.371 sec  (  0.1%)
Grid generation             ....       1.244 sec  (  0.2%)

Maximum memory used throughout the entire SCF-calculation: 229.7 MB

-------------------------   --------------------
FINAL SINGLE POINT ENERGY     -4346.706157798861
-------------------------   --------------------


                            ***************************************
                            *     ORCA property calculations      *
                            ***************************************

                                    ---------------------
                                    Active property flags
                                    ---------------------
   (+) Dipole Moment


------------------------------------------------------------------------------
                       ORCA ELECTRIC PROPERTIES CALCULATION
------------------------------------------------------------------------------

Dipole Moment Calculation                       ... on
Quadrupole Moment Calculation                   ... off
Polarizability Calculation                      ... off
GBWName                                         ... Tc_sarc-zora-tzvpp_pbe.gbw
Electron density                                ... Tc_sarc-zora-tzvpp_pbe.scfp
The origin for moment calculation is the CENTER OF MASS  = ( 0.000000,  0.000000  0.000000)

-------------
DIPOLE MOMENT
-------------
                                X             Y             Z
Electronic contribution:     -0.00000       0.00000      -0.00000
Nuclear contribution   :      0.00000       0.00000       0.00000
                        -----------------------------------------
Total Dipole Moment    :     -0.00000       0.00000      -0.00000
                        -----------------------------------------
Magnitude (a.u.)       :      0.00000
Magnitude (Debye)      :      0.00000



--------------------
Rotational spectrum 
--------------------
 
Rotational constants in cm-1:     0.000000     0.000000     0.000000 
Rotational constants in MHz :     0.000000     0.000000     0.000000 

 Dipole components along the rotational axes: 
x,y,z [a.u.] :    -0.000000     0.000000    -0.000000 
x,y,z [Debye]:    -0.000000     0.000000    -0.000000 

 

Timings for individual modules:

Sum of individual times         ...      678.418 sec (=  11.307 min)
GTO integral calculation        ...       81.047 sec (=   1.351 min)  11.9 %
Relativistic integrals          ...       15.245 sec (=   0.254 min)   2.2 %
SCF iterations                  ...      582.126 sec (=   9.702 min)  85.8 %
                             ****ORCA TERMINATED NORMALLY****
TOTAL RUN TIME: 0 days 0 hours 11 minutes 22 seconds 922 msec
