
                                 *****************
                                 * O   R   C   A *
                                 *****************

                                            #,                                       
                                            ###                                      
                                            ####                                     
                                            #####                                    
                                            ######                                   
                                           ########,                                 
                                     ,,################,,,,,                         
                               ,,#################################,,                 
                          ,,##########################################,,             
                       ,#########################################, ''#####,          
                    ,#############################################,,   '####,        
                  ,##################################################,,,,####,       
                ,###########''''           ''''###############################       
              ,#####''   ,,,,##########,,,,          '''####'''          '####       
            ,##' ,,,,###########################,,,                        '##       
           ' ,,###''''                  '''############,,,                           
         ,,##''                                '''############,,,,        ,,,,,,###''
      ,#''                                            '''#######################'''  
     '                                                          ''''####''''         
             ,#######,   #######,   ,#######,      ##                                
            ,#'     '#,  ##    ##  ,#'     '#,    #''#        ######   ,####,        
            ##       ##  ##   ,#'  ##            #'  '#       #        #'  '#        
            ##       ##  #######   ##           ,######,      #####,   #    #        
            '#,     ,#'  ##    ##  '#,     ,#' ,#      #,         ##   #,  ,#        
             '#######'   ##     ##  '#######'  #'      '#     #####' # '####'        



                  #######################################################
                  #                        -***-                        #
                  #          Department of theory and spectroscopy      #
                  #    Directorship and core code : Frank Neese         #
                  #        Max Planck Institute fuer Kohlenforschung    #
                  #                Kaiser Wilhelm Platz 1               #
                  #                 D-45470 Muelheim/Ruhr               #
                  #                      Germany                        #
                  #                                                     #
                  #                  All rights reserved                #
                  #                        -***-                        #
                  #######################################################


                         Program Version 5.0.1 -  RELEASE  -


 With contributions from (in alphabetic order):
   Daniel Aravena         : Magnetic Suceptibility
   Michael Atanasov       : Ab Initio Ligand Field Theory (pilot matlab implementation)
   Alexander A. Auer      : GIAO ZORA, VPT2 properties, NMR spectrum
   Ute Becker             : Parallelization
   Giovanni Bistoni       : ED, misc. LED, open-shell LED, HFLD
   Martin Brehm           : Molecular dynamics
   Dmytro Bykov           : SCF Hessian
   Vijay G. Chilkuri      : MRCI spin determinant printing, contributions to CSF-ICE
   Dipayan Datta          : RHF DLPNO-CCSD density
   Achintya Kumar Dutta   : EOM-CC, STEOM-CC
   Dmitry Ganyushin       : Spin-Orbit,Spin-Spin,Magnetic field MRCI
   Miquel Garcia          : C-PCM and meta-GGA Hessian, CC/C-PCM, Gaussian charge scheme
   Yang Guo               : DLPNO-NEVPT2, F12-NEVPT2, CIM, IAO-localization
   Andreas Hansen         : Spin unrestricted coupled pair/coupled cluster methods
   Benjamin Helmich-Paris : MC-RPA, TRAH-SCF, COSX integrals
   Lee Huntington         : MR-EOM, pCC
   Robert Izsak           : Overlap fitted RIJCOSX, COSX-SCS-MP3, EOM
   Marcus Kettner         : VPT2
   Christian Kollmar      : KDIIS, OOCD, Brueckner-CCSD(T), CCSD density, CASPT2, CASPT2-K
   Simone Kossmann        : Meta GGA functionals, TD-DFT gradient, OOMP2, MP2 Hessian
   Martin Krupicka        : Initial AUTO-CI
   Lucas Lang             : DCDCAS
   Marvin Lechner         : AUTO-CI (C++ implementation), FIC-MRCC
   Dagmar Lenk            : GEPOL surface, SMD
   Dimitrios Liakos       : Extrapolation schemes; Compound Job, initial MDCI parallelization
   Dimitrios Manganas     : Further ROCIS development; embedding schemes
   Dimitrios Pantazis     : SARC Basis sets
   Anastasios Papadopoulos: AUTO-CI, single reference methods and gradients
   Taras Petrenko         : DFT Hessian,TD-DFT gradient, ASA, ECA, R-Raman, ABS, FL, XAS/XES, NRVS
   Peter Pinski           : DLPNO-MP2, DLPNO-MP2 Gradient
   Christoph Reimann      : Effective Core Potentials
   Marius Retegan         : Local ZFS, SOC
   Christoph Riplinger    : Optimizer, TS searches, QM/MM, DLPNO-CCSD(T), (RO)-DLPNO pert. Triples
   Tobias Risthaus        : Range-separated hybrids, TD-DFT gradient, RPA, STAB
   Michael Roemelt        : Original ROCIS implementation
   Masaaki Saitow         : Open-shell DLPNO-CCSD energy and density
   Barbara Sandhoefer     : DKH picture change effects
   Avijit Sen             : IP-ROCIS
   Kantharuban Sivalingam : CASSCF convergence, NEVPT2, FIC-MRCI
   Bernardo de Souza      : ESD, SOC TD-DFT
   Georgi Stoychev        : AutoAux, RI-MP2 NMR, DLPNO-MP2 response
   Willem Van den Heuvel  : Paramagnetic NMR
   Boris Wezisla          : Elementary symmetry handling
   Frank Wennmohs         : Technical directorship


 We gratefully acknowledge several colleagues who have allowed us to
 interface, adapt or use parts of their codes:
   Stefan Grimme, W. Hujo, H. Kruse, P. Pracht,  : VdW corrections, initial TS optimization,
                  C. Bannwarth, S. Ehlert          DFT functionals, gCP, sTDA/sTD-DF
   Ed Valeev, F. Pavosevic, A. Kumar             : LibInt (2-el integral package), F12 methods
   Garnet Chan, S. Sharma, J. Yang, R. Olivares  : DMRG
   Ulf Ekstrom                                   : XCFun DFT Library
   Mihaly Kallay                                 : mrcc  (arbitrary order and MRCC methods)
   Jiri Pittner, Ondrej Demel                    : Mk-CCSD
   Frank Weinhold                                : gennbo (NPA and NBO analysis)
   Christopher J. Cramer and Donald G. Truhlar   : smd solvation model
   Lars Goerigk                                  : TD-DFT with DH, B97 family of functionals
   V. Asgeirsson, H. Jonsson                     : NEB implementation
   FAccTs GmbH                                   : IRC, NEB, NEB-TS, DLPNO-Multilevel, CI-OPT
                                                   MM, QMMM, 2- and 3-layer-ONIOM, Crystal-QMMM,
                                                   LR-CPCM, SF, NACMEs, symmetry and pop. for TD-DFT,
                                                   nearIR, NL-DFT gradient (VV10), updates on ESD,
                                                   ML-optimized integration grids
   S Lehtola, MJT Oliveira, MAL Marques          : LibXC Library
   Liviu Ungur et al                             : ANISO software


 Your calculation uses the libint2 library for the computation of 2-el integrals
 For citations please refer to: http://libint.valeyev.net

 Your ORCA version has been built with support for libXC version: 5.1.0
 For citations please refer to: https://tddft.org/programs/libxc/

 This ORCA versions uses:
   CBLAS   interface :  Fast vector & matrix operations
   LAPACKE interface :  Fast linear algebra routines
   SCALAPACK package :  Parallel linear algebra routines
   Shared memory     :  Shared parallel matrices
   BLAS/LAPACK       :  OpenBLAS 0.3.15  USE64BITINT DYNAMIC_ARCH NO_AFFINITY Haswell SINGLE_THREADED
        Core in use  :  Haswell
   Copyright (c) 2011-2014, The OpenBLAS Project


SCAN-COORDS

Reading of a custom basis requested
Basis file         : Te_ano-r3.basis
READING GTO-BASIS: TELLURIUM
Basis successfully read

================================================================================

----- Orbital basis set information -----
================================================================================
                                        WARNINGS
                       Please study these warnings very carefully!
================================================================================


INFO   : the flag for use of the SHARK integral package has been found!

================================================================================
                                       INPUT FILE
================================================================================
NAME = Te_ano-r3_pbe.inp
|  1> !uks pbe nori verytightscf soscf notrah
|  2> 
|  3> %pal
|  4>   nprocs 32
|  5> end
|  6> %coords
|  7>   charge 0
|  8>   mult 3
|  9>   units bohrs
| 10>   coords
| 11>     Te 0.0 0.0 0.0
| 12>   end
| 13> end
| 14> %basis
| 15>   gtoname "Te_ano-r3.basis"
| 16>   delECP Te
| 17> end
| 18> %rel
| 19>   method zora
| 20>   modelpot 1, 0, 0, 0
| 21>   c 137.035999084
| 22> endd                         ****END OF INPUT****
================================================================================

                       ****************************
                       * Single Point Calculation *
                       ****************************

---------------------------------
CARTESIAN COORDINATES (ANGSTROEM)
---------------------------------
  Te     0.000000    0.000000    0.000000

----------------------------
CARTESIAN COORDINATES (A.U.)
----------------------------
  NO LB      ZA    FRAG     MASS         X           Y           Z
   0 Te   52.0000    0   127.600    0.000000    0.000000    0.000000

--------------------------------
INTERNAL COORDINATES (ANGSTROEM)
--------------------------------
 Te     0   0   0     0.000000000000     0.00000000     0.00000000

---------------------------
INTERNAL COORDINATES (A.U.)
---------------------------
 Te     0   0   0     0.000000000000     0.00000000     0.00000000

---------------------
BASIS SET INFORMATION
---------------------
There are 1 groups of distinct atoms

 Group   1 Type Te  : 184s126p60d24f15g3h contracted to 8s7p5d4f3g1h pattern {2323232323232323/18181818181818/1212121212/6666/555/3}

Atom   0Te   basis set group =>   1


           ************************************************************
           *        Program running with 32 parallel MPI-processes    *
           *              working on a common directory               *
           ************************************************************
------------------------------------------------------------------------------
                           ORCA GTO INTEGRAL CALCULATION
------------------------------------------------------------------------------
------------------------------------------------------------------------------
                   ___                                                        
                  /   \      - P O W E R E D   B Y -                         
                 /     \                                                     
                 |  |  |   _    _      __       _____    __    __             
                 |  |  |  | |  | |    /  \     |  _  \  |  |  /  |          
                  \  \/   | |  | |   /    \    | | | |  |  | /  /          
                 / \  \   | |__| |  /  /\  \   | |_| |  |  |/  /          
                |  |  |   |  __  | /  /__\  \  |    /   |      \           
                |  |  |   | |  | | |   __   |  |    \   |  |\   \          
                \     /   | |  | | |  |  |  |  | |\  \  |  | \   \       
                 \___/    |_|  |_| |__|  |__|  |_| \__\ |__|  \__/        
                                                                              
                      - O R C A' S   B I G   F R I E N D -                    
                                      &                                       
                       - I N T E G R A L  F E E D E R -                       
                                                                              
 v1 FN, 2020, v2 2021                                                         
------------------------------------------------------------------------------


Reading SHARK input file Te_ano-r3_pbe.SHARKINP.tmp ... ok
----------------------
SHARK INTEGRAL PACKAGE
----------------------

Number of atoms                             ...      1
Number of basis functions                   ...    120
Number of shells                            ...     28
Maximum angular momentum                    ...      5
Integral batch strategy                     ... SHARK/LIBINT Hybrid
RI-J (if used) integral strategy            ... SPLIT-RIJ (Revised 2003 algorithm where possible)
Printlevel                                  ...      1
Contraction scheme used                     ... SEGMENTED contraction
Coulomb Range Separation                    ... NOT USED
Exchange Range Separation                   ... NOT USED
Finite Nucleus Model                        ... NOT USED
Auxiliary Coulomb fitting basis             ... NOT available
Auxiliary J/K fitting basis                 ... NOT available
Auxiliary Correlation fitting basis         ... NOT available
Auxiliary 'external' fitting basis          ... NOT available
Integral threshold                          ...     1.000000e-12
Primitive cut-off                           ...     1.000000e-14
Primitive pair pre-selection threshold      ...     1.000000e-14

Calculating pre-screening integrals         ... done ( 47.1 sec) Dimension = 28
Organizing shell pair data                  ... done (  1.4 sec)
Shell pair information
Total number of shell pairs                 ...       406
Shell pairs after pre-screening             ...       406
Total number of primitive shell pairs       ...     88596
Primitive shell pairs kept                  ...     88595
          la=0 lb=0:     36 shell pairs
          la=1 lb=0:     56 shell pairs
          la=1 lb=1:     28 shell pairs
          la=2 lb=0:     40 shell pairs
          la=2 lb=1:     35 shell pairs
          la=2 lb=2:     15 shell pairs
          la=3 lb=0:     32 shell pairs
          la=3 lb=1:     28 shell pairs
          la=3 lb=2:     20 shell pairs
          la=3 lb=3:     10 shell pairs
          la=4 lb=0:     24 shell pairs
          la=4 lb=1:     21 shell pairs
          la=4 lb=2:     15 shell pairs
          la=4 lb=3:     12 shell pairs
          la=4 lb=4:      6 shell pairs
          la=5 lb=0:      8 shell pairs
          la=5 lb=1:      7 shell pairs
          la=5 lb=2:      5 shell pairs
          la=5 lb=3:      4 shell pairs
          la=5 lb=4:      3 shell pairs
          la=5 lb=5:      1 shell pairs

Calculating one electron integrals          ... done (  2.2 sec)
Calculating Nuclear repulsion               ... done (  0.0 sec) ENN=      0.000000000000 Eh

SHARK setup successfully completed in  54.0 seconds

Maximum memory used throughout the entire GTOINT-calculation: 386.5 MB


           ************************************************************
           *        Program running with 32 parallel MPI-processes    *
           *              working on a common directory               *
           ************************************************************
------------------------------------------------------------------------------
                          ORCA RELATIVISTIC HAMILTONIAN
------------------------------------------------------------------------------

Relativistic Method            ... ZORA(MP)
Treatment of potential         ... Van Wuellen
Nucleus model                  ... Point Nucleus
Speed of light used            ... 137.03599908400000


            *************************************************
            *         ZERO ORDER REGULAR APPROXIMATION      *
            *                     ZORA(MP)                  *
            *            Programmed by FN according to      *
            *                   C. van Wuellen              *
            *       J. Chem. Phys. (1998) vol 109, 392-399  *
            *************************************************

Terms included in model potential: +V(e,N)
Basis function cutoff value   ... 1.000000e-12
Loading the fitted atomic densities  (DKH4)  ... done
Calculating the cutoffs                      ... done
Number of fit functions                      ... 29
Setting up the integration grid ... done

Maximum memory used throughout the entire REL-calculation: 5.6 MB


           ************************************************************
           *        Program running with 32 parallel MPI-processes    *
           *              working on a common directory               *
           ************************************************************
-------------------------------------------------------------------------------
                                 ORCA SCF
-------------------------------------------------------------------------------

------------
SCF SETTINGS
------------
Hamiltonian:
 Density Functional     Method          .... DFT(GTOs)
 Exchange Functional    Exchange        .... PBE
   PBE kappa parameter   XKappa         ....  0.804000
   PBE mue parameter    XMuePBE         ....  0.219520
 Correlation Functional Correlation     .... PBE
   PBE beta parameter  CBetaPBE         ....  0.066725
 LDA part of GGA corr.  LDAOpt          .... PW91-LDA
 Gradients option       PostSCFGGA      .... off
   Density functional embedding theory  .... OFF
   NL short-range parameter             ....  6.400000

Relativistic Settings:
 Scalar relativistic method             .... ZORA
 Speed of light used       Velit        ....       137.035999
Orbital energies will be scaled


General Settings:
 Integral files         IntName         .... Te_ano-r3_pbe
 Hartree-Fock type      HFTyp           .... UHF
 Total Charge           Charge          ....    0
 Multiplicity           Mult            ....    3
 Number of Electrons    NEL             ....   52
 Basis Dimension        Dim             ....  120
 Nuclear Repulsion      ENuc            ....      0.0000000000 Eh

Convergence Acceleration:
 DIIS                   CNVDIIS         .... on
   Start iteration      DIISMaxIt       ....    12
   Startup error        DIISStart       ....  0.200000
   # of expansion vecs  DIISMaxEq       ....     5
   Bias factor          DIISBfac        ....   1.050
   Max. coefficient     DIISMaxC        ....  10.000
 Trust-Rad. Augm. Hess. CNVTRAH         .... off
 SOSCF                  CNVSOSCF        .... on
   Start iteration      SOSCFMaxIt      ....   150
   Startup grad/error   SOSCFStart      ....  0.003300
 Level Shifting         CNVShift        .... on
   Level shift para.    LevelShift      ....    0.2500
   Turn off err/grad.   ShiftErr        ....    0.0010
 Zerner damping         CNVZerner       .... off
 Static damping         CNVDamp         .... on
   Fraction old density DampFac         ....    0.7000
   Max. Damping (<1)    DampMax         ....    0.9800
   Min. Damping (>=0)   DampMin         ....    0.0000
   Turn off err/grad.   DampErr         ....    0.1000
 Fernandez-Rico         CNVRico         .... off

SCF Procedure:
 Maximum # iterations   MaxIter         ....   125
 SCF integral mode      SCFMode         .... Direct
   Integral package                     .... SHARK and LIBINT hybrid scheme
 Reset frequency        DirectResetFreq ....    20
 Integral Threshold     Thresh          ....  1.000e-12 Eh
 Primitive CutOff       TCut            ....  1.000e-14 Eh

Convergence Tolerance:
 Convergence Check Mode ConvCheckMode   .... Total+1el-Energy
 Convergence forced     ConvForced      .... 0
 Energy Change          TolE            ....  1.000e-09 Eh
 1-El. energy change                    ....  1.000e-06 Eh
 Orbital Gradient       TolG            ....  2.000e-06
 Orbital Rotation angle TolX            ....  2.000e-06
 DIIS Error             TolErr          ....  1.000e-08


Diagonalization of the overlap matrix:
Smallest eigenvalue                        ... 1.000e+00
Time for diagonalization                   ...    0.187 sec
Threshold for overlap eigenvalues          ... 1.000e-08
Number of eigenvalues below threshold      ... 0
Time for construction of square roots      ...    0.378 sec
Total time needed                          ...    0.566 sec

Time for model grid setup =    0.090 sec

------------------------------
INITIAL GUESS: MODEL POTENTIAL
------------------------------
Loading ZORA relativistic densities                ... done
Calculating cut-offs                               ... done
Initializing the effective Hamiltonian             ... done
Setting up the integral package (SHARK)            ... done
Starting the Coulomb interaction                   ... done (   1.3 sec)
Reading the grid                                   ... done
Mapping shells                                     ... done
Starting the XC term evaluation                    ... done (   0.0 sec)
  promolecular density results
     # of electrons  =     52.000403147
     EX              =   -182.082590942
     EC              =     -2.766003273
     EX+EC           =   -184.848594215
Transforming the Hamiltonian                       ... done (   0.0 sec)
Diagonalizing the Hamiltonian                      ... done (   0.0 sec)
Back transforming the eigenvectors                 ... done (   0.0 sec)
Now organizing SCF variables                       ... done
                      ------------------
                      INITIAL GUESS DONE (   1.8 sec)
                      ------------------
-------------------
DFT GRID GENERATION
-------------------

General Integration Accuracy     IntAcc      ... 4.388
Radial Grid Type                 RadialGrid  ... OptM3 with GC (2021)
Angular Grid (max. ang.)         AngularGrid ... 4 (Lebedev-302)
Angular grid pruning method      GridPruning ... 4 (adaptive)
Weight generation scheme         WeightScheme... Becke
Basis function cutoff            BFCut       ... 1.0000e-12
Integration weight cutoff        WCut        ... 1.0000e-14
Angular grids for H and He will be reduced by one unit
Partially contracted basis set               ... off
Rotationally invariant grid construction     ... off

Total number of grid points                  ...    13826
Total number of batches                      ...      217
Average number of points per batch           ...       63
Average number of grid points per atom       ...    13826
Time for grid setup =    0.182 sec

--------------
SCF ITERATIONS
--------------
ITER       Energy         Delta-E        Max-DP      RMS-DP      [F,P]     Damp
               ***  Starting incremental Fock matrix formation  ***
  0  -6914.4574634522   0.000000000000 0.01218986  0.00022279  0.3957521 0.7000
  1  -6914.4750897194  -0.017626267194 0.01018118  0.00014763  0.2694817 0.7000
                               ***Turning on DIIS***
  2  -6914.4841460170  -0.009056297559 0.00634130  0.00008748  0.1860974 0.7000
  3  -6914.4898750013  -0.005728984341 0.00284017  0.00005261  0.1303474 0.7000
  4  -6914.4937507618  -0.003875760430 0.00666771  0.00012217  0.0912068 0.0000
                      *** Initiating the SOSCF procedure ***
                           *** Shutting down DIIS ***
                      *** Re-Reading the Fockian *** 
                      *** Removing any level shift *** 
ITER      Energy       Delta-E        Grad      Rot      Max-DP    RMS-DP
  5  -6914.50278711  -0.0090363488  0.000683  0.000683  0.000678  0.000011
               *** Restarting incremental Fock matrix formation ***
  6  -6914.50278979  -0.0000026746  0.000499  0.000626  0.000639  0.000008
  7  -6914.50278978   0.0000000033  0.000502  0.000249  0.000259  0.000004
  8  -6914.50279115  -0.0000013722  0.000013  0.000028  0.000028  0.000000
  9  -6914.50279116  -0.0000000014  0.000005  0.000006  0.000006  0.000000
 10  -6914.50279116  -0.0000000001  0.000001  0.000000  0.000000  0.000000
                  ***Gradient check signals convergence***
              ***Rediagonalizing the Fockian in SOSCF/NRSCF***

               *****************************************************
               *                     SUCCESS                       *
               *           SCF CONVERGED AFTER  11 CYCLES          *
               *****************************************************


----------------
TOTAL SCF ENERGY
----------------

Total Energy       :        -6914.50279116 Eh         -188153.18647 eV

Components:
Nuclear Repulsion  :            0.00000000 Eh               0.00000 eV
Electronic Energy  :        -6914.50279116 Eh         -188153.18647 eV
One Electron Energy:        -9448.39804419 Eh         -257103.98170 eV
Two Electron Energy:         2533.89525303 Eh           68950.79523 eV

Virial components:
Potential Energy   :       -14303.33459358 Eh         -389213.52152 eV
Kinetic Energy     :         7388.83180243 Eh          201060.33505 eV
Virial Ratio       :            1.93580460


DFT components:
N(Alpha)           :       26.999999999306 electrons
N(Beta)            :       24.999999999247 electrons
N(Total)           :       51.999999998554 electrons
E(X)               :     -174.772615118000 Eh       
E(C)               :       -2.765875769514 Eh       
E(XC)              :     -177.538490887514 Eh       
DFET-embed. en.    :        0.000000000000 Eh       

---------------
SCF CONVERGENCE
---------------

  Last Energy change         ...    2.7285e-12  Tolerance :   1.0000e-09
  Last MAX-Density change    ...    4.0509e-08  Tolerance :   1.0000e-08
  Last RMS-Density change    ...    5.3890e-10  Tolerance :   1.0000e-09
  Last Orbital Gradient      ...    1.5115e-07  Tolerance :   2.0000e-06
  Last Orbital Rotation      ...    4.4673e-08  Tolerance :   2.0000e-06

             **** THE GBW FILE WAS UPDATED (Te_ano-r3_pbe.gbw) ****
             **** DENSITY Te_ano-r3_pbe.scfp WAS UPDATED ****
             **** ENERGY FILE WAS UPDATED (Te_ano-r3_pbe.en.tmp) ****
----------------------
UHF SPIN CONTAMINATION
----------------------

Warning: in a DFT calculation there is little theoretical justification to 
         calculate <S**2> as in Hartree-Fock theory. We will do it anyways
         but you should keep in mind that the values have only limited relevance

Expectation value of <S**2>     :     2.003325
Ideal value S*(S+1) for S=1.0   :     2.000000
Deviation                       :     0.003325

             **** THE GBW FILE WAS UPDATED (Te_ano-r3_pbe.gbw) ****
             **** DENSITY Te_ano-r3_pbe.scfp WAS UPDATED ****
----------------
ORBITAL ENERGIES
----------------
                 SPIN UP ORBITALS
  NO   OCC          E(Eh)            E(eV) 
   0   1.0000   -1206.240364    -32823.4690 
   1   1.0000    -179.932829     -4896.2212 
   2   1.0000    -162.200154     -4413.6906 
   3   1.0000    -162.200154     -4413.6906 
   4   1.0000    -162.197119     -4413.6080 
   5   1.0000     -35.606246      -968.8952 
   6   1.0000     -29.779673      -810.3461 
   7   1.0000     -29.779673      -810.3461 
   8   1.0000     -29.773166      -810.1690 
   9   1.0000     -20.709067      -563.5224 
  10   1.0000     -20.709067      -563.5224 
  11   1.0000     -20.704645      -563.4020 
  12   1.0000     -20.704645      -563.4020 
  13   1.0000     -20.703162      -563.3617 
  14   1.0000      -6.043082      -164.4406 
  15   1.0000      -4.230198      -115.1095 
  16   1.0000      -4.230198      -115.1095 
  17   1.0000      -4.215251      -114.7028 
  18   1.0000      -1.539390       -41.8889 
  19   1.0000      -1.539390       -41.8889 
  20   1.0000      -1.525889       -41.5216 
  21   1.0000      -1.525889       -41.5216 
  22   1.0000      -1.521519       -41.4026 
  23   1.0000      -0.572868       -15.5885 
  24   1.0000      -0.250208        -6.8085 
  25   1.0000      -0.250208        -6.8085 
  26   1.0000      -0.214495        -5.8367 
  27   0.0000      -0.000353        -0.0096 
  28   0.0000       0.139209         3.7881 
  29   0.0000       0.139209         3.7881 
  30   0.0000       0.156213         4.2508 
  31   0.0000       0.175178         4.7668 
  32   0.0000       0.175178         4.7668 
  33   0.0000       0.197861         5.3841 
  34   0.0000       0.197861         5.3841 
  35   0.0000       0.206826         5.6280 
  36   0.0000       0.474018        12.8987 
  37   0.0000       0.474018        12.8987 
  38   0.0000       0.492078        13.3901 
  39   0.0000       0.492078        13.3901 
  40   0.0000       0.504242        13.7211 
  41   0.0000       0.504242        13.7211 
  42   0.0000       0.508354        13.8330 
  43   0.0000       0.541058        14.7229 
  44   0.0000       1.166246        31.7352 
  45   0.0000       1.166246        31.7352 
  46   0.0000       1.180940        32.1350 
  47   0.0000       1.180940        32.1350 
  48   0.0000       1.188850        32.3502 
  49   0.0000       1.188850        32.3502 
  50   0.0000       1.191679        32.4272 
  51   0.0000       1.268172        34.5087 
  52   0.0000       1.268172        34.5087 
  53   0.0000       1.297135        35.2968 
  54   0.0000       1.340403        36.4742 
  55   0.0000       1.340403        36.4742 
  56   0.0000       1.357474        36.9387 
  57   0.0000       1.357474        36.9387 
  58   0.0000       1.370131        37.2832 
  59   0.0000       1.370131        37.2832 
  60   0.0000       1.377907        37.4948 
  61   0.0000       1.377907        37.4948 
  62   0.0000       1.380556        37.5668 
  63   0.0000       1.436545        39.0904 
  64   0.0000       1.436545        39.0904 
  65   0.0000       1.458260        39.6813 
  66   0.0000       1.458260        39.6813 
  67   0.0000       1.466256        39.8988 
  68   0.0000       3.062865        83.3448 
  69   0.0000       3.062865        83.3448 
  70   0.0000       3.077567        83.7449 
  71   0.0000       3.077567        83.7449 
  72   0.0000       3.086633        83.9916 
  73   0.0000       3.086633        83.9916 
  74   0.0000       3.089663        84.0740 
  75   0.0000       4.010705       109.1368 
  76   0.0000       4.072175       110.8095 
  77   0.0000       4.072175       110.8095 
  78   0.0000       4.086287       111.1935 
  79   0.0000       4.086287       111.1935 
  80   0.0000       4.096539       111.4725 
  81   0.0000       4.096539       111.4725 
  82   0.0000       4.102711       111.6405 
  83   0.0000       4.102711       111.6405 
  84   0.0000       4.104781       111.6968 
  85   0.0000       6.031979       164.1385 
  86   0.0000       6.031979       164.1385 
  87   0.0000       6.052332       164.6923 
  88   0.0000       6.735057       183.2702 
  89   0.0000       6.735057       183.2702 
  90   0.0000       6.749154       183.6538 
  91   0.0000       6.749154       183.6538 
  92   0.0000       6.754088       183.7881 
  93   0.0000       7.434243       202.2960 
  94   0.0000       7.434243       202.2960 
  95   0.0000       7.446342       202.6253 
  96   0.0000       7.446342       202.6253 
  97   0.0000       7.453716       202.8259 
  98   0.0000       7.453716       202.8259 
  99   0.0000       7.456178       202.8929 
 100   0.0000       9.203574       250.4420 
 101   0.0000       9.203574       250.4420 
 102   0.0000       9.213478       250.7115 
 103   0.0000       9.213478       250.7115 
 104   0.0000       9.221188       250.9213 
 105   0.0000       9.221188       250.9213 
 106   0.0000       9.226697       251.0712 
 107   0.0000       9.226697       251.0712 
 108   0.0000       9.230003       251.1611 
 109   0.0000       9.230003       251.1611 
 110   0.0000       9.231105       251.1911 
 111   0.0000      10.344066       281.4764 
 112   0.0000      10.344066       281.4764 
 113   0.0000      10.352138       281.6960 
 114   0.0000      10.352138       281.6960 
 115   0.0000      10.357983       281.8551 
 116   0.0000      10.357983       281.8551 
 117   0.0000      10.361504       281.9509 
 118   0.0000      10.361504       281.9509 
 119   0.0000      10.362683       281.9829 

                 SPIN DOWN ORBITALS
  NO   OCC          E(Eh)            E(eV) 
   0   1.0000   -1206.238596    -32823.4209 
   1   1.0000    -179.932056     -4896.2002 
   2   1.0000    -162.198287     -4413.6398 
   3   1.0000    -162.198287     -4413.6398 
   4   1.0000    -162.196424     -4413.5891 
   5   1.0000     -35.604646      -968.8517 
   6   1.0000     -29.777362      -810.2832 
   7   1.0000     -29.777362      -810.2832 
   8   1.0000     -29.772336      -810.1465 
   9   1.0000     -20.706649      -563.4566 
  10   1.0000     -20.706649      -563.4566 
  11   1.0000     -20.703261      -563.3644 
  12   1.0000     -20.703261      -563.3644 
  13   1.0000     -20.702125      -563.3335 
  14   1.0000      -6.039242      -164.3361 
  15   1.0000      -4.224879      -114.9648 
  16   1.0000      -4.224879      -114.9648 
  17   1.0000      -4.213667      -114.6597 
  18   1.0000      -1.528562       -41.5943 
  19   1.0000      -1.528562       -41.5943 
  20   1.0000      -1.520169       -41.3659 
  21   1.0000      -1.520169       -41.3659 
  22   1.0000      -1.516969       -41.2788 
  23   1.0000      -0.523893       -14.2559 
  24   1.0000      -0.194046        -5.2803 
  25   0.0000      -0.185246        -5.0408 
  26   0.0000      -0.185246        -5.0408 
  27   0.0000       0.019619         0.5339 
  28   0.0000       0.165883         4.5139 
  29   0.0000       0.173693         4.7264 
  30   0.0000       0.173693         4.7264 
  31   0.0000       0.234994         6.3945 
  32   0.0000       0.234994         6.3945 
  33   0.0000       0.237007         6.4493 
  34   0.0000       0.245963         6.6930 
  35   0.0000       0.245963         6.6930 
  36   0.0000       0.537923        14.6376 
  37   0.0000       0.537923        14.6376 
  38   0.0000       0.537927        14.6377 
  39   0.0000       0.538856        14.6630 
  40   0.0000       0.538856        14.6630 
  41   0.0000       0.547678        14.9031 
  42   0.0000       0.547678        14.9031 
  43   0.0000       0.574030        15.6202 
  44   0.0000       1.202284        32.7158 
  45   0.0000       1.202284        32.7158 
  46   0.0000       1.203962        32.7615 
  47   0.0000       1.203962        32.7615 
  48   0.0000       1.206870        32.8406 
  49   0.0000       1.206870        32.8406 
  50   0.0000       1.207691        32.8629 
  51   0.0000       1.308454        35.6048 
  52   0.0000       1.309339        35.6289 
  53   0.0000       1.309339        35.6289 
  54   0.0000       1.417255        38.5655 
  55   0.0000       1.417560        38.5738 
  56   0.0000       1.417560        38.5738 
  57   0.0000       1.418004        38.5859 
  58   0.0000       1.418004        38.5859 
  59   0.0000       1.421299        38.6755 
  60   0.0000       1.421299        38.6755 
  61   0.0000       1.430526        38.9266 
  62   0.0000       1.430526        38.9266 
  63   0.0000       1.484093        40.3842 
  64   0.0000       1.484093        40.3842 
  65   0.0000       1.485662        40.4269 
  66   0.0000       1.485662        40.4269 
  67   0.0000       1.486657        40.4540 
  68   0.0000       3.103702        84.4560 
  69   0.0000       3.103702        84.4560 
  70   0.0000       3.103760        84.4576 
  71   0.0000       3.103760        84.4576 
  72   0.0000       3.105793        84.5129 
  73   0.0000       3.105793        84.5129 
  74   0.0000       3.106541        84.5333 
  75   0.0000       4.032679       109.7348 
  76   0.0000       4.109569       111.8271 
  77   0.0000       4.109569       111.8271 
  78   0.0000       4.112933       111.9186 
  79   0.0000       4.112933       111.9186 
  80   0.0000       4.116442       112.0141 
  81   0.0000       4.116442       112.0141 
  82   0.0000       4.118841       112.0794 
  83   0.0000       4.118841       112.0794 
  84   0.0000       4.119692       112.1025 
  85   0.0000       6.052298       164.6914 
  86   0.0000       6.052298       164.6914 
  87   0.0000       6.058615       164.8633 
  88   0.0000       6.757201       183.8728 
  89   0.0000       6.757201       183.8728 
  90   0.0000       6.760735       183.9690 
  91   0.0000       6.760735       183.9690 
  92   0.0000       6.763469       184.0434 
  93   0.0000       7.457620       202.9322 
  94   0.0000       7.457620       202.9322 
  95   0.0000       7.461281       203.0318 
  96   0.0000       7.461281       203.0318 
  97   0.0000       7.464615       203.1225 
  98   0.0000       7.464615       203.1225 
  99   0.0000       7.465754       203.1535 
 100   0.0000       9.224006       250.9980 
 101   0.0000       9.224006       250.9980 
 102   0.0000       9.228879       251.1306 
 103   0.0000       9.228879       251.1306 
 104   0.0000       9.233078       251.2448 
 105   0.0000       9.233078       251.2448 
 106   0.0000       9.236310       251.3328 
 107   0.0000       9.236310       251.3328 
 108   0.0000       9.238294       251.3868 
 109   0.0000       9.238294       251.3868 
 110   0.0000       9.238976       251.4053 
 111   0.0000      10.360170       281.9145 
 112   0.0000      10.360170       281.9145 
 113   0.0000      10.363704       282.0107 
 114   0.0000      10.363704       282.0107 
 115   0.0000      10.366633       282.0904 
 116   0.0000      10.366633       282.0904 
 117   0.0000      10.368506       282.1414 
 118   0.0000      10.368506       282.1414 
 119   0.0000      10.369151       282.1589 

                    ********************************
                    * MULLIKEN POPULATION ANALYSIS *
                    ********************************

--------------------------------------------
MULLIKEN ATOMIC CHARGES AND SPIN POPULATIONS
--------------------------------------------
   0 Te:    0.000000    2.000000
Sum of atomic charges         :    0.0000000
Sum of atomic spin populations:    2.0000000

-----------------------------------------------------
MULLIKEN REDUCED ORBITAL CHARGES AND SPIN POPULATIONS
-----------------------------------------------------
CHARGE
  0 Tes       :     9.999054  s :     9.999054
      pz      :     6.999437  p :    21.997873
      px      :     6.999443
      py      :     7.998994
      dz2     :     4.000230  d :    20.000908
      dxz     :     3.999996
      dyz     :     3.999991
      dx2y2   :     4.000699
      dxy     :     3.999991
      f0      :     0.000211  f :     0.002127
      f+1     :     0.000035
      f-1     :     0.000375
      f+2     :     0.000352
      f-2     :     0.000000
      f+3     :     0.000528
      f-3     :     0.000625
      g0      :     0.000003  g :     0.000039
      g+1     :     0.000001
      g-1     :     0.000005
      g+2     :     0.000005
      g-2     :     0.000001
      g+3     :     0.000004
      g-3     :     0.000004
      g+4     :     0.000009
      g-4     :     0.000008
      h0      :     0.000000  h :     0.000000
      h+1     :     0.000000
      h-1     :     0.000000
      h+2     :     0.000000
      h-2     :     0.000000
      h+3     :     0.000000
      h-3     :     0.000000
      h+4     :     0.000000
      h-4     :     0.000000
      h+5     :     0.000000
      h-5     :     0.000000

SPIN
  0 Tes       :    -0.000801  s :    -0.000801
      pz      :     0.999439  p :     1.997943
      px      :     0.999434
      py      :    -0.000930
      dz2     :     0.000197  d :     0.000777
      dxz     :    -0.000003
      dyz     :    -0.000006
      dx2y2   :     0.000596
      dxy     :    -0.000006
      f0      :     0.000210  f :     0.002057
      f+1     :     0.000035
      f-1     :     0.000351
      f+2     :     0.000350
      f-2     :     0.000000
      f+3     :     0.000526
      f-3     :     0.000585
      g0      :     0.000002  g :     0.000024
      g+1     :     0.000000
      g-1     :     0.000003
      g+2     :     0.000002
      g-2     :     0.000001
      g+3     :     0.000003
      g-3     :     0.000003
      g+4     :     0.000004
      g-4     :     0.000005
      h0      :     0.000000  h :    -0.000000
      h+1     :     0.000000
      h-1     :    -0.000000
      h+2     :     0.000000
      h-2     :     0.000000
      h+3     :     0.000000
      h-3     :    -0.000000
      h+4     :     0.000000
      h-4     :     0.000000
      h+5     :     0.000000
      h-5     :    -0.000000


                     *******************************
                     * LOEWDIN POPULATION ANALYSIS *
                     *******************************

-------------------------------------------
LOEWDIN ATOMIC CHARGES AND SPIN POPULATIONS
-------------------------------------------
   0 Te:   -0.000000    2.000000

----------------------------------------------------
LOEWDIN REDUCED ORBITAL CHARGES AND SPIN POPULATIONS
----------------------------------------------------
CHARGE
  0 Tes       :     9.999054  s :     9.999054
      pz      :     6.999437  p :    21.997873
      px      :     6.999443
      py      :     7.998994
      dz2     :     4.000230  d :    20.000908
      dxz     :     3.999996
      dyz     :     3.999991
      dx2y2   :     4.000699
      dxy     :     3.999991
      f0      :     0.000211  f :     0.002127
      f+1     :     0.000035
      f-1     :     0.000375
      f+2     :     0.000352
      f-2     :     0.000000
      f+3     :     0.000528
      f-3     :     0.000625
      g0      :     0.000003  g :     0.000039
      g+1     :     0.000001
      g-1     :     0.000005
      g+2     :     0.000005
      g-2     :     0.000001
      g+3     :     0.000004
      g-3     :     0.000004
      g+4     :     0.000009
      g-4     :     0.000008
      h0      :     0.000000  h :     0.000000
      h+1     :     0.000000
      h-1     :     0.000000
      h+2     :     0.000000
      h-2     :     0.000000
      h+3     :     0.000000
      h-3     :     0.000000
      h+4     :     0.000000
      h-4     :     0.000000
      h+5     :     0.000000
      h-5     :     0.000000

SPIN
  0 Tes       :    -0.000801  s :    -0.000801
      pz      :     0.999439  p :     1.997943
      px      :     0.999434
      py      :    -0.000930
      dz2     :     0.000197  d :     0.000777
      dxz     :    -0.000003
      dyz     :    -0.000006
      dx2y2   :     0.000596
      dxy     :    -0.000006
      f0      :     0.000210  f :     0.002057
      f+1     :     0.000035
      f-1     :     0.000351
      f+2     :     0.000350
      f-2     :     0.000000
      f+3     :     0.000526
      f-3     :     0.000585
      g0      :     0.000002  g :     0.000024
      g+1     :     0.000000
      g-1     :     0.000003
      g+2     :     0.000002
      g-2     :     0.000001
      g+3     :     0.000003
      g-3     :     0.000003
      g+4     :     0.000004
      g-4     :     0.000005
      h0      :     0.000000  h :    -0.000000
      h+1     :     0.000000
      h-1     :    -0.000000
      h+2     :     0.000000
      h-2     :     0.000000
      h+3     :     0.000000
      h-3     :    -0.000000
      h+4     :     0.000000
      h-4     :     0.000000
      h+5     :     0.000000
      h-5     :    -0.000000


                      *****************************
                      * MAYER POPULATION ANALYSIS *
                      *****************************

  NA   - Mulliken gross atomic population
  ZA   - Total nuclear charge
  QA   - Mulliken gross atomic charge
  VA   - Mayer's total valence
  BVA  - Mayer's bonded valence
  FA   - Mayer's free valence

  ATOM       NA         ZA         QA         VA         BVA        FA
  0 Te    52.0000    52.0000    -0.0000     2.0066     0.0000     2.0066

  Mayer bond orders larger than 0.100000


-------
TIMINGS
-------

Total SCF time: 0 days 0 hours 57 min 27 sec 

Total time                  ....    3447.022 sec
Sum of individual times     ....    3412.985 sec  ( 99.0%)

Fock matrix formation       ....    3410.607 sec  ( 98.9%)
  XC integration            ....      26.148 sec  (  0.8% of F)
    Basis function eval.    ....       0.072 sec  (  0.3% of XC)
    Density eval.           ....       0.472 sec  (  1.8% of XC)
    XC-Functional eval.     ....       0.157 sec  (  0.6% of XC)
    XC-Potential eval.      ....       0.054 sec  (  0.2% of XC)
Diagonalization             ....       0.141 sec  (  0.0%)
Density matrix formation    ....       0.009 sec  (  0.0%)
Population analysis         ....       0.085 sec  (  0.0%)
Initial guess               ....       1.665 sec  (  0.0%)
Orbital Transformation      ....       0.000 sec  (  0.0%)
Orbital Orthonormalization  ....       0.000 sec  (  0.0%)
DIIS solution               ....       0.106 sec  (  0.0%)
SOSCF solution              ....       0.100 sec  (  0.0%)
Grid generation             ....       0.272 sec  (  0.0%)

Maximum memory used throughout the entire SCF-calculation: 270.3 MB

-------------------------   --------------------
FINAL SINGLE POINT ENERGY     -6914.502791155737
-------------------------   --------------------


                            ***************************************
                            *     ORCA property calculations      *
                            ***************************************

                                    ---------------------
                                    Active property flags
                                    ---------------------
   (+) Dipole Moment


------------------------------------------------------------------------------
                       ORCA ELECTRIC PROPERTIES CALCULATION
------------------------------------------------------------------------------

Dipole Moment Calculation                       ... on
Quadrupole Moment Calculation                   ... off
Polarizability Calculation                      ... off
GBWName                                         ... Te_ano-r3_pbe.gbw
Electron density                                ... Te_ano-r3_pbe.scfp
The origin for moment calculation is the CENTER OF MASS  = ( 0.000000,  0.000000  0.000000)

-------------
DIPOLE MOMENT
-------------
                                X             Y             Z
Electronic contribution:      0.00000       0.00000       0.00000
Nuclear contribution   :      0.00000       0.00000       0.00000
                        -----------------------------------------
Total Dipole Moment    :      0.00000       0.00000       0.00000
                        -----------------------------------------
Magnitude (a.u.)       :      0.00000
Magnitude (Debye)      :      0.00000



--------------------
Rotational spectrum 
--------------------
 
Rotational constants in cm-1:     0.000000     0.000000     0.000000 
Rotational constants in MHz :     0.000000     0.000000     0.000000 

 Dipole components along the rotational axes: 
x,y,z [a.u.] :     0.000000     0.000000     0.000000 
x,y,z [Debye]:     0.000000     0.000000     0.000000 

 

Timings for individual modules:

Sum of individual times         ...     3564.935 sec (=  59.416 min)
GTO integral calculation        ...      103.740 sec (=   1.729 min)   2.9 %
Relativistic integrals          ...        7.637 sec (=   0.127 min)   0.2 %
SCF iterations                  ...     3453.559 sec (=  57.559 min)  96.9 %
                             ****ORCA TERMINATED NORMALLY****
TOTAL RUN TIME: 0 days 0 hours 59 minutes 42 seconds 292 msec
