
                                 *****************
                                 * O   R   C   A *
                                 *****************

                                            #,                                       
                                            ###                                      
                                            ####                                     
                                            #####                                    
                                            ######                                   
                                           ########,                                 
                                     ,,################,,,,,                         
                               ,,#################################,,                 
                          ,,##########################################,,             
                       ,#########################################, ''#####,          
                    ,#############################################,,   '####,        
                  ,##################################################,,,,####,       
                ,###########''''           ''''###############################       
              ,#####''   ,,,,##########,,,,          '''####'''          '####       
            ,##' ,,,,###########################,,,                        '##       
           ' ,,###''''                  '''############,,,                           
         ,,##''                                '''############,,,,        ,,,,,,###''
      ,#''                                            '''#######################'''  
     '                                                          ''''####''''         
             ,#######,   #######,   ,#######,      ##                                
            ,#'     '#,  ##    ##  ,#'     '#,    #''#        ######   ,####,        
            ##       ##  ##   ,#'  ##            #'  '#       #        #'  '#        
            ##       ##  #######   ##           ,######,      #####,   #    #        
            '#,     ,#'  ##    ##  '#,     ,#' ,#      #,         ##   #,  ,#        
             '#######'   ##     ##  '#######'  #'      '#     #####' # '####'        



                  #######################################################
                  #                        -***-                        #
                  #          Department of theory and spectroscopy      #
                  #    Directorship and core code : Frank Neese         #
                  #        Max Planck Institute fuer Kohlenforschung    #
                  #                Kaiser Wilhelm Platz 1               #
                  #                 D-45470 Muelheim/Ruhr               #
                  #                      Germany                        #
                  #                                                     #
                  #                  All rights reserved                #
                  #                        -***-                        #
                  #######################################################


                         Program Version 5.0.1 -  RELEASE  -


 With contributions from (in alphabetic order):
   Daniel Aravena         : Magnetic Suceptibility
   Michael Atanasov       : Ab Initio Ligand Field Theory (pilot matlab implementation)
   Alexander A. Auer      : GIAO ZORA, VPT2 properties, NMR spectrum
   Ute Becker             : Parallelization
   Giovanni Bistoni       : ED, misc. LED, open-shell LED, HFLD
   Martin Brehm           : Molecular dynamics
   Dmytro Bykov           : SCF Hessian
   Vijay G. Chilkuri      : MRCI spin determinant printing, contributions to CSF-ICE
   Dipayan Datta          : RHF DLPNO-CCSD density
   Achintya Kumar Dutta   : EOM-CC, STEOM-CC
   Dmitry Ganyushin       : Spin-Orbit,Spin-Spin,Magnetic field MRCI
   Miquel Garcia          : C-PCM and meta-GGA Hessian, CC/C-PCM, Gaussian charge scheme
   Yang Guo               : DLPNO-NEVPT2, F12-NEVPT2, CIM, IAO-localization
   Andreas Hansen         : Spin unrestricted coupled pair/coupled cluster methods
   Benjamin Helmich-Paris : MC-RPA, TRAH-SCF, COSX integrals
   Lee Huntington         : MR-EOM, pCC
   Robert Izsak           : Overlap fitted RIJCOSX, COSX-SCS-MP3, EOM
   Marcus Kettner         : VPT2
   Christian Kollmar      : KDIIS, OOCD, Brueckner-CCSD(T), CCSD density, CASPT2, CASPT2-K
   Simone Kossmann        : Meta GGA functionals, TD-DFT gradient, OOMP2, MP2 Hessian
   Martin Krupicka        : Initial AUTO-CI
   Lucas Lang             : DCDCAS
   Marvin Lechner         : AUTO-CI (C++ implementation), FIC-MRCC
   Dagmar Lenk            : GEPOL surface, SMD
   Dimitrios Liakos       : Extrapolation schemes; Compound Job, initial MDCI parallelization
   Dimitrios Manganas     : Further ROCIS development; embedding schemes
   Dimitrios Pantazis     : SARC Basis sets
   Anastasios Papadopoulos: AUTO-CI, single reference methods and gradients
   Taras Petrenko         : DFT Hessian,TD-DFT gradient, ASA, ECA, R-Raman, ABS, FL, XAS/XES, NRVS
   Peter Pinski           : DLPNO-MP2, DLPNO-MP2 Gradient
   Christoph Reimann      : Effective Core Potentials
   Marius Retegan         : Local ZFS, SOC
   Christoph Riplinger    : Optimizer, TS searches, QM/MM, DLPNO-CCSD(T), (RO)-DLPNO pert. Triples
   Tobias Risthaus        : Range-separated hybrids, TD-DFT gradient, RPA, STAB
   Michael Roemelt        : Original ROCIS implementation
   Masaaki Saitow         : Open-shell DLPNO-CCSD energy and density
   Barbara Sandhoefer     : DKH picture change effects
   Avijit Sen             : IP-ROCIS
   Kantharuban Sivalingam : CASSCF convergence, NEVPT2, FIC-MRCI
   Bernardo de Souza      : ESD, SOC TD-DFT
   Georgi Stoychev        : AutoAux, RI-MP2 NMR, DLPNO-MP2 response
   Willem Van den Heuvel  : Paramagnetic NMR
   Boris Wezisla          : Elementary symmetry handling
   Frank Wennmohs         : Technical directorship


 We gratefully acknowledge several colleagues who have allowed us to
 interface, adapt or use parts of their codes:
   Stefan Grimme, W. Hujo, H. Kruse, P. Pracht,  : VdW corrections, initial TS optimization,
                  C. Bannwarth, S. Ehlert          DFT functionals, gCP, sTDA/sTD-DF
   Ed Valeev, F. Pavosevic, A. Kumar             : LibInt (2-el integral package), F12 methods
   Garnet Chan, S. Sharma, J. Yang, R. Olivares  : DMRG
   Ulf Ekstrom                                   : XCFun DFT Library
   Mihaly Kallay                                 : mrcc  (arbitrary order and MRCC methods)
   Jiri Pittner, Ondrej Demel                    : Mk-CCSD
   Frank Weinhold                                : gennbo (NPA and NBO analysis)
   Christopher J. Cramer and Donald G. Truhlar   : smd solvation model
   Lars Goerigk                                  : TD-DFT with DH, B97 family of functionals
   V. Asgeirsson, H. Jonsson                     : NEB implementation
   FAccTs GmbH                                   : IRC, NEB, NEB-TS, DLPNO-Multilevel, CI-OPT
                                                   MM, QMMM, 2- and 3-layer-ONIOM, Crystal-QMMM,
                                                   LR-CPCM, SF, NACMEs, symmetry and pop. for TD-DFT,
                                                   nearIR, NL-DFT gradient (VV10), updates on ESD,
                                                   ML-optimized integration grids
   S Lehtola, MJT Oliveira, MAL Marques          : LibXC Library
   Liviu Ungur et al                             : ANISO software


 Your calculation uses the libint2 library for the computation of 2-el integrals
 For citations please refer to: http://libint.valeyev.net

 Your ORCA version has been built with support for libXC version: 5.1.0
 For citations please refer to: https://tddft.org/programs/libxc/

 This ORCA versions uses:
   CBLAS   interface :  Fast vector & matrix operations
   LAPACKE interface :  Fast linear algebra routines
   SCALAPACK package :  Parallel linear algebra routines
   Shared memory     :  Shared parallel matrices
   BLAS/LAPACK       :  OpenBLAS 0.3.15  USE64BITINT DYNAMIC_ARCH NO_AFFINITY Haswell SINGLE_THREADED
        Core in use  :  Haswell
   Copyright (c) 2011-2014, The OpenBLAS Project


SCAN-COORDS

Reading of a custom basis requested
Basis file         : Te_sarc-zora-tzvpp.basis
READING GTO-BASIS: TELLURIUM
Basis successfully read

================================================================================

----- Orbital basis set information -----
================================================================================
                                        WARNINGS
                       Please study these warnings very carefully!
================================================================================


INFO   : the flag for use of the SHARK integral package has been found!

================================================================================
                                       INPUT FILE
================================================================================
NAME = Te_sarc-zora-tzvpp_pbe.inp
|  1> !uks pbe nori verytightscf soscf notrah
|  2> 
|  3> %pal
|  4>   nprocs 32
|  5> end
|  6> %coords
|  7>   charge 0
|  8>   mult 3
|  9>   units bohrs
| 10>   coords
| 11>     Te 0.0 0.0 0.0
| 12>   end
| 13> end
| 14> %basis
| 15>   gtoname "Te_sarc-zora-tzvpp.basis"
| 16>   delECP Te
| 17> end
| 18> %rel
| 19>   method zora
| 20>   modelpot 1, 0, 0, 0
| 21>   c 137.035999084
| 22> endd                         ****END OF INPUT****
================================================================================

                       ****************************
                       * Single Point Calculation *
                       ****************************

---------------------------------
CARTESIAN COORDINATES (ANGSTROEM)
---------------------------------
  Te     0.000000    0.000000    0.000000

----------------------------
CARTESIAN COORDINATES (A.U.)
----------------------------
  NO LB      ZA    FRAG     MASS         X           Y           Z
   0 Te   52.0000    0   127.600    0.000000    0.000000    0.000000

--------------------------------
INTERNAL COORDINATES (ANGSTROEM)
--------------------------------
 Te     0   0   0     0.000000000000     0.00000000     0.00000000

---------------------------
INTERNAL COORDINATES (A.U.)
---------------------------
 Te     0   0   0     0.000000000000     0.00000000     0.00000000

---------------------
BASIS SET INFORMATION
---------------------
There are 1 groups of distinct atoms

 Group   1 Type Te  : 22s16p9d2f contracted to 15s11p5d2f pattern {811111111111111/61111111111/51111/11}

Atom   0Te   basis set group =>   1


           ************************************************************
           *        Program running with 32 parallel MPI-processes    *
           *              working on a common directory               *
           ************************************************************
------------------------------------------------------------------------------
                           ORCA GTO INTEGRAL CALCULATION
------------------------------------------------------------------------------
------------------------------------------------------------------------------
                   ___                                                        
                  /   \      - P O W E R E D   B Y -                         
                 /     \                                                     
                 |  |  |   _    _      __       _____    __    __             
                 |  |  |  | |  | |    /  \     |  _  \  |  |  /  |          
                  \  \/   | |  | |   /    \    | | | |  |  | /  /          
                 / \  \   | |__| |  /  /\  \   | |_| |  |  |/  /          
                |  |  |   |  __  | /  /__\  \  |    /   |      \           
                |  |  |   | |  | | |   __   |  |    \   |  |\   \          
                \     /   | |  | | |  |  |  |  | |\  \  |  | \   \       
                 \___/    |_|  |_| |__|  |__|  |_| \__\ |__|  \__/        
                                                                              
                      - O R C A' S   B I G   F R I E N D -                    
                                      &                                       
                       - I N T E G R A L  F E E D E R -                       
                                                                              
 v1 FN, 2020, v2 2021                                                         
------------------------------------------------------------------------------


Reading SHARK input file Te_sarc-zora-tzvpp_pbe.SHARKINP.tmp ... ok
----------------------
SHARK INTEGRAL PACKAGE
----------------------

Number of atoms                             ...      1
Number of basis functions                   ...     87
Number of shells                            ...     33
Maximum angular momentum                    ...      3
Integral batch strategy                     ... SHARK/LIBINT Hybrid
RI-J (if used) integral strategy            ... SPLIT-RIJ (Revised 2003 algorithm where possible)
Printlevel                                  ...      1
Contraction scheme used                     ... SEGMENTED contraction
Coulomb Range Separation                    ... NOT USED
Exchange Range Separation                   ... NOT USED
Finite Nucleus Model                        ... NOT USED
Auxiliary Coulomb fitting basis             ... NOT available
Auxiliary J/K fitting basis                 ... NOT available
Auxiliary Correlation fitting basis         ... NOT available
Auxiliary 'external' fitting basis          ... NOT available
Integral threshold                          ...     1.000000e-12
Primitive cut-off                           ...     1.000000e-14
Primitive pair pre-selection threshold      ...     1.000000e-14

Calculating pre-screening integrals         ... done (  7.8 sec) Dimension = 33
Organizing shell pair data                  ... done (  1.1 sec)
Shell pair information
Total number of shell pairs                 ...       561
Shell pairs after pre-screening             ...       561
Total number of primitive shell pairs       ...      1278
Primitive shell pairs kept                  ...      1278
          la=0 lb=0:    120 shell pairs
          la=1 lb=0:    165 shell pairs
          la=1 lb=1:     66 shell pairs
          la=2 lb=0:     75 shell pairs
          la=2 lb=1:     55 shell pairs
          la=2 lb=2:     15 shell pairs
          la=3 lb=0:     30 shell pairs
          la=3 lb=1:     22 shell pairs
          la=3 lb=2:     10 shell pairs
          la=3 lb=3:      3 shell pairs

Calculating one electron integrals          ... done (  1.3 sec)
Calculating Nuclear repulsion               ... done (  0.0 sec) ENN=      0.000000000000 Eh

SHARK setup successfully completed in  14.6 seconds

Maximum memory used throughout the entire GTOINT-calculation: 15.9 MB


           ************************************************************
           *        Program running with 32 parallel MPI-processes    *
           *              working on a common directory               *
           ************************************************************
------------------------------------------------------------------------------
                          ORCA RELATIVISTIC HAMILTONIAN
------------------------------------------------------------------------------

Relativistic Method            ... ZORA(MP)
Treatment of potential         ... Van Wuellen
Nucleus model                  ... Point Nucleus
Speed of light used            ... 137.03599908400000


            *************************************************
            *         ZERO ORDER REGULAR APPROXIMATION      *
            *                     ZORA(MP)                  *
            *            Programmed by FN according to      *
            *                   C. van Wuellen              *
            *       J. Chem. Phys. (1998) vol 109, 392-399  *
            *************************************************

Terms included in model potential: +V(e,N)
Basis function cutoff value   ... 1.000000e-12
Loading the fitted atomic densities  (DKH4)  ... done
Calculating the cutoffs                      ... done
Number of fit functions                      ... 29
Setting up the integration grid ... done

Maximum memory used throughout the entire REL-calculation: 10.3 MB


           ************************************************************
           *        Program running with 32 parallel MPI-processes    *
           *              working on a common directory               *
           ************************************************************
-------------------------------------------------------------------------------
                                 ORCA SCF
-------------------------------------------------------------------------------

------------
SCF SETTINGS
------------
Hamiltonian:
 Density Functional     Method          .... DFT(GTOs)
 Exchange Functional    Exchange        .... PBE
   PBE kappa parameter   XKappa         ....  0.804000
   PBE mue parameter    XMuePBE         ....  0.219520
 Correlation Functional Correlation     .... PBE
   PBE beta parameter  CBetaPBE         ....  0.066725
 LDA part of GGA corr.  LDAOpt          .... PW91-LDA
 Gradients option       PostSCFGGA      .... off
   Density functional embedding theory  .... OFF
   NL short-range parameter             ....  6.400000

Relativistic Settings:
 Scalar relativistic method             .... ZORA
 Speed of light used       Velit        ....       137.035999
Orbital energies will be scaled


General Settings:
 Integral files         IntName         .... Te_sarc-zora-tzvpp_pbe
 Hartree-Fock type      HFTyp           .... UHF
 Total Charge           Charge          ....    0
 Multiplicity           Mult            ....    3
 Number of Electrons    NEL             ....   52
 Basis Dimension        Dim             ....   87
 Nuclear Repulsion      ENuc            ....      0.0000000000 Eh

Convergence Acceleration:
 DIIS                   CNVDIIS         .... on
   Start iteration      DIISMaxIt       ....    12
   Startup error        DIISStart       ....  0.200000
   # of expansion vecs  DIISMaxEq       ....     5
   Bias factor          DIISBfac        ....   1.050
   Max. coefficient     DIISMaxC        ....  10.000
 Trust-Rad. Augm. Hess. CNVTRAH         .... off
 SOSCF                  CNVSOSCF        .... on
   Start iteration      SOSCFMaxIt      ....   150
   Startup grad/error   SOSCFStart      ....  0.003300
 Level Shifting         CNVShift        .... on
   Level shift para.    LevelShift      ....    0.2500
   Turn off err/grad.   ShiftErr        ....    0.0010
 Zerner damping         CNVZerner       .... off
 Static damping         CNVDamp         .... on
   Fraction old density DampFac         ....    0.7000
   Max. Damping (<1)    DampMax         ....    0.9800
   Min. Damping (>=0)   DampMin         ....    0.0000
   Turn off err/grad.   DampErr         ....    0.1000
 Fernandez-Rico         CNVRico         .... off

SCF Procedure:
 Maximum # iterations   MaxIter         ....   125
 SCF integral mode      SCFMode         .... Direct
   Integral package                     .... SHARK and LIBINT hybrid scheme
 Reset frequency        DirectResetFreq ....    20
 Integral Threshold     Thresh          ....  1.000e-12 Eh
 Primitive CutOff       TCut            ....  1.000e-14 Eh

Convergence Tolerance:
 Convergence Check Mode ConvCheckMode   .... Total+1el-Energy
 Convergence forced     ConvForced      .... 0
 Energy Change          TolE            ....  1.000e-09 Eh
 1-El. energy change                    ....  1.000e-06 Eh
 Orbital Gradient       TolG            ....  2.000e-06
 Orbital Rotation angle TolX            ....  2.000e-06
 DIIS Error             TolErr          ....  1.000e-08


Diagonalization of the overlap matrix:
Smallest eigenvalue                        ... 7.224e-04
Time for diagonalization                   ...    0.211 sec
Threshold for overlap eigenvalues          ... 1.000e-08
Number of eigenvalues below threshold      ... 0
Time for construction of square roots      ...    0.422 sec
Total time needed                          ...    0.634 sec

Time for model grid setup =    0.235 sec

------------------------------
INITIAL GUESS: MODEL POTENTIAL
------------------------------
Loading ZORA relativistic densities                ... done
Calculating cut-offs                               ... done
Initializing the effective Hamiltonian             ... done
Setting up the integral package (SHARK)            ... done
Starting the Coulomb interaction                   ... done (   5.5 sec)
Reading the grid                                   ... done
Mapping shells                                     ... done
Starting the XC term evaluation                    ... done (   0.4 sec)
  promolecular density results
     # of electrons  =     52.000406543
     EX              =   -182.084086347
     EC              =     -2.765982231
     EX+EC           =   -184.850068578
Transforming the Hamiltonian                       ... done (   0.1 sec)
Diagonalizing the Hamiltonian                      ... done (   0.1 sec)
Back transforming the eigenvectors                 ... done (   0.1 sec)
Now organizing SCF variables                       ... done
                      ------------------
                      INITIAL GUESS DONE (   7.3 sec)
                      ------------------
-------------------
DFT GRID GENERATION
-------------------

General Integration Accuracy     IntAcc      ... 4.388
Radial Grid Type                 RadialGrid  ... OptM3 with GC (2021)
Angular Grid (max. ang.)         AngularGrid ... 4 (Lebedev-302)
Angular grid pruning method      GridPruning ... 4 (adaptive)
Weight generation scheme         WeightScheme... Becke
Basis function cutoff            BFCut       ... 1.0000e-12
Integration weight cutoff        WCut        ... 1.0000e-14
Angular grids for H and He will be reduced by one unit
Partially contracted basis set               ... off
Rotationally invariant grid construction     ... off

Total number of grid points                  ...    27544
Total number of batches                      ...      431
Average number of points per batch           ...       63
Average number of grid points per atom       ...    27544
Time for grid setup =    0.823 sec

--------------
SCF ITERATIONS
--------------
ITER       Energy         Delta-E        Max-DP      RMS-DP      [F,P]     Damp
               ***  Starting incremental Fock matrix formation  ***
  0  -6931.5429493828   0.000000000000 0.01957587  0.00073046  5.6375996 0.7000
  1  -6931.5790442214  -0.036094838619 0.01158249  0.00041344  3.9034684 0.7000
  2  -6931.5992645950  -0.020220373568 0.00825360  0.00022553  2.7042188 0.7000
  3  -6931.6123711499  -0.013106554903 0.00596558  0.00014451  1.8743766 0.7000
  4  -6931.6213109184  -0.008939768498 0.00433246  0.00010012  1.2996938 0.7000
  5  -6931.6274952779  -0.006184359575 0.00306596  0.00006959  0.9014767 0.7000
                      *** Initiating the SOSCF procedure ***
                      *** Re-Reading the Fockian *** 
                      *** Removing any level shift *** 
ITER      Energy       Delta-E        Grad      Rot      Max-DP    RMS-DP
  6  -6931.63179594  -0.0043006578  0.002584  0.002584  0.006892  0.000160
               *** Restarting incremental Fock matrix formation ***
  7  -6931.64175782  -0.0099618819  0.005645  0.000946  0.001535  0.000034
  8  -6931.64176748  -0.0000096665  0.000849  0.000317  0.000433  0.000011
  9  -6931.64176830  -0.0000008120  0.000150  0.000067  0.000077  0.000002
 10  -6931.64176831  -0.0000000162  0.000036  0.000006  0.000017  0.000000
 11  -6931.64176831  -0.0000000016  0.000005  0.000007  0.000011  0.000000
 12  -6931.64176831  -0.0000000001  0.000006  0.000004  0.000005  0.000000
                  ***Gradient check signals convergence***
              ***Rediagonalizing the Fockian in SOSCF/NRSCF***

               *****************************************************
               *                     SUCCESS                       *
               *           SCF CONVERGED AFTER  13 CYCLES          *
               *****************************************************


----------------
TOTAL SCF ENERGY
----------------

Total Energy       :        -6931.64176831 Eh         -188619.56175 eV

Components:
Nuclear Repulsion  :            0.00000000 Eh               0.00000 eV
Electronic Energy  :        -6931.64176831 Eh         -188619.56175 eV
One Electron Energy:        -9467.09979625 Eh         -257612.88224 eV
Two Electron Energy:         2535.45802794 Eh           68993.32049 eV

Virial components:
Potential Energy   :       -14198.75426326 Eh         -386367.74606 eV
Kinetic Energy     :         7267.11249495 Eh          197748.18431 eV
Virial Ratio       :            1.95383714


DFT components:
N(Alpha)           :       26.999999999997 electrons
N(Beta)            :       24.999999999919 electrons
N(Total)           :       51.999999999916 electrons
E(X)               :     -174.733766376305 Eh       
E(C)               :       -2.766176611642 Eh       
E(XC)              :     -177.499942987947 Eh       
DFET-embed. en.    :        0.000000000000 Eh       

---------------
SCF CONVERGENCE
---------------

  Last Energy change         ...   -1.0550e-10  Tolerance :   1.0000e-09
  Last MAX-Density change    ...    7.6206e-08  Tolerance :   1.0000e-08
  Last RMS-Density change    ...    2.7136e-09  Tolerance :   1.0000e-09
  Last Orbital Gradient      ...    1.2132e-07  Tolerance :   2.0000e-06
  Last Orbital Rotation      ...    1.9864e-07  Tolerance :   2.0000e-06

             **** THE GBW FILE WAS UPDATED (Te_sarc-zora-tzvpp_pbe.gbw) ****
             **** DENSITY Te_sarc-zora-tzvpp_pbe.scfp WAS UPDATED ****
             **** ENERGY FILE WAS UPDATED (Te_sarc-zora-tzvpp_pbe.en.tmp) ****
----------------------
UHF SPIN CONTAMINATION
----------------------

Warning: in a DFT calculation there is little theoretical justification to 
         calculate <S**2> as in Hartree-Fock theory. We will do it anyways
         but you should keep in mind that the values have only limited relevance

Expectation value of <S**2>     :     2.002918
Ideal value S*(S+1) for S=1.0   :     2.000000
Deviation                       :     0.002918

             **** THE GBW FILE WAS UPDATED (Te_sarc-zora-tzvpp_pbe.gbw) ****
             **** DENSITY Te_sarc-zora-tzvpp_pbe.scfp WAS UPDATED ****
----------------
ORBITAL ENERGIES
----------------
                 SPIN UP ORBITALS
  NO   OCC          E(Eh)            E(eV) 
   0   1.0000   -1213.388153    -33017.9703 
   1   1.0000    -180.779547     -4919.2616 
   2   1.0000    -162.076014     -4410.3126 
   3   1.0000    -162.076014     -4410.3126 
   4   1.0000    -162.072859     -4410.2267 
   5   1.0000     -35.798761      -974.1338 
   6   1.0000     -29.778139      -810.3043 
   7   1.0000     -29.778139      -810.3043 
   8   1.0000     -29.771085      -810.1124 
   9   1.0000     -20.701788      -563.3243 
  10   1.0000     -20.701788      -563.3243 
  11   1.0000     -20.697015      -563.1944 
  12   1.0000     -20.697015      -563.1944 
  13   1.0000     -20.695416      -563.1509 
  14   1.0000      -6.092425      -165.7833 
  15   1.0000      -4.236748      -115.2878 
  16   1.0000      -4.236748      -115.2878 
  17   1.0000      -4.220328      -114.8410 
  18   1.0000      -1.536999       -41.8239 
  19   1.0000      -1.536999       -41.8239 
  20   1.0000      -1.522473       -41.4286 
  21   1.0000      -1.522473       -41.4286 
  22   1.0000      -1.517716       -41.2992 
  23   1.0000      -0.578029       -15.7290 
  24   1.0000      -0.250545        -6.8177 
  25   1.0000      -0.250545        -6.8177 
  26   1.0000      -0.214509        -5.8371 
  27   0.0000       0.023705         0.6451 
  28   0.0000       0.023705         0.6451 
  29   0.0000       0.029628         0.8062 
  30   0.0000       0.038829         1.0566 
  31   0.0000       0.227536         6.1916 
  32   0.0000       0.227536         6.1916 
  33   0.0000       0.241448         6.5701 
  34   0.0000       0.258115         7.0237 
  35   0.0000       0.258115         7.0237 
  36   0.0000       0.284685         7.7467 
  37   0.0000       0.284685         7.7467 
  38   0.0000       0.294810         8.0222 
  39   0.0000       0.617560        16.8047 
  40   0.0000       0.617560        16.8047 
  41   0.0000       0.639300        17.3962 
  42   0.0000       0.639300        17.3962 
  43   0.0000       0.653460        17.7816 
  44   0.0000       0.653460        17.7816 
  45   0.0000       0.658268        17.9124 
  46   0.0000       0.689359        18.7584 
  47   0.0000       1.031500        28.0685 
  48   0.0000       1.031500        28.0685 
  49   0.0000       1.059963        28.8431 
  50   0.0000       2.089499        56.8582 
  51   0.0000       2.089499        56.8582 
  52   0.0000       2.111948        57.4690 
  53   0.0000       2.111948        57.4690 
  54   0.0000       2.120094        57.6907 
  55   0.0000       2.664567        72.5065 
  56   0.0000       2.664567        72.5065 
  57   0.0000       2.676572        72.8332 
  58   0.0000       2.676572        72.8332 
  59   0.0000       2.683884        73.0322 
  60   0.0000       2.683884        73.0322 
  61   0.0000       2.686322        73.0985 
  62   0.0000       3.108494        84.5864 
  63   0.0000       4.559128       124.0602 
  64   0.0000       4.559128       124.0602 
  65   0.0000       4.586396       124.8022 
  66   0.0000      10.826710       294.6097 
  67   0.0000      10.826710       294.6097 
  68   0.0000      10.838928       294.9422 
  69   0.0000      10.838928       294.9422 
  70   0.0000      10.843077       295.0551 
  71   0.0000      12.740442       346.6850 
  72   0.0000      22.771343       619.6397 
  73   0.0000      22.771343       619.6397 
  74   0.0000      22.784751       620.0046 
  75   0.0000      53.532769      1456.7007 
  76   0.0000     113.458728      3087.3689 
  77   0.0000     113.458728      3087.3689 
  78   0.0000     113.465192      3087.5448 
  79   0.0000     211.105028      5744.4599 
  80   0.0000     530.911369     14446.8328 
  81   0.0000     530.911369     14446.8328 
  82   0.0000     530.914769     14446.9253 
  83   0.0000     727.339268     19791.9077 
  84   0.0000    2223.422763     60502.4093 
  85   0.0000    6234.932124    169661.1285 
  86   0.0000   21812.038462    593535.7413 

                 SPIN DOWN ORBITALS
  NO   OCC          E(Eh)            E(eV) 
   0   1.0000   -1213.386338    -33017.9209 
   1   1.0000    -180.778772     -4919.2405 
   2   1.0000    -162.074104     -4410.2606 
   3   1.0000    -162.074104     -4410.2606 
   4   1.0000    -162.072158     -4410.2076 
   5   1.0000     -35.797148      -974.0899 
   6   1.0000     -29.775788      -810.2404 
   7   1.0000     -29.775788      -810.2404 
   8   1.0000     -29.770243      -810.0895 
   9   1.0000     -20.699390      -563.2590 
  10   1.0000     -20.699390      -563.2590 
  11   1.0000     -20.695650      -563.1573 
  12   1.0000     -20.695650      -563.1573 
  13   1.0000     -20.694394      -563.1231 
  14   1.0000      -6.088590      -165.6790 
  15   1.0000      -4.231506      -115.1451 
  16   1.0000      -4.231506      -115.1451 
  17   1.0000      -4.218683      -114.7962 
  18   1.0000      -1.526313       -41.5331 
  19   1.0000      -1.526313       -41.5331 
  20   1.0000      -1.516702       -41.2716 
  21   1.0000      -1.516702       -41.2716 
  22   1.0000      -1.513122       -41.1741 
  23   1.0000      -0.529264       -14.4020 
  24   1.0000      -0.193792        -5.2734 
  25   0.0000      -0.185919        -5.0591 
  26   0.0000      -0.185919        -5.0591 
  27   0.0000       0.033968         0.9243 
  28   0.0000       0.041587         1.1316 
  29   0.0000       0.041606         1.1321 
  30   0.0000       0.061957         1.6859 
  31   0.0000       0.249513         6.7896 
  32   0.0000       0.255711         6.9583 
  33   0.0000       0.255718         6.9585 
  34   0.0000       0.326302         8.8791 
  35   0.0000       0.326302         8.8791 
  36   0.0000       0.328415         8.9366 
  37   0.0000       0.336711         9.1624 
  38   0.0000       0.336711         9.1624 
  39   0.0000       0.691423        18.8146 
  40   0.0000       0.691423        18.8146 
  41   0.0000       0.691973        18.8295 
  42   0.0000       0.692063        18.8320 
  43   0.0000       0.692063        18.8320 
  44   0.0000       0.699590        19.0368 
  45   0.0000       0.699590        19.0368 
  46   0.0000       0.726104        19.7583 
  47   0.0000       1.074288        29.2329 
  48   0.0000       1.077451        29.3189 
  49   0.0000       1.077453        29.3190 
  50   0.0000       2.134375        58.0793 
  51   0.0000       2.134375        58.0793 
  52   0.0000       2.136477        58.1365 
  53   0.0000       2.136477        58.1365 
  54   0.0000       2.139244        58.2118 
  55   0.0000       2.676908        72.8424 
  56   0.0000       2.676908        72.8424 
  57   0.0000       2.684342        73.0447 
  58   0.0000       2.684342        73.0447 
  59   0.0000       2.689445        73.1835 
  60   0.0000       2.689445        73.1835 
  61   0.0000       2.691251        73.2327 
  62   0.0000       3.140646        85.4613 
  63   0.0000       4.589227       124.8792 
  64   0.0000       4.589228       124.8792 
  65   0.0000       4.596011       125.0638 
  66   0.0000      10.838906       294.9416 
  67   0.0000      10.838906       294.9416 
  68   0.0000      10.845601       295.1238 
  69   0.0000      10.845601       295.1238 
  70   0.0000      10.848265       295.1963 
  71   0.0000      12.751035       346.9733 
  72   0.0000      22.778452       619.8332 
  73   0.0000      22.778452       619.8332 
  74   0.0000      22.787017       620.0663 
  75   0.0000      53.536529      1456.8030 
  76   0.0000     113.461914      3087.4556 
  77   0.0000     113.461914      3087.4556 
  78   0.0000     113.466254      3087.5737 
  79   0.0000     211.106894      5744.5106 
  80   0.0000     530.914028     14446.9052 
  81   0.0000     530.914028     14446.9052 
  82   0.0000     530.915689     14446.9504 
  83   0.0000     727.341074     19791.9568 
  84   0.0000    2223.425158     60502.4744 
  85   0.0000    6234.934033    169661.1805 
  86   0.0000   21812.039042    593535.7571 

                    ********************************
                    * MULLIKEN POPULATION ANALYSIS *
                    ********************************

--------------------------------------------
MULLIKEN ATOMIC CHARGES AND SPIN POPULATIONS
--------------------------------------------
   0 Te:    0.000000    2.000000
Sum of atomic charges         :    0.0000000
Sum of atomic spin populations:    2.0000000

-----------------------------------------------------
MULLIKEN REDUCED ORBITAL CHARGES AND SPIN POPULATIONS
-----------------------------------------------------
CHARGE
  0 Tes       :     9.999099  s :     9.999099
      pz      :     7.211054  p :    21.998261
      px      :     7.778557
      py      :     7.008650
      dz2     :     4.000030  d :    20.000901
      dxz     :     4.000446
      dyz     :     4.000005
      dx2y2   :     4.000401
      dxy     :     4.000019
      f0      :     0.000159  f :     0.001739
      f+1     :     0.000378
      f-1     :     0.000005
      f+2     :     0.000413
      f-2     :     0.000207
      f+3     :     0.000299
      f-3     :     0.000277

SPIN
  0 Tes       :    -0.000802  s :    -0.000802
      pz      :     0.787874  p :     1.998295
      px      :     0.220018
      py      :     0.990404
      dz2     :     0.000027  d :     0.000802
      dxz     :     0.000397
      dyz     :     0.000005
      dx2y2   :     0.000357
      dxy     :     0.000017
      f0      :     0.000154  f :     0.001705
      f+1     :     0.000376
      f-1     :     0.000005
      f+2     :     0.000399
      f-2     :     0.000205
      f+3     :     0.000291
      f-3     :     0.000275


                     *******************************
                     * LOEWDIN POPULATION ANALYSIS *
                     *******************************

-------------------------------------------
LOEWDIN ATOMIC CHARGES AND SPIN POPULATIONS
-------------------------------------------
   0 Te:    0.000000    2.000000

----------------------------------------------------
LOEWDIN REDUCED ORBITAL CHARGES AND SPIN POPULATIONS
----------------------------------------------------
CHARGE
  0 Tes       :     9.999099  s :     9.999099
      pz      :     7.211054  p :    21.998261
      px      :     7.778557
      py      :     7.008650
      dz2     :     4.000030  d :    20.000901
      dxz     :     4.000446
      dyz     :     4.000005
      dx2y2   :     4.000401
      dxy     :     4.000019
      f0      :     0.000159  f :     0.001739
      f+1     :     0.000378
      f-1     :     0.000005
      f+2     :     0.000413
      f-2     :     0.000207
      f+3     :     0.000299
      f-3     :     0.000277

SPIN
  0 Tes       :    -0.000802  s :    -0.000802
      pz      :     0.787874  p :     1.998295
      px      :     0.220018
      py      :     0.990404
      dz2     :     0.000027  d :     0.000802
      dxz     :     0.000397
      dyz     :     0.000005
      dx2y2   :     0.000357
      dxy     :     0.000017
      f0      :     0.000154  f :     0.001705
      f+1     :     0.000376
      f-1     :     0.000005
      f+2     :     0.000399
      f-2     :     0.000205
      f+3     :     0.000291
      f-3     :     0.000275


                      *****************************
                      * MAYER POPULATION ANALYSIS *
                      *****************************

  NA   - Mulliken gross atomic population
  ZA   - Total nuclear charge
  QA   - Mulliken gross atomic charge
  VA   - Mayer's total valence
  BVA  - Mayer's bonded valence
  FA   - Mayer's free valence

  ATOM       NA         ZA         QA         VA         BVA        FA
  0 Te    52.0000    52.0000     0.0000     2.0058     0.0000     2.0058

  Mayer bond orders larger than 0.100000


-------
TIMINGS
-------

Total SCF time: 0 days 0 hours 1 min 6 sec 

Total time                  ....      66.902 sec
Sum of individual times     ....      61.626 sec  ( 92.1%)

Fock matrix formation       ....      52.747 sec  ( 78.8%)
  XC integration            ....      36.264 sec  ( 68.8% of F)
    Basis function eval.    ....       0.027 sec  (  0.1% of XC)
    Density eval.           ....       0.674 sec  (  1.9% of XC)
    XC-Functional eval.     ....       0.104 sec  (  0.3% of XC)
    XC-Potential eval.      ....       0.036 sec  (  0.1% of XC)
Diagonalization             ....       0.143 sec  (  0.2%)
Density matrix formation    ....       0.005 sec  (  0.0%)
Population analysis         ....       0.188 sec  (  0.3%)
Initial guess               ....       7.069 sec  ( 10.6%)
Orbital Transformation      ....       0.000 sec  (  0.0%)
Orbital Orthonormalization  ....       0.000 sec  (  0.0%)
DIIS solution               ....       0.029 sec  (  0.0%)
SOSCF solution              ....       0.388 sec  (  0.6%)
Grid generation             ....       1.058 sec  (  1.6%)

Maximum memory used throughout the entire SCF-calculation: 227.8 MB

-------------------------   --------------------
FINAL SINGLE POINT ENERGY     -6931.641768314137
-------------------------   --------------------


                            ***************************************
                            *     ORCA property calculations      *
                            ***************************************

                                    ---------------------
                                    Active property flags
                                    ---------------------
   (+) Dipole Moment


------------------------------------------------------------------------------
                       ORCA ELECTRIC PROPERTIES CALCULATION
------------------------------------------------------------------------------

Dipole Moment Calculation                       ... on
Quadrupole Moment Calculation                   ... off
Polarizability Calculation                      ... off
GBWName                                         ... Te_sarc-zora-tzvpp_pbe.gbw
Electron density                                ... Te_sarc-zora-tzvpp_pbe.scfp
The origin for moment calculation is the CENTER OF MASS  = ( 0.000000,  0.000000  0.000000)

-------------
DIPOLE MOMENT
-------------
                                X             Y             Z
Electronic contribution:      0.00000       0.00000       0.00000
Nuclear contribution   :      0.00000       0.00000       0.00000
                        -----------------------------------------
Total Dipole Moment    :      0.00000       0.00000       0.00000
                        -----------------------------------------
Magnitude (a.u.)       :      0.00000
Magnitude (Debye)      :      0.00000



--------------------
Rotational spectrum 
--------------------
 
Rotational constants in cm-1:     0.000000     0.000000     0.000000 
Rotational constants in MHz :     0.000000     0.000000     0.000000 

 Dipole components along the rotational axes: 
x,y,z [a.u.] :     0.000000     0.000000     0.000000 
x,y,z [Debye]:     0.000000     0.000000     0.000000 

 

Timings for individual modules:

Sum of individual times         ...      159.444 sec (=   2.657 min)
GTO integral calculation        ...       72.612 sec (=   1.210 min)  45.5 %
Relativistic integrals          ...       16.807 sec (=   0.280 min)  10.5 %
SCF iterations                  ...       70.025 sec (=   1.167 min)  43.9 %
                             ****ORCA TERMINATED NORMALLY****
TOTAL RUN TIME: 0 days 0 hours 2 minutes 52 seconds 857 msec
