
                                 *****************
                                 * O   R   C   A *
                                 *****************

                                            #,                                       
                                            ###                                      
                                            ####                                     
                                            #####                                    
                                            ######                                   
                                           ########,                                 
                                     ,,################,,,,,                         
                               ,,#################################,,                 
                          ,,##########################################,,             
                       ,#########################################, ''#####,          
                    ,#############################################,,   '####,        
                  ,##################################################,,,,####,       
                ,###########''''           ''''###############################       
              ,#####''   ,,,,##########,,,,          '''####'''          '####       
            ,##' ,,,,###########################,,,                        '##       
           ' ,,###''''                  '''############,,,                           
         ,,##''                                '''############,,,,        ,,,,,,###''
      ,#''                                            '''#######################'''  
     '                                                          ''''####''''         
             ,#######,   #######,   ,#######,      ##                                
            ,#'     '#,  ##    ##  ,#'     '#,    #''#        ######   ,####,        
            ##       ##  ##   ,#'  ##            #'  '#       #        #'  '#        
            ##       ##  #######   ##           ,######,      #####,   #    #        
            '#,     ,#'  ##    ##  '#,     ,#' ,#      #,         ##   #,  ,#        
             '#######'   ##     ##  '#######'  #'      '#     #####' # '####'        



                  #######################################################
                  #                        -***-                        #
                  #          Department of theory and spectroscopy      #
                  #    Directorship and core code : Frank Neese         #
                  #        Max Planck Institute fuer Kohlenforschung    #
                  #                Kaiser Wilhelm Platz 1               #
                  #                 D-45470 Muelheim/Ruhr               #
                  #                      Germany                        #
                  #                                                     #
                  #                  All rights reserved                #
                  #                        -***-                        #
                  #######################################################


                         Program Version 5.0.1 -  RELEASE  -


 With contributions from (in alphabetic order):
   Daniel Aravena         : Magnetic Suceptibility
   Michael Atanasov       : Ab Initio Ligand Field Theory (pilot matlab implementation)
   Alexander A. Auer      : GIAO ZORA, VPT2 properties, NMR spectrum
   Ute Becker             : Parallelization
   Giovanni Bistoni       : ED, misc. LED, open-shell LED, HFLD
   Martin Brehm           : Molecular dynamics
   Dmytro Bykov           : SCF Hessian
   Vijay G. Chilkuri      : MRCI spin determinant printing, contributions to CSF-ICE
   Dipayan Datta          : RHF DLPNO-CCSD density
   Achintya Kumar Dutta   : EOM-CC, STEOM-CC
   Dmitry Ganyushin       : Spin-Orbit,Spin-Spin,Magnetic field MRCI
   Miquel Garcia          : C-PCM and meta-GGA Hessian, CC/C-PCM, Gaussian charge scheme
   Yang Guo               : DLPNO-NEVPT2, F12-NEVPT2, CIM, IAO-localization
   Andreas Hansen         : Spin unrestricted coupled pair/coupled cluster methods
   Benjamin Helmich-Paris : MC-RPA, TRAH-SCF, COSX integrals
   Lee Huntington         : MR-EOM, pCC
   Robert Izsak           : Overlap fitted RIJCOSX, COSX-SCS-MP3, EOM
   Marcus Kettner         : VPT2
   Christian Kollmar      : KDIIS, OOCD, Brueckner-CCSD(T), CCSD density, CASPT2, CASPT2-K
   Simone Kossmann        : Meta GGA functionals, TD-DFT gradient, OOMP2, MP2 Hessian
   Martin Krupicka        : Initial AUTO-CI
   Lucas Lang             : DCDCAS
   Marvin Lechner         : AUTO-CI (C++ implementation), FIC-MRCC
   Dagmar Lenk            : GEPOL surface, SMD
   Dimitrios Liakos       : Extrapolation schemes; Compound Job, initial MDCI parallelization
   Dimitrios Manganas     : Further ROCIS development; embedding schemes
   Dimitrios Pantazis     : SARC Basis sets
   Anastasios Papadopoulos: AUTO-CI, single reference methods and gradients
   Taras Petrenko         : DFT Hessian,TD-DFT gradient, ASA, ECA, R-Raman, ABS, FL, XAS/XES, NRVS
   Peter Pinski           : DLPNO-MP2, DLPNO-MP2 Gradient
   Christoph Reimann      : Effective Core Potentials
   Marius Retegan         : Local ZFS, SOC
   Christoph Riplinger    : Optimizer, TS searches, QM/MM, DLPNO-CCSD(T), (RO)-DLPNO pert. Triples
   Tobias Risthaus        : Range-separated hybrids, TD-DFT gradient, RPA, STAB
   Michael Roemelt        : Original ROCIS implementation
   Masaaki Saitow         : Open-shell DLPNO-CCSD energy and density
   Barbara Sandhoefer     : DKH picture change effects
   Avijit Sen             : IP-ROCIS
   Kantharuban Sivalingam : CASSCF convergence, NEVPT2, FIC-MRCI
   Bernardo de Souza      : ESD, SOC TD-DFT
   Georgi Stoychev        : AutoAux, RI-MP2 NMR, DLPNO-MP2 response
   Willem Van den Heuvel  : Paramagnetic NMR
   Boris Wezisla          : Elementary symmetry handling
   Frank Wennmohs         : Technical directorship


 We gratefully acknowledge several colleagues who have allowed us to
 interface, adapt or use parts of their codes:
   Stefan Grimme, W. Hujo, H. Kruse, P. Pracht,  : VdW corrections, initial TS optimization,
                  C. Bannwarth, S. Ehlert          DFT functionals, gCP, sTDA/sTD-DF
   Ed Valeev, F. Pavosevic, A. Kumar             : LibInt (2-el integral package), F12 methods
   Garnet Chan, S. Sharma, J. Yang, R. Olivares  : DMRG
   Ulf Ekstrom                                   : XCFun DFT Library
   Mihaly Kallay                                 : mrcc  (arbitrary order and MRCC methods)
   Jiri Pittner, Ondrej Demel                    : Mk-CCSD
   Frank Weinhold                                : gennbo (NPA and NBO analysis)
   Christopher J. Cramer and Donald G. Truhlar   : smd solvation model
   Lars Goerigk                                  : TD-DFT with DH, B97 family of functionals
   V. Asgeirsson, H. Jonsson                     : NEB implementation
   FAccTs GmbH                                   : IRC, NEB, NEB-TS, DLPNO-Multilevel, CI-OPT
                                                   MM, QMMM, 2- and 3-layer-ONIOM, Crystal-QMMM,
                                                   LR-CPCM, SF, NACMEs, symmetry and pop. for TD-DFT,
                                                   nearIR, NL-DFT gradient (VV10), updates on ESD,
                                                   ML-optimized integration grids
   S Lehtola, MJT Oliveira, MAL Marques          : LibXC Library
   Liviu Ungur et al                             : ANISO software


 Your calculation uses the libint2 library for the computation of 2-el integrals
 For citations please refer to: http://libint.valeyev.net

 Your ORCA version has been built with support for libXC version: 5.1.0
 For citations please refer to: https://tddft.org/programs/libxc/

 This ORCA versions uses:
   CBLAS   interface :  Fast vector & matrix operations
   LAPACKE interface :  Fast linear algebra routines
   SCALAPACK package :  Parallel linear algebra routines
   Shared memory     :  Shared parallel matrices
   BLAS/LAPACK       :  OpenBLAS 0.3.15  USE64BITINT DYNAMIC_ARCH NO_AFFINITY Haswell SINGLE_THREADED
        Core in use  :  Haswell
   Copyright (c) 2011-2014, The OpenBLAS Project


SCAN-COORDS

Reading of a custom basis requested
Basis file         : Te_sapporo-qzp-2012-diffuse.basis
READING GTO-BASIS: TELLURIUM
Basis successfully read

================================================================================

----- Orbital basis set information -----
================================================================================
                                        WARNINGS
                       Please study these warnings very carefully!
================================================================================


INFO   : the flag for use of the SHARK integral package has been found!

================================================================================
                                       INPUT FILE
================================================================================
NAME = Te_sapporo-qzp-2012-diffuse_pbe.inp
|  1> !uks pbe nori verytightscf soscf notrah
|  2> 
|  3> %pal
|  4>   nprocs 32
|  5> end
|  6> %coords
|  7>   charge 0
|  8>   mult 3
|  9>   units bohrs
| 10>   coords
| 11>     Te 0.0 0.0 0.0
| 12>   end
| 13> end
| 14> %basis
| 15>   gtoname "Te_sapporo-qzp-2012-diffuse.basis"
| 16>   delECP Te
| 17> end
| 18> %rel
| 19>   method zora
| 20>   modelpot 1, 0, 0, 0
| 21>   c 137.035999084
| 22> endd                         ****END OF INPUT****
================================================================================

                       ****************************
                       * Single Point Calculation *
                       ****************************

---------------------------------
CARTESIAN COORDINATES (ANGSTROEM)
---------------------------------
  Te     0.000000    0.000000    0.000000

----------------------------
CARTESIAN COORDINATES (A.U.)
----------------------------
  NO LB      ZA    FRAG     MASS         X           Y           Z
   0 Te   52.0000    0   127.600    0.000000    0.000000    0.000000

--------------------------------
INTERNAL COORDINATES (ANGSTROEM)
--------------------------------
 Te     0   0   0     0.000000000000     0.00000000     0.00000000

---------------------------
INTERNAL COORDINATES (A.U.)
---------------------------
 Te     0   0   0     0.000000000000     0.00000000     0.00000000

---------------------
BASIS SET INFORMATION
---------------------
There are 1 groups of distinct atoms

 Group   1 Type Te  : 24s18p14d6f5g2h contracted to 11s10p8d6f4g2h pattern {74322111111/7221111111/71111111/111111/2111/11}

Atom   0Te   basis set group =>   1


           ************************************************************
           *        Program running with 32 parallel MPI-processes    *
           *              working on a common directory               *
           ************************************************************
------------------------------------------------------------------------------
                           ORCA GTO INTEGRAL CALCULATION
------------------------------------------------------------------------------
------------------------------------------------------------------------------
                   ___                                                        
                  /   \      - P O W E R E D   B Y -                         
                 /     \                                                     
                 |  |  |   _    _      __       _____    __    __             
                 |  |  |  | |  | |    /  \     |  _  \  |  |  /  |          
                  \  \/   | |  | |   /    \    | | | |  |  | /  /          
                 / \  \   | |__| |  /  /\  \   | |_| |  |  |/  /          
                |  |  |   |  __  | /  /__\  \  |    /   |      \           
                |  |  |   | |  | | |   __   |  |    \   |  |\   \          
                \     /   | |  | | |  |  |  |  | |\  \  |  | \   \       
                 \___/    |_|  |_| |__|  |__|  |_| \__\ |__|  \__/        
                                                                              
                      - O R C A' S   B I G   F R I E N D -                    
                                      &                                       
                       - I N T E G R A L  F E E D E R -                       
                                                                              
 v1 FN, 2020, v2 2021                                                         
------------------------------------------------------------------------------


Reading SHARK input file Te_sapporo-qzp-2012-diffuse_pbe.SHARKINP.tmp ... ok
----------------------
SHARK INTEGRAL PACKAGE
----------------------

Number of atoms                             ...      1
Number of basis functions                   ...    181
Number of shells                            ...     41
Maximum angular momentum                    ...      5
Integral batch strategy                     ... SHARK/LIBINT Hybrid
RI-J (if used) integral strategy            ... SPLIT-RIJ (Revised 2003 algorithm where possible)
Printlevel                                  ...      1
Contraction scheme used                     ... SEGMENTED contraction
Coulomb Range Separation                    ... NOT USED
Exchange Range Separation                   ... NOT USED
Finite Nucleus Model                        ... NOT USED
Auxiliary Coulomb fitting basis             ... NOT available
Auxiliary J/K fitting basis                 ... NOT available
Auxiliary Correlation fitting basis         ... NOT available
Auxiliary 'external' fitting basis          ... NOT available
Integral threshold                          ...     1.000000e-12
Primitive cut-off                           ...     1.000000e-14
Primitive pair pre-selection threshold      ...     1.000000e-14

Calculating pre-screening integrals         ... done (117.9 sec) Dimension = 41
Organizing shell pair data                  ... done (  7.4 sec)
Shell pair information
Total number of shell pairs                 ...       861
Shell pairs after pre-screening             ...       861
Total number of primitive shell pairs       ...      2492
Primitive shell pairs kept                  ...      2492
          la=0 lb=0:     66 shell pairs
          la=1 lb=0:    110 shell pairs
          la=1 lb=1:     55 shell pairs
          la=2 lb=0:     88 shell pairs
          la=2 lb=1:     80 shell pairs
          la=2 lb=2:     36 shell pairs
          la=3 lb=0:     66 shell pairs
          la=3 lb=1:     60 shell pairs
          la=3 lb=2:     48 shell pairs
          la=3 lb=3:     21 shell pairs
          la=4 lb=0:     44 shell pairs
          la=4 lb=1:     40 shell pairs
          la=4 lb=2:     32 shell pairs
          la=4 lb=3:     24 shell pairs
          la=4 lb=4:     10 shell pairs
          la=5 lb=0:     22 shell pairs
          la=5 lb=1:     20 shell pairs
          la=5 lb=2:     16 shell pairs
          la=5 lb=3:     12 shell pairs
          la=5 lb=4:      8 shell pairs
          la=5 lb=5:      3 shell pairs

Calculating one electron integrals          ... done (  1.3 sec)
Calculating Nuclear repulsion               ... done (  0.0 sec) ENN=      0.000000000000 Eh

SHARK setup successfully completed in 129.4 seconds

Maximum memory used throughout the entire GTOINT-calculation: 39.4 MB


           ************************************************************
           *        Program running with 32 parallel MPI-processes    *
           *              working on a common directory               *
           ************************************************************
------------------------------------------------------------------------------
                          ORCA RELATIVISTIC HAMILTONIAN
------------------------------------------------------------------------------

Relativistic Method            ... ZORA(MP)
Treatment of potential         ... Van Wuellen
Nucleus model                  ... Point Nucleus
Speed of light used            ... 137.03599908400000


            *************************************************
            *         ZERO ORDER REGULAR APPROXIMATION      *
            *                     ZORA(MP)                  *
            *            Programmed by FN according to      *
            *                   C. van Wuellen              *
            *       J. Chem. Phys. (1998) vol 109, 392-399  *
            *************************************************

Terms included in model potential: +V(e,N)
Basis function cutoff value   ... 1.000000e-12
Loading the fitted atomic densities  (DKH4)  ... done
Calculating the cutoffs                      ... done
Number of fit functions                      ... 29
Setting up the integration grid ... done

Maximum memory used throughout the entire REL-calculation: 6.2 MB


           ************************************************************
           *        Program running with 32 parallel MPI-processes    *
           *              working on a common directory               *
           ************************************************************
-------------------------------------------------------------------------------
                                 ORCA SCF
-------------------------------------------------------------------------------

------------
SCF SETTINGS
------------
Hamiltonian:
 Density Functional     Method          .... DFT(GTOs)
 Exchange Functional    Exchange        .... PBE
   PBE kappa parameter   XKappa         ....  0.804000
   PBE mue parameter    XMuePBE         ....  0.219520
 Correlation Functional Correlation     .... PBE
   PBE beta parameter  CBetaPBE         ....  0.066725
 LDA part of GGA corr.  LDAOpt          .... PW91-LDA
 Gradients option       PostSCFGGA      .... off
   Density functional embedding theory  .... OFF
   NL short-range parameter             ....  6.400000

Relativistic Settings:
 Scalar relativistic method             .... ZORA
 Speed of light used       Velit        ....       137.035999
Orbital energies will be scaled


General Settings:
 Integral files         IntName         .... Te_sapporo-qzp-2012-diffuse_pbe
 Hartree-Fock type      HFTyp           .... UHF
 Total Charge           Charge          ....    0
 Multiplicity           Mult            ....    3
 Number of Electrons    NEL             ....   52
 Basis Dimension        Dim             ....  181
 Nuclear Repulsion      ENuc            ....      0.0000000000 Eh

Convergence Acceleration:
 DIIS                   CNVDIIS         .... on
   Start iteration      DIISMaxIt       ....    12
   Startup error        DIISStart       ....  0.200000
   # of expansion vecs  DIISMaxEq       ....     5
   Bias factor          DIISBfac        ....   1.050
   Max. coefficient     DIISMaxC        ....  10.000
 Trust-Rad. Augm. Hess. CNVTRAH         .... off
 SOSCF                  CNVSOSCF        .... on
   Start iteration      SOSCFMaxIt      ....   150
   Startup grad/error   SOSCFStart      ....  0.003300
 Level Shifting         CNVShift        .... on
   Level shift para.    LevelShift      ....    0.2500
   Turn off err/grad.   ShiftErr        ....    0.0010
 Zerner damping         CNVZerner       .... off
 Static damping         CNVDamp         .... on
   Fraction old density DampFac         ....    0.7000
   Max. Damping (<1)    DampMax         ....    0.9800
   Min. Damping (>=0)   DampMin         ....    0.0000
   Turn off err/grad.   DampErr         ....    0.1000
 Fernandez-Rico         CNVRico         .... off

SCF Procedure:
 Maximum # iterations   MaxIter         ....   125
 SCF integral mode      SCFMode         .... Direct
   Integral package                     .... SHARK and LIBINT hybrid scheme
 Reset frequency        DirectResetFreq ....    20
 Integral Threshold     Thresh          ....  1.000e-12 Eh
 Primitive CutOff       TCut            ....  1.000e-14 Eh

Convergence Tolerance:
 Convergence Check Mode ConvCheckMode   .... Total+1el-Energy
 Convergence forced     ConvForced      .... 0
 Energy Change          TolE            ....  1.000e-09 Eh
 1-El. energy change                    ....  1.000e-06 Eh
 Orbital Gradient       TolG            ....  2.000e-06
 Orbital Rotation angle TolX            ....  2.000e-06
 DIIS Error             TolErr          ....  1.000e-08


Diagonalization of the overlap matrix:
Smallest eigenvalue                        ... 4.314e-04
Time for diagonalization                   ...    0.138 sec
Threshold for overlap eigenvalues          ... 1.000e-08
Number of eigenvalues below threshold      ... 0
Time for construction of square roots      ...    0.385 sec
Total time needed                          ...    0.524 sec

Time for model grid setup =    0.279 sec

------------------------------
INITIAL GUESS: MODEL POTENTIAL
------------------------------
Loading ZORA relativistic densities                ... done
Calculating cut-offs                               ... done
Initializing the effective Hamiltonian             ... done
Setting up the integral package (SHARK)            ... done
Starting the Coulomb interaction                   ... done (  10.7 sec)
Reading the grid                                   ... done
Mapping shells                                     ... done
Starting the XC term evaluation                    ... done (   1.8 sec)
  promolecular density results
     # of electrons  =     52.000403147
     EX              =   -182.082590942
     EC              =     -2.766003273
     EX+EC           =   -184.848594215
Transforming the Hamiltonian                       ... done (   1.0 sec)
Diagonalizing the Hamiltonian                      ... done (   0.1 sec)
Back transforming the eigenvectors                 ... done (   0.8 sec)
Now organizing SCF variables                       ... done
                      ------------------
                      INITIAL GUESS DONE (  18.7 sec)
                      ------------------
-------------------
DFT GRID GENERATION
-------------------

General Integration Accuracy     IntAcc      ... 4.388
Radial Grid Type                 RadialGrid  ... OptM3 with GC (2021)
Angular Grid (max. ang.)         AngularGrid ... 4 (Lebedev-302)
Angular grid pruning method      GridPruning ... 4 (adaptive)
Weight generation scheme         WeightScheme... Becke
Basis function cutoff            BFCut       ... 1.0000e-12
Integration weight cutoff        WCut        ... 1.0000e-14
Angular grids for H and He will be reduced by one unit
Partially contracted basis set               ... off
Rotationally invariant grid construction     ... off

Total number of grid points                  ...    15338
Total number of batches                      ...      240
Average number of points per batch           ...       63
Average number of grid points per atom       ...    15338
Time for grid setup =    3.940 sec

--------------
SCF ITERATIONS
--------------
ITER       Energy         Delta-E        Max-DP      RMS-DP      [F,P]     Damp
               ***  Starting incremental Fock matrix formation  ***
  0  -6884.1144490145   0.000000000000 0.09820260  0.00123126  0.5942729 0.7000
  1  -6884.1616922954  -0.047243280896 0.05781210  0.00074754  0.3984149 0.7000
  2  -6884.1874752404  -0.025782945004 0.03394475  0.00045027  0.2686338 0.7000
                               ***Turning on DIIS***
  3  -6884.2040421151  -0.016566874698 0.02055897  0.00028126  0.1821763 0.7000
  4  -6884.2153200452  -0.011277930094 0.01090351  0.00016247  0.1240384 0.7000
  5  -6884.2231085898  -0.007788544561 0.02601136  0.00037943  0.0864291 0.0000
                      *** Initiating the SOSCF procedure ***
                           *** Shutting down DIIS ***
                      *** Re-Reading the Fockian *** 
                      *** Removing any level shift *** 
ITER      Energy       Delta-E        Grad      Rot      Max-DP    RMS-DP
  6  -6884.24113711  -0.0180285162  0.000600  0.000600  0.000510  0.000009
               *** Restarting incremental Fock matrix formation ***
  7  -6884.24113830  -0.0000011944  0.000088  0.000210  0.000200  0.000003
  8  -6884.24113832  -0.0000000183  0.000088  0.000064  0.000091  0.000001
  9  -6884.24113840  -0.0000000856  0.000011  0.000010  0.000010  0.000000
 10  -6884.24113840  -0.0000000004  0.000005  0.000004  0.000003  0.000000
                  ***Gradient check signals convergence***
              ***Rediagonalizing the Fockian in SOSCF/NRSCF***

               *****************************************************
               *                     SUCCESS                       *
               *           SCF CONVERGED AFTER  11 CYCLES          *
               *****************************************************


----------------
TOTAL SCF ENERGY
----------------

Total Energy       :        -6884.24113840 Eh         -187329.72504 eV

Components:
Nuclear Repulsion  :            0.00000000 Eh               0.00000 eV
Electronic Energy  :        -6884.24113840 Eh         -187329.72504 eV
One Electron Energy:        -9404.41117429 Eh         -255907.03811 eV
Two Electron Energy:         2520.17003589 Eh           68577.31308 eV

Virial components:
Potential Energy   :       -13378.02722671 Eh         -364034.62800 eV
Kinetic Energy     :         6493.78608830 Eh          176704.90297 eV
Virial Ratio       :            2.06012749


DFT components:
N(Alpha)           :       27.000000499581 electrons
N(Beta)            :       25.000000499474 electrons
N(Total)           :       52.000000999055 electrons
E(X)               :     -170.421863113277 Eh       
E(C)               :       -2.778980162166 Eh       
E(XC)              :     -173.200843275443 Eh       
DFET-embed. en.    :        0.000000000000 Eh       

---------------
SCF CONVERGENCE
---------------

  Last Energy change         ...   -1.1914e-10  Tolerance :   1.0000e-09
  Last MAX-Density change    ...    1.2066e-07  Tolerance :   1.0000e-08
  Last RMS-Density change    ...    2.0693e-09  Tolerance :   1.0000e-09
  Last Orbital Gradient      ...    1.4889e-07  Tolerance :   2.0000e-06
  Last Orbital Rotation      ...    3.0164e-07  Tolerance :   2.0000e-06

             **** THE GBW FILE WAS UPDATED (Te_sapporo-qzp-2012-diffuse_pbe.gbw) ****
             **** DENSITY Te_sapporo-qzp-2012-diffuse_pbe.scfp WAS UPDATED ****
             **** ENERGY FILE WAS UPDATED (Te_sapporo-qzp-2012-diffuse_pbe.en.tmp) ****
----------------------
UHF SPIN CONTAMINATION
----------------------

Warning: in a DFT calculation there is little theoretical justification to 
         calculate <S**2> as in Hartree-Fock theory. We will do it anyways
         but you should keep in mind that the values have only limited relevance

Expectation value of <S**2>     :     2.003559
Ideal value S*(S+1) for S=1.0   :     2.000000
Deviation                       :     0.003559

             **** THE GBW FILE WAS UPDATED (Te_sapporo-qzp-2012-diffuse_pbe.gbw) ****
             **** DENSITY Te_sapporo-qzp-2012-diffuse_pbe.scfp WAS UPDATED ****
----------------
ORBITAL ENERGIES
----------------
                 SPIN UP ORBITALS
  NO   OCC          E(Eh)            E(eV) 
   0   1.0000   -1200.390898    -32664.2969 
   1   1.0000    -178.452016     -4855.9262 
   2   1.0000    -162.564715     -4423.6108 
   3   1.0000    -162.564715     -4423.6108 
   4   1.0000    -162.561683     -4423.5283 
   5   1.0000     -35.198581      -957.8021 
   6   1.0000     -29.764188      -809.9247 
   7   1.0000     -29.764188      -809.9247 
   8   1.0000     -29.757675      -809.7475 
   9   1.0000     -20.721389      -563.8577 
  10   1.0000     -20.721389      -563.8577 
  11   1.0000     -20.716964      -563.7373 
  12   1.0000     -20.716964      -563.7373 
  13   1.0000     -20.715481      -563.6969 
  14   1.0000      -5.977996      -162.6696 
  15   1.0000      -4.235317      -115.2488 
  16   1.0000      -4.235317      -115.2488 
  17   1.0000      -4.220387      -114.8426 
  18   1.0000      -1.551195       -42.2102 
  19   1.0000      -1.551195       -42.2102 
  20   1.0000      -1.537743       -41.8441 
  21   1.0000      -1.537743       -41.8441 
  22   1.0000      -1.533385       -41.7255 
  23   1.0000      -0.566494       -15.4151 
  24   1.0000      -0.251312        -6.8385 
  25   1.0000      -0.251312        -6.8385 
  26   1.0000      -0.215675        -5.8688 
  27   0.0000      -0.021415        -0.5827 
  28   0.0000       0.015503         0.4218 
  29   0.0000       0.015503         0.4218 
  30   0.0000       0.020344         0.5536 
  31   0.0000       0.046492         1.2651 
  32   0.0000       0.046492         1.2651 
  33   0.0000       0.056497         1.5374 
  34   0.0000       0.056497         1.5374 
  35   0.0000       0.060006         1.6329 
  36   0.0000       0.083656         2.2764 
  37   0.0000       0.165739         4.5100 
  38   0.0000       0.165739         4.5100 
  39   0.0000       0.177282         4.8241 
  40   0.0000       0.189951         5.1688 
  41   0.0000       0.189951         5.1688 
  42   0.0000       0.195535         5.3208 
  43   0.0000       0.195535         5.3208 
  44   0.0000       0.199615         5.4318 
  45   0.0000       0.199615         5.4318 
  46   0.0000       0.201281         5.4771 
  47   0.0000       0.261372         7.1123 
  48   0.0000       0.261372         7.1123 
  49   0.0000       0.277541         7.5523 
  50   0.0000       0.277541         7.5523 
  51   0.0000       0.283709         7.7201 
  52   0.0000       0.330521         8.9939 
  53   0.0000       0.330521         8.9939 
  54   0.0000       0.334254         9.0955 
  55   0.0000       0.334254         9.0955 
  56   0.0000       0.337272         9.1776 
  57   0.0000       0.337272         9.1776 
  58   0.0000       0.339207         9.2303 
  59   0.0000       0.339207         9.2303 
  60   0.0000       0.339877         9.2485 
  61   0.0000       0.416498        11.3335 
  62   0.0000       0.537452        14.6248 
  63   0.0000       0.537452        14.6248 
  64   0.0000       0.554406        15.0862 
  65   0.0000       0.554406        15.0862 
  66   0.0000       0.565707        15.3937 
  67   0.0000       0.565707        15.3937 
  68   0.0000       0.569526        15.4976 
  69   0.0000       0.760760        20.7013 
  70   0.0000       0.760760        20.7013 
  71   0.0000       0.785635        21.3782 
  72   0.0000       0.979753        26.6604 
  73   0.0000       0.979753        26.6604 
  74   0.0000       0.999991        27.2111 
  75   0.0000       0.999991        27.2111 
  76   0.0000       1.007723        27.4215 
  77   0.0000       1.217733        33.1362 
  78   0.0000       1.217733        33.1362 
  79   0.0000       1.232201        33.5299 
  80   0.0000       1.232201        33.5299 
  81   0.0000       1.241584        33.7852 
  82   0.0000       1.241584        33.7852 
  83   0.0000       1.244781        33.8722 
  84   0.0000       1.398548        38.0564 
  85   0.0000       1.398548        38.0564 
  86   0.0000       1.415955        38.5301 
  87   0.0000       1.415955        38.5301 
  88   0.0000       1.420760        38.6608 
  89   0.0000       1.429234        38.8914 
  90   0.0000       1.429234        38.8914 
  91   0.0000       1.437396        39.1135 
  92   0.0000       1.437396        39.1135 
  93   0.0000       1.440194        39.1897 
  94   0.0000       2.665769        72.5393 
  95   0.0000       2.665769        72.5393 
  96   0.0000       2.688162        73.1486 
  97   0.0000       2.688162        73.1486 
  98   0.0000       2.696348        73.3714 
  99   0.0000       2.758784        75.0703 
 100   0.0000       2.758784        75.0703 
 101   0.0000       2.788262        75.8725 
 102   0.0000       2.909981        79.1846 
 103   0.0000       2.909981        79.1846 
 104   0.0000       2.925498        79.6069 
 105   0.0000       2.925498        79.6069 
 106   0.0000       2.935425        79.8770 
 107   0.0000       2.935425        79.8770 
 108   0.0000       2.938924        79.9722 
 109   0.0000       5.029190       136.8512 
 110   0.0000       5.147110       140.0600 
 111   0.0000       5.147110       140.0600 
 112   0.0000       5.162764       140.4859 
 113   0.0000       5.162764       140.4859 
 114   0.0000       5.174960       140.8178 
 115   0.0000       5.174960       140.8178 
 116   0.0000       5.183683       141.0552 
 117   0.0000       5.183683       141.0552 
 118   0.0000       5.188923       141.1978 
 119   0.0000       5.188923       141.1978 
 120   0.0000       5.190670       141.2453 
 121   0.0000       5.964217       162.2946 
 122   0.0000       5.964217       162.2946 
 123   0.0000       5.975278       162.5956 
 124   0.0000       5.975278       162.5956 
 125   0.0000       5.983196       162.8110 
 126   0.0000       5.983196       162.8110 
 127   0.0000       5.987940       162.9401 
 128   0.0000       5.987940       162.9401 
 129   0.0000       5.989522       162.9832 
 130   0.0000       7.390888       201.1163 
 131   0.0000       7.390888       201.1163 
 132   0.0000       7.407977       201.5813 
 133   0.0000       7.407977       201.5813 
 134   0.0000       7.413941       201.7436 
 135   0.0000       8.065762       219.4805 
 136   0.0000       8.065762       219.4805 
 137   0.0000       8.078420       219.8250 
 138   0.0000       8.078420       219.8250 
 139   0.0000       8.086080       220.0334 
 140   0.0000       8.086080       220.0334 
 141   0.0000       8.088630       220.1028 
 142   0.0000      13.116253       356.9114 
 143   0.0000      13.116253       356.9114 
 144   0.0000      13.132469       357.3527 
 145   0.0000      15.233621       414.5279 
 146   0.0000      15.233621       414.5279 
 147   0.0000      15.241179       414.7336 
 148   0.0000      15.241179       414.7336 
 149   0.0000      15.246578       414.8805 
 150   0.0000      15.246578       414.8805 
 151   0.0000      15.249814       414.9685 
 152   0.0000      15.249814       414.9685 
 153   0.0000      15.250892       414.9979 
 154   0.0000      15.504951       421.9112 
 155   0.0000      15.504951       421.9112 
 156   0.0000      15.512019       422.1035 
 157   0.0000      15.512019       422.1035 
 158   0.0000      15.517519       422.2532 
 159   0.0000      15.517519       422.2532 
 160   0.0000      15.521450       422.3601 
 161   0.0000      15.521450       422.3601 
 162   0.0000      15.523808       422.4243 
 163   0.0000      15.523808       422.4243 
 164   0.0000      15.524594       422.4457 
 165   0.0000      17.827582       485.1132 
 166   0.0000      17.827582       485.1132 
 167   0.0000      17.836984       485.3690 
 168   0.0000      17.836984       485.3690 
 169   0.0000      17.842641       485.5229 
 170   0.0000      17.842641       485.5229 
 171   0.0000      17.844524       485.5742 
 172   0.0000      23.889588       650.0687 
 173   0.0000      24.241526       659.6455 
 174   0.0000      24.241526       659.6455 
 175   0.0000      24.250110       659.8790 
 176   0.0000      24.250110       659.8790 
 177   0.0000      24.253271       659.9651 
 178   0.0000      57.120881      1554.3382 
 179   0.0000      57.120881      1554.3382 
 180   0.0000      57.129375      1554.5693 

                 SPIN DOWN ORBITALS
  NO   OCC          E(Eh)            E(eV) 
   0   1.0000   -1200.389220    -32664.2513 
   1   1.0000    -178.451323     -4855.9074 
   2   1.0000    -162.562951     -4423.5628 
   3   1.0000    -162.562951     -4423.5628 
   4   1.0000    -162.561031     -4423.5105 
   5   1.0000     -35.197019      -957.7596 
   6   1.0000     -29.761833      -809.8607 
   7   1.0000     -29.761833      -809.8607 
   8   1.0000     -29.756837      -809.7247 
   9   1.0000     -20.718956      -563.7915 
  10   1.0000     -20.718956      -563.7915 
  11   1.0000     -20.715578      -563.6995 
  12   1.0000     -20.715578      -563.6995 
  13   1.0000     -20.714445      -563.6687 
  14   1.0000      -5.974024      -162.5615 
  15   1.0000      -4.230001      -115.1042 
  16   1.0000      -4.230001      -115.1042 
  17   1.0000      -4.218778      -114.7988 
  18   1.0000      -1.540479       -41.9186 
  19   1.0000      -1.540479       -41.9186 
  20   1.0000      -1.532063       -41.6896 
  21   1.0000      -1.532063       -41.6896 
  22   1.0000      -1.528860       -41.6024 
  23   1.0000      -0.516799       -14.0628 
  24   1.0000      -0.195320        -5.3149 
  25   0.0000      -0.186542        -5.0761 
  26   0.0000      -0.186542        -5.0761 
  27   0.0000      -0.007959        -0.2166 
  28   0.0000       0.023212         0.6316 
  29   0.0000       0.029624         0.8061 
  30   0.0000       0.029632         0.8063 
  31   0.0000       0.072789         1.9807 
  32   0.0000       0.072789         1.9807 
  33   0.0000       0.075937         2.0664 
  34   0.0000       0.082755         2.2519 
  35   0.0000       0.082765         2.2522 
  36   0.0000       0.096201         2.6178 
  37   0.0000       0.184240         5.0134 
  38   0.0000       0.189987         5.1698 
  39   0.0000       0.189990         5.1699 
  40   0.0000       0.211913         5.7665 
  41   0.0000       0.212261         5.7759 
  42   0.0000       0.212263         5.7760 
  43   0.0000       0.214843         5.8462 
  44   0.0000       0.214848         5.8463 
  45   0.0000       0.222254         6.0478 
  46   0.0000       0.222275         6.0484 
  47   0.0000       0.305352         8.3091 
  48   0.0000       0.305353         8.3091 
  49   0.0000       0.307291         8.3618 
  50   0.0000       0.315604         8.5880 
  51   0.0000       0.315611         8.5882 
  52   0.0000       0.350537         9.5386 
  53   0.0000       0.350540         9.5387 
  54   0.0000       0.351580         9.5670 
  55   0.0000       0.351805         9.5731 
  56   0.0000       0.351811         9.5733 
  57   0.0000       0.352480         9.5915 
  58   0.0000       0.352496         9.5919 
  59   0.0000       0.361665         9.8414 
  60   0.0000       0.361678         9.8418 
  61   0.0000       0.441556        12.0153 
  62   0.0000       0.597129        16.2487 
  63   0.0000       0.597130        16.2487 
  64   0.0000       0.597132        16.2488 
  65   0.0000       0.597842        16.2681 
  66   0.0000       0.597843        16.2681 
  67   0.0000       0.606091        16.4926 
  68   0.0000       0.606097        16.4927 
  69   0.0000       0.799186        21.7470 
  70   0.0000       0.805208        21.9108 
  71   0.0000       0.805209        21.9108 
  72   0.0000       1.031081        28.0572 
  73   0.0000       1.031082        28.0572 
  74   0.0000       1.033363        28.1192 
  75   0.0000       1.039052        28.2740 
  76   0.0000       1.039055        28.2741 
  77   0.0000       1.254653        34.1409 
  78   0.0000       1.254655        34.1409 
  79   0.0000       1.255848        34.1734 
  80   0.0000       1.255848        34.1734 
  81   0.0000       1.258386        34.2424 
  82   0.0000       1.258386        34.2424 
  83   0.0000       1.259256        34.2661 
  84   0.0000       1.458354        39.6838 
  85   0.0000       1.475921        40.1619 
  86   0.0000       1.475995        40.1639 
  87   0.0000       1.475995        40.1639 
  88   0.0000       1.476328        40.1729 
  89   0.0000       1.476329        40.1730 
  90   0.0000       1.479294        40.2536 
  91   0.0000       1.479295        40.2537 
  92   0.0000       1.488126        40.4940 
  93   0.0000       1.488127        40.4940 
  94   0.0000       2.715970        73.9053 
  95   0.0000       2.715970        73.9053 
  96   0.0000       2.718567        73.9760 
  97   0.0000       2.718568        73.9760 
  98   0.0000       2.718719        73.9801 
  99   0.0000       2.800544        76.2067 
 100   0.0000       2.800544        76.2067 
 101   0.0000       2.801451        76.2314 
 102   0.0000       2.955824        80.4321 
 103   0.0000       2.955824        80.4321 
 104   0.0000       2.956868        80.4605 
 105   0.0000       2.956869        80.4605 
 106   0.0000       2.957246        80.4708 
 107   0.0000       2.957247        80.4708 
 108   0.0000       2.957889        80.4883 
 109   0.0000       5.054016       137.5268 
 110   0.0000       5.214076       141.8822 
 111   0.0000       5.214076       141.8822 
 112   0.0000       5.214085       141.8825 
 113   0.0000       5.214085       141.8825 
 114   0.0000       5.215068       141.9092 
 115   0.0000       5.215068       141.9092 
 116   0.0000       5.216456       141.9470 
 117   0.0000       5.216456       141.9470 
 118   0.0000       5.217423       141.9733 
 119   0.0000       5.217423       141.9733 
 120   0.0000       5.217807       141.9838 
 121   0.0000       5.977942       162.6681 
 122   0.0000       5.977943       162.6681 
 123   0.0000       5.984777       162.8541 
 124   0.0000       5.984777       162.8541 
 125   0.0000       5.990151       163.0003 
 126   0.0000       5.990151       163.0003 
 127   0.0000       5.993528       163.0922 
 128   0.0000       5.993528       163.0922 
 129   0.0000       5.994658       163.1229 
 130   0.0000       7.418209       201.8597 
 131   0.0000       7.418210       201.8597 
 132   0.0000       7.422588       201.9789 
 133   0.0000       7.422588       201.9789 
 134   0.0000       7.425468       202.0572 
 135   0.0000       8.089160       220.1172 
 136   0.0000       8.089160       220.1172 
 137   0.0000       8.093449       220.2339 
 138   0.0000       8.093449       220.2339 
 139   0.0000       8.097042       220.3317 
 140   0.0000       8.097042       220.3317 
 141   0.0000       8.098323       220.3666 
 142   0.0000      13.128506       357.2448 
 143   0.0000      13.128506       357.2448 
 144   0.0000      13.136236       357.4551 
 145   0.0000      15.245852       414.8607 
 146   0.0000      15.245852       414.8607 
 147   0.0000      15.250069       414.9755 
 148   0.0000      15.250069       414.9755 
 149   0.0000      15.253287       415.0630 
 150   0.0000      15.253287       415.0630 
 151   0.0000      15.255275       415.1171 
 152   0.0000      15.255275       415.1171 
 153   0.0000      15.255942       415.1353 
 154   0.0000      15.512742       422.1232 
 155   0.0000      15.512742       422.1232 
 156   0.0000      15.517847       422.2621 
 157   0.0000      15.517847       422.2621 
 158   0.0000      15.521942       422.3735 
 159   0.0000      15.521942       422.3735 
 160   0.0000      15.524959       422.4556 
 161   0.0000      15.524959       422.4556 
 162   0.0000      15.526787       422.5053 
 163   0.0000      15.526787       422.5053 
 164   0.0000      15.527405       422.5222 
 165   0.0000      17.838500       485.4103 
 166   0.0000      17.838500       485.4103 
 167   0.0000      17.843910       485.5575 
 168   0.0000      17.843910       485.5575 
 169   0.0000      17.847614       485.6583 
 170   0.0000      17.847614       485.6583 
 171   0.0000      17.848867       485.6924 
 172   0.0000      23.902092       650.4090 
 173   0.0000      24.248193       659.8269 
 174   0.0000      24.248193       659.8269 
 175   0.0000      24.253619       659.9745 
 176   0.0000      24.253619       659.9745 
 177   0.0000      24.255822       660.0345 
 178   0.0000      57.125428      1554.4619 
 179   0.0000      57.125428      1554.4619 
 180   0.0000      57.130871      1554.6100 

                    ********************************
                    * MULLIKEN POPULATION ANALYSIS *
                    ********************************

--------------------------------------------
MULLIKEN ATOMIC CHARGES AND SPIN POPULATIONS
--------------------------------------------
   0 Te:    0.000000    2.000000
Sum of atomic charges         :    0.0000000
Sum of atomic spin populations:    2.0000000

-----------------------------------------------------
MULLIKEN REDUCED ORBITAL CHARGES AND SPIN POPULATIONS
-----------------------------------------------------
CHARGE
  0 Tes       :     9.999034  s :     9.999034
      pz      :     7.064377  p :    21.997716
      px      :     7.445134
      py      :     7.488205
      dz2     :     4.000151  d :    20.000931
      dxz     :     4.000078
      dyz     :     4.000086
      dx2y2   :     3.999994
      dxy     :     4.000623
      f0      :     0.000222  f :     0.002284
      f+1     :     0.000208
      f-1     :     0.000226
      f+2     :     0.000091
      f-2     :     0.000458
      f+3     :     0.000546
      f-3     :     0.000532
      g0      :     0.000003  g :     0.000036
      g+1     :     0.000003
      g-1     :     0.000003
      g+2     :     0.000002
      g-2     :     0.000004
      g+3     :     0.000004
      g-3     :     0.000004
      g+4     :     0.000007
      g-4     :     0.000006
      h0      :     0.000000  h :     0.000000
      h+1     :     0.000000
      h-1     :     0.000000
      h+2     :     0.000000
      h-2     :     0.000000
      h+3     :     0.000000
      h-3     :     0.000000
      h+4     :     0.000000
      h-4     :     0.000000
      h+5     :     0.000000
      h-5     :     0.000000

SPIN
  0 Tes       :    -0.000819  s :    -0.000819
      pz      :     0.934376  p :     1.997799
      px      :     0.553267
      py      :     0.510156
      dz2     :     0.000129  d :     0.000798
      dxz     :     0.000067
      dyz     :     0.000074
      dx2y2   :    -0.000004
      dxy     :     0.000532
      f0      :     0.000213  f :     0.002201
      f+1     :     0.000202
      f-1     :     0.000219
      f+2     :     0.000091
      f-2     :     0.000440
      f+3     :     0.000523
      f-3     :     0.000514
      g0      :     0.000002  g :     0.000021
      g+1     :     0.000001
      g-1     :     0.000002
      g+2     :     0.000001
      g-2     :     0.000003
      g+3     :     0.000002
      g-3     :     0.000002
      g+4     :     0.000003
      g-4     :     0.000004
      h0      :    -0.000000  h :    -0.000000
      h+1     :     0.000000
      h-1     :     0.000000
      h+2     :     0.000000
      h-2     :    -0.000000
      h+3     :    -0.000000
      h-3     :     0.000000
      h+4     :    -0.000000
      h-4     :     0.000000
      h+5     :    -0.000000
      h-5     :    -0.000000


                     *******************************
                     * LOEWDIN POPULATION ANALYSIS *
                     *******************************

-------------------------------------------
LOEWDIN ATOMIC CHARGES AND SPIN POPULATIONS
-------------------------------------------
   0 Te:    0.000000    2.000000

----------------------------------------------------
LOEWDIN REDUCED ORBITAL CHARGES AND SPIN POPULATIONS
----------------------------------------------------
CHARGE
  0 Tes       :     9.999034  s :     9.999034
      pz      :     7.064377  p :    21.997716
      px      :     7.445134
      py      :     7.488205
      dz2     :     4.000151  d :    20.000931
      dxz     :     4.000078
      dyz     :     4.000086
      dx2y2   :     3.999994
      dxy     :     4.000623
      f0      :     0.000222  f :     0.002284
      f+1     :     0.000208
      f-1     :     0.000226
      f+2     :     0.000091
      f-2     :     0.000458
      f+3     :     0.000546
      f-3     :     0.000532
      g0      :     0.000003  g :     0.000036
      g+1     :     0.000003
      g-1     :     0.000003
      g+2     :     0.000002
      g-2     :     0.000004
      g+3     :     0.000004
      g-3     :     0.000004
      g+4     :     0.000007
      g-4     :     0.000006
      h0      :     0.000000  h :     0.000000
      h+1     :     0.000000
      h-1     :     0.000000
      h+2     :     0.000000
      h-2     :     0.000000
      h+3     :     0.000000
      h-3     :     0.000000
      h+4     :     0.000000
      h-4     :     0.000000
      h+5     :     0.000000
      h-5     :     0.000000

SPIN
  0 Tes       :    -0.000819  s :    -0.000819
      pz      :     0.934376  p :     1.997799
      px      :     0.553267
      py      :     0.510156
      dz2     :     0.000129  d :     0.000798
      dxz     :     0.000067
      dyz     :     0.000074
      dx2y2   :    -0.000004
      dxy     :     0.000532
      f0      :     0.000213  f :     0.002201
      f+1     :     0.000202
      f-1     :     0.000219
      f+2     :     0.000091
      f-2     :     0.000440
      f+3     :     0.000523
      f-3     :     0.000514
      g0      :     0.000002  g :     0.000021
      g+1     :     0.000001
      g-1     :     0.000002
      g+2     :     0.000001
      g-2     :     0.000003
      g+3     :     0.000002
      g-3     :     0.000002
      g+4     :     0.000003
      g-4     :     0.000004
      h0      :    -0.000000  h :    -0.000000
      h+1     :     0.000000
      h-1     :     0.000000
      h+2     :     0.000000
      h-2     :    -0.000000
      h+3     :    -0.000000
      h-3     :     0.000000
      h+4     :    -0.000000
      h-4     :     0.000000
      h+5     :    -0.000000
      h-5     :    -0.000000


                      *****************************
                      * MAYER POPULATION ANALYSIS *
                      *****************************

  NA   - Mulliken gross atomic population
  ZA   - Total nuclear charge
  QA   - Mulliken gross atomic charge
  VA   - Mayer's total valence
  BVA  - Mayer's bonded valence
  FA   - Mayer's free valence

  ATOM       NA         ZA         QA         VA         BVA        FA
  0 Te    52.0000    52.0000     0.0000     2.0071     0.0000     2.0071

  Mayer bond orders larger than 0.100000


-------
TIMINGS
-------

Total SCF time: 0 days 0 hours 4 min 13 sec 

Total time                  ....     253.666 sec
Sum of individual times     ....     232.178 sec  ( 91.5%)

Fock matrix formation       ....     202.190 sec  ( 79.7%)
  XC integration            ....      10.921 sec  (  5.4% of F)
    Basis function eval.    ....       0.028 sec  (  0.3% of XC)
    Density eval.           ....       0.197 sec  (  1.8% of XC)
    XC-Functional eval.     ....       0.021 sec  (  0.2% of XC)
    XC-Potential eval.      ....       0.076 sec  (  0.7% of XC)
Diagonalization             ....       0.215 sec  (  0.1%)
Density matrix formation    ....       0.011 sec  (  0.0%)
Population analysis         ....       6.725 sec  (  2.7%)
Initial guess               ....      18.399 sec  (  7.3%)
Orbital Transformation      ....       0.000 sec  (  0.0%)
Orbital Orthonormalization  ....       0.000 sec  (  0.0%)
DIIS solution               ....       0.357 sec  (  0.1%)
SOSCF solution              ....       0.062 sec  (  0.0%)
Grid generation             ....       4.219 sec  (  1.7%)

Maximum memory used throughout the entire SCF-calculation: 233.8 MB

-------------------------   --------------------
FINAL SINGLE POINT ENERGY     -6884.241138404823
-------------------------   --------------------


                            ***************************************
                            *     ORCA property calculations      *
                            ***************************************

                                    ---------------------
                                    Active property flags
                                    ---------------------
   (+) Dipole Moment


------------------------------------------------------------------------------
                       ORCA ELECTRIC PROPERTIES CALCULATION
------------------------------------------------------------------------------

Dipole Moment Calculation                       ... on
Quadrupole Moment Calculation                   ... off
Polarizability Calculation                      ... off
GBWName                                         ... Te_sapporo-qzp-2012-diffuse_pbe.gbw
Electron density                                ... Te_sapporo-qzp-2012-diffuse_pbe.scfp
The origin for moment calculation is the CENTER OF MASS  = ( 0.000000,  0.000000  0.000000)

-------------
DIPOLE MOMENT
-------------
                                X             Y             Z
Electronic contribution:     -0.00000      -0.00000      -0.00000
Nuclear contribution   :      0.00000       0.00000       0.00000
                        -----------------------------------------
Total Dipole Moment    :     -0.00000      -0.00000      -0.00000
                        -----------------------------------------
Magnitude (a.u.)       :      0.00000
Magnitude (Debye)      :      0.00000



--------------------
Rotational spectrum 
--------------------
 
Rotational constants in cm-1:     0.000000     0.000000     0.000000 
Rotational constants in MHz :     0.000000     0.000000     0.000000 

 Dipole components along the rotational axes: 
x,y,z [a.u.] :    -0.000000    -0.000000    -0.000000 
x,y,z [Debye]:    -0.000000    -0.000000    -0.000000 

 

Timings for individual modules:

Sum of individual times         ...      557.568 sec (=   9.293 min)
GTO integral calculation        ...      247.710 sec (=   4.128 min)  44.4 %
Relativistic integrals          ...       42.054 sec (=   0.701 min)   7.5 %
SCF iterations                  ...      267.805 sec (=   4.463 min)  48.0 %
                             ****ORCA TERMINATED NORMALLY****
TOTAL RUN TIME: 0 days 0 hours 9 minutes 25 seconds 717 msec
