
                                 *****************
                                 * O   R   C   A *
                                 *****************

                                            #,                                       
                                            ###                                      
                                            ####                                     
                                            #####                                    
                                            ######                                   
                                           ########,                                 
                                     ,,################,,,,,                         
                               ,,#################################,,                 
                          ,,##########################################,,             
                       ,#########################################, ''#####,          
                    ,#############################################,,   '####,        
                  ,##################################################,,,,####,       
                ,###########''''           ''''###############################       
              ,#####''   ,,,,##########,,,,          '''####'''          '####       
            ,##' ,,,,###########################,,,                        '##       
           ' ,,###''''                  '''############,,,                           
         ,,##''                                '''############,,,,        ,,,,,,###''
      ,#''                                            '''#######################'''  
     '                                                          ''''####''''         
             ,#######,   #######,   ,#######,      ##                                
            ,#'     '#,  ##    ##  ,#'     '#,    #''#        ######   ,####,        
            ##       ##  ##   ,#'  ##            #'  '#       #        #'  '#        
            ##       ##  #######   ##           ,######,      #####,   #    #        
            '#,     ,#'  ##    ##  '#,     ,#' ,#      #,         ##   #,  ,#        
             '#######'   ##     ##  '#######'  #'      '#     #####' # '####'        



                  #######################################################
                  #                        -***-                        #
                  #          Department of theory and spectroscopy      #
                  #    Directorship and core code : Frank Neese         #
                  #        Max Planck Institute fuer Kohlenforschung    #
                  #                Kaiser Wilhelm Platz 1               #
                  #                 D-45470 Muelheim/Ruhr               #
                  #                      Germany                        #
                  #                                                     #
                  #                  All rights reserved                #
                  #                        -***-                        #
                  #######################################################


                         Program Version 5.0.1 -  RELEASE  -


 With contributions from (in alphabetic order):
   Daniel Aravena         : Magnetic Suceptibility
   Michael Atanasov       : Ab Initio Ligand Field Theory (pilot matlab implementation)
   Alexander A. Auer      : GIAO ZORA, VPT2 properties, NMR spectrum
   Ute Becker             : Parallelization
   Giovanni Bistoni       : ED, misc. LED, open-shell LED, HFLD
   Martin Brehm           : Molecular dynamics
   Dmytro Bykov           : SCF Hessian
   Vijay G. Chilkuri      : MRCI spin determinant printing, contributions to CSF-ICE
   Dipayan Datta          : RHF DLPNO-CCSD density
   Achintya Kumar Dutta   : EOM-CC, STEOM-CC
   Dmitry Ganyushin       : Spin-Orbit,Spin-Spin,Magnetic field MRCI
   Miquel Garcia          : C-PCM and meta-GGA Hessian, CC/C-PCM, Gaussian charge scheme
   Yang Guo               : DLPNO-NEVPT2, F12-NEVPT2, CIM, IAO-localization
   Andreas Hansen         : Spin unrestricted coupled pair/coupled cluster methods
   Benjamin Helmich-Paris : MC-RPA, TRAH-SCF, COSX integrals
   Lee Huntington         : MR-EOM, pCC
   Robert Izsak           : Overlap fitted RIJCOSX, COSX-SCS-MP3, EOM
   Marcus Kettner         : VPT2
   Christian Kollmar      : KDIIS, OOCD, Brueckner-CCSD(T), CCSD density, CASPT2, CASPT2-K
   Simone Kossmann        : Meta GGA functionals, TD-DFT gradient, OOMP2, MP2 Hessian
   Martin Krupicka        : Initial AUTO-CI
   Lucas Lang             : DCDCAS
   Marvin Lechner         : AUTO-CI (C++ implementation), FIC-MRCC
   Dagmar Lenk            : GEPOL surface, SMD
   Dimitrios Liakos       : Extrapolation schemes; Compound Job, initial MDCI parallelization
   Dimitrios Manganas     : Further ROCIS development; embedding schemes
   Dimitrios Pantazis     : SARC Basis sets
   Anastasios Papadopoulos: AUTO-CI, single reference methods and gradients
   Taras Petrenko         : DFT Hessian,TD-DFT gradient, ASA, ECA, R-Raman, ABS, FL, XAS/XES, NRVS
   Peter Pinski           : DLPNO-MP2, DLPNO-MP2 Gradient
   Christoph Reimann      : Effective Core Potentials
   Marius Retegan         : Local ZFS, SOC
   Christoph Riplinger    : Optimizer, TS searches, QM/MM, DLPNO-CCSD(T), (RO)-DLPNO pert. Triples
   Tobias Risthaus        : Range-separated hybrids, TD-DFT gradient, RPA, STAB
   Michael Roemelt        : Original ROCIS implementation
   Masaaki Saitow         : Open-shell DLPNO-CCSD energy and density
   Barbara Sandhoefer     : DKH picture change effects
   Avijit Sen             : IP-ROCIS
   Kantharuban Sivalingam : CASSCF convergence, NEVPT2, FIC-MRCI
   Bernardo de Souza      : ESD, SOC TD-DFT
   Georgi Stoychev        : AutoAux, RI-MP2 NMR, DLPNO-MP2 response
   Willem Van den Heuvel  : Paramagnetic NMR
   Boris Wezisla          : Elementary symmetry handling
   Frank Wennmohs         : Technical directorship


 We gratefully acknowledge several colleagues who have allowed us to
 interface, adapt or use parts of their codes:
   Stefan Grimme, W. Hujo, H. Kruse, P. Pracht,  : VdW corrections, initial TS optimization,
                  C. Bannwarth, S. Ehlert          DFT functionals, gCP, sTDA/sTD-DF
   Ed Valeev, F. Pavosevic, A. Kumar             : LibInt (2-el integral package), F12 methods
   Garnet Chan, S. Sharma, J. Yang, R. Olivares  : DMRG
   Ulf Ekstrom                                   : XCFun DFT Library
   Mihaly Kallay                                 : mrcc  (arbitrary order and MRCC methods)
   Jiri Pittner, Ondrej Demel                    : Mk-CCSD
   Frank Weinhold                                : gennbo (NPA and NBO analysis)
   Christopher J. Cramer and Donald G. Truhlar   : smd solvation model
   Lars Goerigk                                  : TD-DFT with DH, B97 family of functionals
   V. Asgeirsson, H. Jonsson                     : NEB implementation
   FAccTs GmbH                                   : IRC, NEB, NEB-TS, DLPNO-Multilevel, CI-OPT
                                                   MM, QMMM, 2- and 3-layer-ONIOM, Crystal-QMMM,
                                                   LR-CPCM, SF, NACMEs, symmetry and pop. for TD-DFT,
                                                   nearIR, NL-DFT gradient (VV10), updates on ESD,
                                                   ML-optimized integration grids
   S Lehtola, MJT Oliveira, MAL Marques          : LibXC Library
   Liviu Ungur et al                             : ANISO software


 Your calculation uses the libint2 library for the computation of 2-el integrals
 For citations please refer to: http://libint.valeyev.net

 Your ORCA version has been built with support for libXC version: 5.1.0
 For citations please refer to: https://tddft.org/programs/libxc/

 This ORCA versions uses:
   CBLAS   interface :  Fast vector & matrix operations
   LAPACKE interface :  Fast linear algebra routines
   SCALAPACK package :  Parallel linear algebra routines
   Shared memory     :  Shared parallel matrices
   BLAS/LAPACK       :  OpenBLAS 0.3.15  USE64BITINT DYNAMIC_ARCH NO_AFFINITY Haswell SINGLE_THREADED
        Core in use  :  Haswell
   Copyright (c) 2011-2014, The OpenBLAS Project


SCAN-COORDS

Reading of a custom basis requested
Basis file         : Xe_ano-rcc-vqzp.basis
READING GTO-BASIS: XENON
Basis successfully read

================================================================================

----- Orbital basis set information -----
================================================================================
                                        WARNINGS
                       Please study these warnings very carefully!
================================================================================


INFO   : the flag for use of the SHARK integral package has been found!

================================================================================
                                       INPUT FILE
================================================================================
NAME = Xe_ano-rcc-vqzp_pbe.inp
|  1> !uks pbe nori verytightscf soscf notrah
|  2> 
|  3> %pal
|  4>   nprocs 32
|  5> end
|  6> %coords
|  7>   charge 0
|  8>   mult 1
|  9>   units bohrs
| 10>   coords
| 11>     Xe 0.0 0.0 0.0
| 12>   end
| 13> end
| 14> %basis
| 15>   gtoname "Xe_ano-rcc-vqzp.basis"
| 16>   delECP Xe
| 17> end
| 18> %rel
| 19>   method zora
| 20>   modelpot 1, 0, 0, 0
| 21>   c 137.035999084
| 22> endd                         ****END OF INPUT****
================================================================================

                       ****************************
                       * Single Point Calculation *
                       ****************************

---------------------------------
CARTESIAN COORDINATES (ANGSTROEM)
---------------------------------
  Xe     0.000000    0.000000    0.000000

----------------------------
CARTESIAN COORDINATES (A.U.)
----------------------------
  NO LB      ZA    FRAG     MASS         X           Y           Z
   0 Xe   54.0000    0   131.300    0.000000    0.000000    0.000000

--------------------------------
INTERNAL COORDINATES (ANGSTROEM)
--------------------------------
 Xe     0   0   0     0.000000000000     0.00000000     0.00000000

---------------------------
INTERNAL COORDINATES (A.U.)
---------------------------
 Xe     0   0   0     0.000000000000     0.00000000     0.00000000

---------------------
BASIS SET INFORMATION
---------------------
There are 1 groups of distinct atoms

 Group   1 Type Xe  : 176s133p65d15f6g contracted to 8s7p5d3f2g pattern {2222222222222222/19191919191919/1313131313/555/33}

Atom   0Xe   basis set group =>   1


           ************************************************************
           *        Program running with 32 parallel MPI-processes    *
           *              working on a common directory               *
           ************************************************************
------------------------------------------------------------------------------
                           ORCA GTO INTEGRAL CALCULATION
------------------------------------------------------------------------------
------------------------------------------------------------------------------
                   ___                                                        
                  /   \      - P O W E R E D   B Y -                         
                 /     \                                                     
                 |  |  |   _    _      __       _____    __    __             
                 |  |  |  | |  | |    /  \     |  _  \  |  |  /  |          
                  \  \/   | |  | |   /    \    | | | |  |  | /  /          
                 / \  \   | |__| |  /  /\  \   | |_| |  |  |/  /          
                |  |  |   |  __  | /  /__\  \  |    /   |      \           
                |  |  |   | |  | | |   __   |  |    \   |  |\   \          
                \     /   | |  | | |  |  |  |  | |\  \  |  | \   \       
                 \___/    |_|  |_| |__|  |__|  |_| \__\ |__|  \__/        
                                                                              
                      - O R C A' S   B I G   F R I E N D -                    
                                      &                                       
                       - I N T E G R A L  F E E D E R -                       
                                                                              
 v1 FN, 2020, v2 2021                                                         
------------------------------------------------------------------------------


Reading SHARK input file Xe_ano-rcc-vqzp_pbe.SHARKINP.tmp ... ok
----------------------
SHARK INTEGRAL PACKAGE
----------------------

Number of atoms                             ...      1
Number of basis functions                   ...     93
Number of shells                            ...     25
Maximum angular momentum                    ...      4
Integral batch strategy                     ... SHARK/LIBINT Hybrid
RI-J (if used) integral strategy            ... SPLIT-RIJ (Revised 2003 algorithm where possible)
Printlevel                                  ...      1
Contraction scheme used                     ... SEGMENTED contraction
Coulomb Range Separation                    ... NOT USED
Exchange Range Separation                   ... NOT USED
Finite Nucleus Model                        ... NOT USED
Auxiliary Coulomb fitting basis             ... NOT available
Auxiliary J/K fitting basis                 ... NOT available
Auxiliary Correlation fitting basis         ... NOT available
Auxiliary 'external' fitting basis          ... NOT available
Integral threshold                          ...     1.000000e-12
Primitive cut-off                           ...     1.000000e-14
Primitive pair pre-selection threshold      ...     1.000000e-14

Calculating pre-screening integrals         ... done ( 27.8 sec) Dimension = 25
Organizing shell pair data                  ... done (  0.3 sec)
Shell pair information
Total number of shell pairs                 ...       325
Shell pairs after pre-screening             ...       325
Total number of primitive shell pairs       ...     81681
Primitive shell pairs kept                  ...     81681
          la=0 lb=0:     36 shell pairs
          la=1 lb=0:     56 shell pairs
          la=1 lb=1:     28 shell pairs
          la=2 lb=0:     40 shell pairs
          la=2 lb=1:     35 shell pairs
          la=2 lb=2:     15 shell pairs
          la=3 lb=0:     24 shell pairs
          la=3 lb=1:     21 shell pairs
          la=3 lb=2:     15 shell pairs
          la=3 lb=3:      6 shell pairs
          la=4 lb=0:     16 shell pairs
          la=4 lb=1:     14 shell pairs
          la=4 lb=2:     10 shell pairs
          la=4 lb=3:      6 shell pairs
          la=4 lb=4:      3 shell pairs

Calculating one electron integrals          ... done (  1.3 sec)
Calculating Nuclear repulsion               ... done (  0.0 sec) ENN=      0.000000000000 Eh

SHARK setup successfully completed in  30.3 seconds

Maximum memory used throughout the entire GTOINT-calculation: 313.8 MB


           ************************************************************
           *        Program running with 32 parallel MPI-processes    *
           *              working on a common directory               *
           ************************************************************
------------------------------------------------------------------------------
                          ORCA RELATIVISTIC HAMILTONIAN
------------------------------------------------------------------------------

Relativistic Method            ... ZORA(MP)
Treatment of potential         ... Van Wuellen
Nucleus model                  ... Point Nucleus
Speed of light used            ... 137.03599908400000


            *************************************************
            *         ZERO ORDER REGULAR APPROXIMATION      *
            *                     ZORA(MP)                  *
            *            Programmed by FN according to      *
            *                   C. van Wuellen              *
            *       J. Chem. Phys. (1998) vol 109, 392-399  *
            *************************************************

Terms included in model potential: +V(e,N)
Basis function cutoff value   ... 1.000000e-12
Loading the fitted atomic densities  (DKH4)  ... done
Calculating the cutoffs                      ... done
Number of fit functions                      ... 32
Setting up the integration grid ... done

Maximum memory used throughout the entire REL-calculation: 10.3 MB


           ************************************************************
           *        Program running with 32 parallel MPI-processes    *
           *              working on a common directory               *
           ************************************************************
-------------------------------------------------------------------------------
                                 ORCA SCF
-------------------------------------------------------------------------------

------------
SCF SETTINGS
------------
Hamiltonian:
 Density Functional     Method          .... DFT(GTOs)
 Exchange Functional    Exchange        .... PBE
   PBE kappa parameter   XKappa         ....  0.804000
   PBE mue parameter    XMuePBE         ....  0.219520
 Correlation Functional Correlation     .... PBE
   PBE beta parameter  CBetaPBE         ....  0.066725
 LDA part of GGA corr.  LDAOpt          .... PW91-LDA
 Gradients option       PostSCFGGA      .... off
   Density functional embedding theory  .... OFF
   NL short-range parameter             ....  6.400000

Relativistic Settings:
 Scalar relativistic method             .... ZORA
 Speed of light used       Velit        ....       137.035999
Orbital energies will be scaled


General Settings:
 Integral files         IntName         .... Xe_ano-rcc-vqzp_pbe
 Hartree-Fock type      HFTyp           .... UHF
 Total Charge           Charge          ....    0
 Multiplicity           Mult            ....    1
 Number of Electrons    NEL             ....   54
 Basis Dimension        Dim             ....   93
 Nuclear Repulsion      ENuc            ....      0.0000000000 Eh

Convergence Acceleration:
 DIIS                   CNVDIIS         .... on
   Start iteration      DIISMaxIt       ....    12
   Startup error        DIISStart       ....  0.200000
   # of expansion vecs  DIISMaxEq       ....     5
   Bias factor          DIISBfac        ....   1.050
   Max. coefficient     DIISMaxC        ....  10.000
 Trust-Rad. Augm. Hess. CNVTRAH         .... off
 SOSCF                  CNVSOSCF        .... on
   Start iteration      SOSCFMaxIt      ....   150
   Startup grad/error   SOSCFStart      ....  0.003300
 Level Shifting         CNVShift        .... on
   Level shift para.    LevelShift      ....    0.2500
   Turn off err/grad.   ShiftErr        ....    0.0010
 Zerner damping         CNVZerner       .... off
 Static damping         CNVDamp         .... on
   Fraction old density DampFac         ....    0.7000
   Max. Damping (<1)    DampMax         ....    0.9800
   Min. Damping (>=0)   DampMin         ....    0.0000
   Turn off err/grad.   DampErr         ....    0.1000
 Fernandez-Rico         CNVRico         .... off

SCF Procedure:
 Maximum # iterations   MaxIter         ....   125
 SCF integral mode      SCFMode         .... Direct
   Integral package                     .... SHARK and LIBINT hybrid scheme
 Reset frequency        DirectResetFreq ....    20
 Integral Threshold     Thresh          ....  1.000e-12 Eh
 Primitive CutOff       TCut            ....  1.000e-14 Eh

Convergence Tolerance:
 Convergence Check Mode ConvCheckMode   .... Total+1el-Energy
 Convergence forced     ConvForced      .... 0
 Energy Change          TolE            ....  1.000e-09 Eh
 1-El. energy change                    ....  1.000e-06 Eh
 Orbital Gradient       TolG            ....  2.000e-06
 Orbital Rotation angle TolX            ....  2.000e-06
 DIIS Error             TolErr          ....  1.000e-08


Diagonalization of the overlap matrix:
Smallest eigenvalue                        ... 1.000e+00
Time for diagonalization                   ...    0.019 sec
Threshold for overlap eigenvalues          ... 1.000e-08
Number of eigenvalues below threshold      ... 0
Time for construction of square roots      ...    0.020 sec
Total time needed                          ...    0.041 sec

Time for model grid setup =    0.191 sec

------------------------------
INITIAL GUESS: MODEL POTENTIAL
------------------------------
Loading ZORA relativistic densities                ... done
Calculating cut-offs                               ... done
Initializing the effective Hamiltonian             ... done
Setting up the integral package (SHARK)            ... done
Starting the Coulomb interaction                   ... done (   0.5 sec)
Reading the grid                                   ... done
Mapping shells                                     ... done
Starting the XC term evaluation                    ... done (   0.1 sec)
  promolecular density results
     # of electrons  =     54.003162780
     EX              =   -195.356567898
     EC              =     -2.901221558
     EX+EC           =   -198.257789456
Transforming the Hamiltonian                       ... done (   0.0 sec)
Diagonalizing the Hamiltonian                      ... done (   0.0 sec)
Back transforming the eigenvectors                 ... done (   0.0 sec)
Now organizing SCF variables                       ... done
                      ------------------
                      INITIAL GUESS DONE (   0.9 sec)
                      ------------------
-------------------
DFT GRID GENERATION
-------------------

General Integration Accuracy     IntAcc      ... 4.388
Radial Grid Type                 RadialGrid  ... OptM3 with GC (2021)
Angular Grid (max. ang.)         AngularGrid ... 4 (Lebedev-302)
Angular grid pruning method      GridPruning ... 4 (adaptive)
Weight generation scheme         WeightScheme... Becke
Basis function cutoff            BFCut       ... 1.0000e-12
Integration weight cutoff        WCut        ... 1.0000e-14
Angular grids for H and He will be reduced by one unit
Partially contracted basis set               ... off
Rotationally invariant grid construction     ... off

Total number of grid points                  ...    27544
Total number of batches                      ...      431
Average number of points per batch           ...       63
Average number of grid points per atom       ...    27544
Time for grid setup =    0.697 sec

--------------
SCF ITERATIONS
--------------
ITER       Energy         Delta-E        Max-DP      RMS-DP      [F,P]     Damp
               ***  Starting incremental Fock matrix formation  ***
  0  -7581.9478518660   0.000000000000 0.01113715  0.00031260  0.5263007 0.7000
  1  -7581.9728042151  -0.024952349041 0.00739793  0.00018227  0.3677327 0.7000
  2  -7581.9853826029  -0.012578387820 0.00317481  0.00007912  0.2569837 0.7000
                               ***Turning on DIIS***
  3  -7581.9932347698  -0.007852166896 0.00087664  0.00003003  0.1796244 0.7000
  4  -7581.9985720857  -0.005337315954 0.00038949  0.00001626  0.1255691 0.7000
  5  -7582.0022611433  -0.003689057570 0.00049171  0.00002986  0.0878643 0.0000
                      *** Initiating the SOSCF procedure ***
                           *** Shutting down DIIS ***
                      *** Re-Reading the Fockian *** 
                      *** Removing any level shift *** 
ITER      Energy       Delta-E        Grad      Rot      Max-DP    RMS-DP
  6  -7582.01081901  -0.0085578667  0.000309  0.000309  0.000444  0.000009
               *** Restarting incremental Fock matrix formation ***
  7  -7582.01081907  -0.0000000592  0.000253  0.000414  0.000432  0.000009
  8  -7582.01081902   0.0000000519  0.000255  0.000196  0.000206  0.000004
  9  -7582.01081970  -0.0000006852  0.000011  0.000008  0.000008  0.000000
 10  -7582.01081970  -0.0000000003  0.000005  0.000003  0.000003  0.000000
                 **** Energy Check signals convergence ****
              ***Rediagonalizing the Fockian in SOSCF/NRSCF***

               *****************************************************
               *                     SUCCESS                       *
               *           SCF CONVERGED AFTER  11 CYCLES          *
               *****************************************************


----------------
TOTAL SCF ENERGY
----------------

Total Energy       :        -7582.01081970 Eh         -206317.00336 eV

Components:
Nuclear Repulsion  :            0.00000000 Eh               0.00000 eV
Electronic Energy  :        -7582.01081970 Eh         -206317.00336 eV
One Electron Energy:       -10341.29405875 Eh         -281400.91748 eV
Two Electron Energy:         2759.28323904 Eh           75083.91413 eV

Virial components:
Potential Energy   :       -15776.55737952 Eh         -429301.95159 eV
Kinetic Energy     :         8194.54655982 Eh          222984.94823 eV
Virial Ratio       :            1.92525081


DFT components:
N(Alpha)           :       26.999999998880 electrons
N(Beta)            :       26.999999998880 electrons
N(Total)           :       53.999999997760 electrons
E(X)               :     -186.033499809968 Eh       
E(C)               :       -2.909124736367 Eh       
E(XC)              :     -188.942624546335 Eh       
DFET-embed. en.    :        0.000000000000 Eh       

---------------
SCF CONVERGENCE
---------------

  Last Energy change         ...   -1.1642e-10  Tolerance :   1.0000e-09
  Last MAX-Density change    ...    5.9645e-09  Tolerance :   1.0000e-08
  Last RMS-Density change    ...    1.7615e-10  Tolerance :   1.0000e-09
  Last Orbital Gradient      ...    4.2996e-08  Tolerance :   2.0000e-06
  Last Orbital Rotation      ...    7.5731e-09  Tolerance :   2.0000e-06

             **** THE GBW FILE WAS UPDATED (Xe_ano-rcc-vqzp_pbe.gbw) ****
             **** DENSITY Xe_ano-rcc-vqzp_pbe.scfp WAS UPDATED ****
             **** ENERGY FILE WAS UPDATED (Xe_ano-rcc-vqzp_pbe.en.tmp) ****
----------------------
UHF SPIN CONTAMINATION
----------------------

Warning: in a DFT calculation there is little theoretical justification to 
         calculate <S**2> as in Hartree-Fock theory. We will do it anyways
         but you should keep in mind that the values have only limited relevance

Expectation value of <S**2>     :    -0.000000
Ideal value S*(S+1) for S=0.0   :     0.000000
Deviation                       :    -0.000000

             **** THE GBW FILE WAS UPDATED (Xe_ano-rcc-vqzp_pbe.gbw) ****
             **** DENSITY Xe_ano-rcc-vqzp_pbe.scfp WAS UPDATED ****
----------------
ORBITAL ENERGIES
----------------
                 SPIN UP ORBITALS
  NO   OCC          E(Eh)            E(eV) 
   0   1.0000   -1311.941368    -35699.7396 
   1   1.0000    -198.267243     -5395.1260 
   2   1.0000    -178.965882     -4869.9092 
   3   1.0000    -178.965882     -4869.9092 
   4   1.0000    -178.965882     -4869.9092 
   5   1.0000     -40.313373     -1096.9827 
   6   1.0000     -33.972460      -924.4376 
   7   1.0000     -33.972460      -924.4376 
   8   1.0000     -33.972460      -924.4376 
   9   1.0000     -24.178057      -657.9184 
  10   1.0000     -24.178057      -657.9184 
  11   1.0000     -24.178057      -657.9184 
  12   1.0000     -24.178057      -657.9184 
  13   1.0000     -24.178057      -657.9184 
  14   1.0000      -7.248297      -197.2362 
  15   1.0000      -5.220454      -142.0558 
  16   1.0000      -5.220454      -142.0558 
  17   1.0000      -5.220454      -142.0558 
  18   1.0000      -2.183756       -59.4230 
  19   1.0000      -2.183756       -59.4230 
  20   1.0000      -2.183756       -59.4230 
  21   1.0000      -2.183756       -59.4230 
  22   1.0000      -2.183756       -59.4230 
  23   1.0000      -0.721306       -19.6277 
  24   1.0000      -0.303161        -8.2494 
  25   1.0000      -0.303161        -8.2494 
  26   1.0000      -0.303161        -8.2494 
  27   0.0000       0.097578         2.6552 
  28   0.0000       0.184320         5.0156 
  29   0.0000       0.184320         5.0156 
  30   0.0000       0.184320         5.0156 
  31   0.0000       0.214863         5.8467 
  32   0.0000       0.214863         5.8467 
  33   0.0000       0.214863         5.8467 
  34   0.0000       0.214863         5.8467 
  35   0.0000       0.214863         5.8467 
  36   0.0000       0.643613        17.5136 
  37   0.0000       0.643613        17.5136 
  38   0.0000       0.643613        17.5136 
  39   0.0000       0.643613        17.5136 
  40   0.0000       0.643613        17.5136 
  41   0.0000       0.643613        17.5136 
  42   0.0000       0.643613        17.5136 
  43   0.0000       1.146864        31.2078 
  44   0.0000       1.418271        38.5931 
  45   0.0000       1.418271        38.5931 
  46   0.0000       1.418271        38.5931 
  47   0.0000       1.510805        41.1111 
  48   0.0000       1.510805        41.1111 
  49   0.0000       1.510805        41.1111 
  50   0.0000       1.510805        41.1111 
  51   0.0000       1.510805        41.1111 
  52   0.0000       1.786420        48.6110 
  53   0.0000       1.786420        48.6110 
  54   0.0000       1.786420        48.6110 
  55   0.0000       1.786420        48.6110 
  56   0.0000       1.786420        48.6110 
  57   0.0000       1.786420        48.6110 
  58   0.0000       1.786420        48.6110 
  59   0.0000       1.828877        49.7663 
  60   0.0000       1.828877        49.7663 
  61   0.0000       1.828877        49.7663 
  62   0.0000       1.828877        49.7663 
  63   0.0000       1.828877        49.7663 
  64   0.0000       1.828877        49.7663 
  65   0.0000       1.828877        49.7663 
  66   0.0000       1.828877        49.7663 
  67   0.0000       1.828877        49.7663 
  68   0.0000       4.972563       135.3103 
  69   0.0000       4.972563       135.3103 
  70   0.0000       4.972563       135.3103 
  71   0.0000       4.972563       135.3103 
  72   0.0000       4.972563       135.3103 
  73   0.0000       4.972563       135.3103 
  74   0.0000       4.972563       135.3103 
  75   0.0000       6.492468       176.6690 
  76   0.0000       6.492468       176.6690 
  77   0.0000       6.492468       176.6690 
  78   0.0000       6.492468       176.6690 
  79   0.0000       6.492468       176.6690 
  80   0.0000       6.492468       176.6690 
  81   0.0000       6.492468       176.6690 
  82   0.0000       6.492468       176.6690 
  83   0.0000       6.492468       176.6690 
  84   0.0000       6.555609       178.3872 
  85   0.0000       6.862170       186.7291 
  86   0.0000       6.862170       186.7291 
  87   0.0000       6.862170       186.7291 
  88   0.0000       7.112589       193.5434 
  89   0.0000       7.112589       193.5434 
  90   0.0000       7.112589       193.5434 
  91   0.0000       7.112589       193.5434 
  92   0.0000       7.112589       193.5434 

                 SPIN DOWN ORBITALS
  NO   OCC          E(Eh)            E(eV) 
   0   1.0000   -1311.941368    -35699.7396 
   1   1.0000    -198.267243     -5395.1260 
   2   1.0000    -178.965882     -4869.9092 
   3   1.0000    -178.965882     -4869.9092 
   4   1.0000    -178.965882     -4869.9092 
   5   1.0000     -40.313373     -1096.9827 
   6   1.0000     -33.972460      -924.4376 
   7   1.0000     -33.972460      -924.4376 
   8   1.0000     -33.972460      -924.4376 
   9   1.0000     -24.178057      -657.9184 
  10   1.0000     -24.178057      -657.9184 
  11   1.0000     -24.178057      -657.9184 
  12   1.0000     -24.178057      -657.9184 
  13   1.0000     -24.178057      -657.9184 
  14   1.0000      -7.248297      -197.2362 
  15   1.0000      -5.220454      -142.0558 
  16   1.0000      -5.220454      -142.0558 
  17   1.0000      -5.220454      -142.0558 
  18   1.0000      -2.183756       -59.4230 
  19   1.0000      -2.183756       -59.4230 
  20   1.0000      -2.183756       -59.4230 
  21   1.0000      -2.183756       -59.4230 
  22   1.0000      -2.183756       -59.4230 
  23   1.0000      -0.721306       -19.6277 
  24   1.0000      -0.303161        -8.2494 
  25   1.0000      -0.303161        -8.2494 
  26   1.0000      -0.303161        -8.2494 
  27   0.0000       0.097578         2.6552 
  28   0.0000       0.184320         5.0156 
  29   0.0000       0.184320         5.0156 
  30   0.0000       0.184320         5.0156 
  31   0.0000       0.214863         5.8467 
  32   0.0000       0.214863         5.8467 
  33   0.0000       0.214863         5.8467 
  34   0.0000       0.214863         5.8467 
  35   0.0000       0.214863         5.8467 
  36   0.0000       0.643613        17.5136 
  37   0.0000       0.643613        17.5136 
  38   0.0000       0.643613        17.5136 
  39   0.0000       0.643613        17.5136 
  40   0.0000       0.643613        17.5136 
  41   0.0000       0.643613        17.5136 
  42   0.0000       0.643613        17.5136 
  43   0.0000       1.146864        31.2078 
  44   0.0000       1.418271        38.5931 
  45   0.0000       1.418271        38.5931 
  46   0.0000       1.418271        38.5931 
  47   0.0000       1.510805        41.1111 
  48   0.0000       1.510805        41.1111 
  49   0.0000       1.510805        41.1111 
  50   0.0000       1.510805        41.1111 
  51   0.0000       1.510805        41.1111 
  52   0.0000       1.786420        48.6110 
  53   0.0000       1.786420        48.6110 
  54   0.0000       1.786420        48.6110 
  55   0.0000       1.786420        48.6110 
  56   0.0000       1.786420        48.6110 
  57   0.0000       1.786420        48.6110 
  58   0.0000       1.786420        48.6110 
  59   0.0000       1.828877        49.7663 
  60   0.0000       1.828877        49.7663 
  61   0.0000       1.828877        49.7663 
  62   0.0000       1.828877        49.7663 
  63   0.0000       1.828877        49.7663 
  64   0.0000       1.828877        49.7663 
  65   0.0000       1.828877        49.7663 
  66   0.0000       1.828877        49.7663 
  67   0.0000       1.828877        49.7663 
  68   0.0000       4.972563       135.3103 
  69   0.0000       4.972563       135.3103 
  70   0.0000       4.972563       135.3103 
  71   0.0000       4.972563       135.3103 
  72   0.0000       4.972563       135.3103 
  73   0.0000       4.972563       135.3103 
  74   0.0000       4.972563       135.3103 
  75   0.0000       6.492468       176.6690 
  76   0.0000       6.492468       176.6690 
  77   0.0000       6.492468       176.6690 
  78   0.0000       6.492468       176.6690 
  79   0.0000       6.492468       176.6690 
  80   0.0000       6.492468       176.6690 
  81   0.0000       6.492468       176.6690 
  82   0.0000       6.492468       176.6690 
  83   0.0000       6.492468       176.6690 
  84   0.0000       6.555609       178.3872 
  85   0.0000       6.862170       186.7291 
  86   0.0000       6.862170       186.7291 
  87   0.0000       6.862170       186.7291 
  88   0.0000       7.112589       193.5434 
  89   0.0000       7.112589       193.5434 
  90   0.0000       7.112589       193.5434 
  91   0.0000       7.112589       193.5434 
  92   0.0000       7.112589       193.5434 

                    ********************************
                    * MULLIKEN POPULATION ANALYSIS *
                    ********************************

--------------------------------------------
MULLIKEN ATOMIC CHARGES AND SPIN POPULATIONS
--------------------------------------------
   0 Xe:    0.000000    0.000000
Sum of atomic charges         :    0.0000000
Sum of atomic spin populations:    0.0000000

-----------------------------------------------------
MULLIKEN REDUCED ORBITAL CHARGES AND SPIN POPULATIONS
-----------------------------------------------------
CHARGE
  0 Xes       :    10.000000  s :    10.000000
      pz      :     8.000000  p :    24.000000
      px      :     8.000000
      py      :     8.000000
      dz2     :     4.000000  d :    20.000000
      dxz     :     4.000000
      dyz     :     4.000000
      dx2y2   :     4.000000
      dxy     :     4.000000
      f0      :     0.000000  f :     0.000000
      f+1     :     0.000000
      f-1     :     0.000000
      f+2     :     0.000000
      f-2     :     0.000000
      f+3     :     0.000000
      f-3     :     0.000000
      g0      :     0.000000  g :     0.000000
      g+1     :     0.000000
      g-1     :     0.000000
      g+2     :     0.000000
      g-2     :     0.000000
      g+3     :     0.000000
      g-3     :     0.000000
      g+4     :     0.000000
      g-4     :     0.000000

SPIN
  0 Xes       :     0.000000  s :     0.000000
      pz      :     0.000000  p :     0.000000
      px      :     0.000000
      py      :     0.000000
      dz2     :     0.000000  d :     0.000000
      dxz     :     0.000000
      dyz     :     0.000000
      dx2y2   :     0.000000
      dxy     :     0.000000
      f0      :     0.000000  f :     0.000000
      f+1     :     0.000000
      f-1     :     0.000000
      f+2     :     0.000000
      f-2     :     0.000000
      f+3     :     0.000000
      f-3     :     0.000000
      g0      :     0.000000  g :     0.000000
      g+1     :     0.000000
      g-1     :     0.000000
      g+2     :     0.000000
      g-2     :     0.000000
      g+3     :     0.000000
      g-3     :     0.000000
      g+4     :     0.000000
      g-4     :     0.000000


                     *******************************
                     * LOEWDIN POPULATION ANALYSIS *
                     *******************************

-------------------------------------------
LOEWDIN ATOMIC CHARGES AND SPIN POPULATIONS
-------------------------------------------
   0 Xe:   -0.000000    0.000000

----------------------------------------------------
LOEWDIN REDUCED ORBITAL CHARGES AND SPIN POPULATIONS
----------------------------------------------------
CHARGE
  0 Xes       :    10.000000  s :    10.000000
      pz      :     8.000000  p :    24.000000
      px      :     8.000000
      py      :     8.000000
      dz2     :     4.000000  d :    20.000000
      dxz     :     4.000000
      dyz     :     4.000000
      dx2y2   :     4.000000
      dxy     :     4.000000
      f0      :     0.000000  f :     0.000000
      f+1     :     0.000000
      f-1     :     0.000000
      f+2     :     0.000000
      f-2     :     0.000000
      f+3     :     0.000000
      f-3     :     0.000000
      g0      :     0.000000  g :     0.000000
      g+1     :     0.000000
      g-1     :     0.000000
      g+2     :     0.000000
      g-2     :     0.000000
      g+3     :     0.000000
      g-3     :     0.000000
      g+4     :     0.000000
      g-4     :     0.000000

SPIN
  0 Xes       :     0.000000  s :     0.000000
      pz      :     0.000000  p :     0.000000
      px      :     0.000000
      py      :     0.000000
      dz2     :     0.000000  d :     0.000000
      dxz     :     0.000000
      dyz     :     0.000000
      dx2y2   :     0.000000
      dxy     :     0.000000
      f0      :     0.000000  f :     0.000000
      f+1     :     0.000000
      f-1     :     0.000000
      f+2     :     0.000000
      f-2     :     0.000000
      f+3     :     0.000000
      f-3     :     0.000000
      g0      :     0.000000  g :     0.000000
      g+1     :     0.000000
      g-1     :     0.000000
      g+2     :     0.000000
      g-2     :     0.000000
      g+3     :     0.000000
      g-3     :     0.000000
      g+4     :     0.000000
      g-4     :     0.000000


                      *****************************
                      * MAYER POPULATION ANALYSIS *
                      *****************************

  NA   - Mulliken gross atomic population
  ZA   - Total nuclear charge
  QA   - Mulliken gross atomic charge
  VA   - Mayer's total valence
  BVA  - Mayer's bonded valence
  FA   - Mayer's free valence

  ATOM       NA         ZA         QA         VA         BVA        FA
  0 Xe    54.0000    54.0000    -0.0000    -0.0000     0.0000    -0.0000

  Mayer bond orders larger than 0.100000


-------
TIMINGS
-------

Total SCF time: 0 days 0 hours 10 min 33 sec 

Total time                  ....     633.568 sec
Sum of individual times     ....     632.286 sec  ( 99.8%)

Fock matrix formation       ....     630.114 sec  ( 99.5%)
  XC integration            ....       6.175 sec  (  1.0% of F)
    Basis function eval.    ....       0.083 sec  (  1.3% of XC)
    Density eval.           ....       0.106 sec  (  1.7% of XC)
    XC-Functional eval.     ....       0.050 sec  (  0.8% of XC)
    XC-Potential eval.      ....       0.054 sec  (  0.9% of XC)
Diagonalization             ....       0.149 sec  (  0.0%)
Density matrix formation    ....       0.005 sec  (  0.0%)
Population analysis         ....       0.082 sec  (  0.0%)
Initial guess               ....       0.691 sec  (  0.1%)
Orbital Transformation      ....       0.000 sec  (  0.0%)
Orbital Orthonormalization  ....       0.000 sec  (  0.0%)
DIIS solution               ....       0.090 sec  (  0.0%)
SOSCF solution              ....       0.266 sec  (  0.0%)
Grid generation             ....       0.888 sec  (  0.1%)

Maximum memory used throughout the entire SCF-calculation: 255.1 MB

-------------------------   --------------------
FINAL SINGLE POINT ENERGY     -7582.010819702930
-------------------------   --------------------


                            ***************************************
                            *     ORCA property calculations      *
                            ***************************************

                                    ---------------------
                                    Active property flags
                                    ---------------------
   (+) Dipole Moment


------------------------------------------------------------------------------
                       ORCA ELECTRIC PROPERTIES CALCULATION
------------------------------------------------------------------------------

Dipole Moment Calculation                       ... on
Quadrupole Moment Calculation                   ... off
Polarizability Calculation                      ... off
GBWName                                         ... Xe_ano-rcc-vqzp_pbe.gbw
Electron density                                ... Xe_ano-rcc-vqzp_pbe.scfp
The origin for moment calculation is the CENTER OF MASS  = ( 0.000000,  0.000000  0.000000)

-------------
DIPOLE MOMENT
-------------
                                X             Y             Z
Electronic contribution:      0.00000       0.00000       0.00000
Nuclear contribution   :      0.00000       0.00000       0.00000
                        -----------------------------------------
Total Dipole Moment    :      0.00000       0.00000       0.00000
                        -----------------------------------------
Magnitude (a.u.)       :      0.00000
Magnitude (Debye)      :      0.00000



--------------------
Rotational spectrum 
--------------------
 
Rotational constants in cm-1:     0.000000     0.000000     0.000000 
Rotational constants in MHz :     0.000000     0.000000     0.000000 

 Dipole components along the rotational axes: 
x,y,z [a.u.] :     0.000000     0.000000     0.000000 
x,y,z [Debye]:     0.000000     0.000000     0.000000 

 

Timings for individual modules:

Sum of individual times         ...      681.854 sec (=  11.364 min)
GTO integral calculation        ...       37.163 sec (=   0.619 min)   5.5 %
Relativistic integrals          ...        8.260 sec (=   0.138 min)   1.2 %
SCF iterations                  ...      636.432 sec (=  10.607 min)  93.3 %
                             ****ORCA TERMINATED NORMALLY****
TOTAL RUN TIME: 0 days 0 hours 11 minutes 27 seconds 848 msec
