
                                 *****************
                                 * O   R   C   A *
                                 *****************

                                            #,                                       
                                            ###                                      
                                            ####                                     
                                            #####                                    
                                            ######                                   
                                           ########,                                 
                                     ,,################,,,,,                         
                               ,,#################################,,                 
                          ,,##########################################,,             
                       ,#########################################, ''#####,          
                    ,#############################################,,   '####,        
                  ,##################################################,,,,####,       
                ,###########''''           ''''###############################       
              ,#####''   ,,,,##########,,,,          '''####'''          '####       
            ,##' ,,,,###########################,,,                        '##       
           ' ,,###''''                  '''############,,,                           
         ,,##''                                '''############,,,,        ,,,,,,###''
      ,#''                                            '''#######################'''  
     '                                                          ''''####''''         
             ,#######,   #######,   ,#######,      ##                                
            ,#'     '#,  ##    ##  ,#'     '#,    #''#        ######   ,####,        
            ##       ##  ##   ,#'  ##            #'  '#       #        #'  '#        
            ##       ##  #######   ##           ,######,      #####,   #    #        
            '#,     ,#'  ##    ##  '#,     ,#' ,#      #,         ##   #,  ,#        
             '#######'   ##     ##  '#######'  #'      '#     #####' # '####'        



                  #######################################################
                  #                        -***-                        #
                  #          Department of theory and spectroscopy      #
                  #    Directorship and core code : Frank Neese         #
                  #        Max Planck Institute fuer Kohlenforschung    #
                  #                Kaiser Wilhelm Platz 1               #
                  #                 D-45470 Muelheim/Ruhr               #
                  #                      Germany                        #
                  #                                                     #
                  #                  All rights reserved                #
                  #                        -***-                        #
                  #######################################################


                         Program Version 5.0.1 -  RELEASE  -


 With contributions from (in alphabetic order):
   Daniel Aravena         : Magnetic Suceptibility
   Michael Atanasov       : Ab Initio Ligand Field Theory (pilot matlab implementation)
   Alexander A. Auer      : GIAO ZORA, VPT2 properties, NMR spectrum
   Ute Becker             : Parallelization
   Giovanni Bistoni       : ED, misc. LED, open-shell LED, HFLD
   Martin Brehm           : Molecular dynamics
   Dmytro Bykov           : SCF Hessian
   Vijay G. Chilkuri      : MRCI spin determinant printing, contributions to CSF-ICE
   Dipayan Datta          : RHF DLPNO-CCSD density
   Achintya Kumar Dutta   : EOM-CC, STEOM-CC
   Dmitry Ganyushin       : Spin-Orbit,Spin-Spin,Magnetic field MRCI
   Miquel Garcia          : C-PCM and meta-GGA Hessian, CC/C-PCM, Gaussian charge scheme
   Yang Guo               : DLPNO-NEVPT2, F12-NEVPT2, CIM, IAO-localization
   Andreas Hansen         : Spin unrestricted coupled pair/coupled cluster methods
   Benjamin Helmich-Paris : MC-RPA, TRAH-SCF, COSX integrals
   Lee Huntington         : MR-EOM, pCC
   Robert Izsak           : Overlap fitted RIJCOSX, COSX-SCS-MP3, EOM
   Marcus Kettner         : VPT2
   Christian Kollmar      : KDIIS, OOCD, Brueckner-CCSD(T), CCSD density, CASPT2, CASPT2-K
   Simone Kossmann        : Meta GGA functionals, TD-DFT gradient, OOMP2, MP2 Hessian
   Martin Krupicka        : Initial AUTO-CI
   Lucas Lang             : DCDCAS
   Marvin Lechner         : AUTO-CI (C++ implementation), FIC-MRCC
   Dagmar Lenk            : GEPOL surface, SMD
   Dimitrios Liakos       : Extrapolation schemes; Compound Job, initial MDCI parallelization
   Dimitrios Manganas     : Further ROCIS development; embedding schemes
   Dimitrios Pantazis     : SARC Basis sets
   Anastasios Papadopoulos: AUTO-CI, single reference methods and gradients
   Taras Petrenko         : DFT Hessian,TD-DFT gradient, ASA, ECA, R-Raman, ABS, FL, XAS/XES, NRVS
   Peter Pinski           : DLPNO-MP2, DLPNO-MP2 Gradient
   Christoph Reimann      : Effective Core Potentials
   Marius Retegan         : Local ZFS, SOC
   Christoph Riplinger    : Optimizer, TS searches, QM/MM, DLPNO-CCSD(T), (RO)-DLPNO pert. Triples
   Tobias Risthaus        : Range-separated hybrids, TD-DFT gradient, RPA, STAB
   Michael Roemelt        : Original ROCIS implementation
   Masaaki Saitow         : Open-shell DLPNO-CCSD energy and density
   Barbara Sandhoefer     : DKH picture change effects
   Avijit Sen             : IP-ROCIS
   Kantharuban Sivalingam : CASSCF convergence, NEVPT2, FIC-MRCI
   Bernardo de Souza      : ESD, SOC TD-DFT
   Georgi Stoychev        : AutoAux, RI-MP2 NMR, DLPNO-MP2 response
   Willem Van den Heuvel  : Paramagnetic NMR
   Boris Wezisla          : Elementary symmetry handling
   Frank Wennmohs         : Technical directorship


 We gratefully acknowledge several colleagues who have allowed us to
 interface, adapt or use parts of their codes:
   Stefan Grimme, W. Hujo, H. Kruse, P. Pracht,  : VdW corrections, initial TS optimization,
                  C. Bannwarth, S. Ehlert          DFT functionals, gCP, sTDA/sTD-DF
   Ed Valeev, F. Pavosevic, A. Kumar             : LibInt (2-el integral package), F12 methods
   Garnet Chan, S. Sharma, J. Yang, R. Olivares  : DMRG
   Ulf Ekstrom                                   : XCFun DFT Library
   Mihaly Kallay                                 : mrcc  (arbitrary order and MRCC methods)
   Jiri Pittner, Ondrej Demel                    : Mk-CCSD
   Frank Weinhold                                : gennbo (NPA and NBO analysis)
   Christopher J. Cramer and Donald G. Truhlar   : smd solvation model
   Lars Goerigk                                  : TD-DFT with DH, B97 family of functionals
   V. Asgeirsson, H. Jonsson                     : NEB implementation
   FAccTs GmbH                                   : IRC, NEB, NEB-TS, DLPNO-Multilevel, CI-OPT
                                                   MM, QMMM, 2- and 3-layer-ONIOM, Crystal-QMMM,
                                                   LR-CPCM, SF, NACMEs, symmetry and pop. for TD-DFT,
                                                   nearIR, NL-DFT gradient (VV10), updates on ESD,
                                                   ML-optimized integration grids
   S Lehtola, MJT Oliveira, MAL Marques          : LibXC Library
   Liviu Ungur et al                             : ANISO software


 Your calculation uses the libint2 library for the computation of 2-el integrals
 For citations please refer to: http://libint.valeyev.net

 Your ORCA version has been built with support for libXC version: 5.1.0
 For citations please refer to: https://tddft.org/programs/libxc/

 This ORCA versions uses:
   CBLAS   interface :  Fast vector & matrix operations
   LAPACKE interface :  Fast linear algebra routines
   SCALAPACK package :  Parallel linear algebra routines
   Shared memory     :  Shared parallel matrices
   BLAS/LAPACK       :  OpenBLAS 0.3.15  USE64BITINT DYNAMIC_ARCH NO_AFFINITY Haswell SINGLE_THREADED
        Core in use  :  Haswell
   Copyright (c) 2011-2014, The OpenBLAS Project


SCAN-COORDS

Reading of a custom basis requested
Basis file         : Xe_sarc-zora-tzvpp.basis
READING GTO-BASIS: XENON
Basis successfully read

================================================================================

----- Orbital basis set information -----
================================================================================
                                        WARNINGS
                       Please study these warnings very carefully!
================================================================================


INFO   : the flag for use of the SHARK integral package has been found!

================================================================================
                                       INPUT FILE
================================================================================
NAME = Xe_sarc-zora-tzvpp_pbe.inp
|  1> !uks pbe nori verytightscf soscf notrah
|  2> 
|  3> %pal
|  4>   nprocs 32
|  5> end
|  6> %coords
|  7>   charge 0
|  8>   mult 1
|  9>   units bohrs
| 10>   coords
| 11>     Xe 0.0 0.0 0.0
| 12>   end
| 13> end
| 14> %basis
| 15>   gtoname "Xe_sarc-zora-tzvpp.basis"
| 16>   delECP Xe
| 17> end
| 18> %rel
| 19>   method zora
| 20>   modelpot 1, 0, 0, 0
| 21>   c 137.035999084
| 22> endd                         ****END OF INPUT****
================================================================================

                       ****************************
                       * Single Point Calculation *
                       ****************************

---------------------------------
CARTESIAN COORDINATES (ANGSTROEM)
---------------------------------
  Xe     0.000000    0.000000    0.000000

----------------------------
CARTESIAN COORDINATES (A.U.)
----------------------------
  NO LB      ZA    FRAG     MASS         X           Y           Z
   0 Xe   54.0000    0   131.300    0.000000    0.000000    0.000000

--------------------------------
INTERNAL COORDINATES (ANGSTROEM)
--------------------------------
 Xe     0   0   0     0.000000000000     0.00000000     0.00000000

---------------------------
INTERNAL COORDINATES (A.U.)
---------------------------
 Xe     0   0   0     0.000000000000     0.00000000     0.00000000

---------------------
BASIS SET INFORMATION
---------------------
There are 1 groups of distinct atoms

 Group   1 Type Xe  : 22s16p9d2f contracted to 15s11p5d2f pattern {811111111111111/61111111111/51111/11}

Atom   0Xe   basis set group =>   1


           ************************************************************
           *        Program running with 32 parallel MPI-processes    *
           *              working on a common directory               *
           ************************************************************
------------------------------------------------------------------------------
                           ORCA GTO INTEGRAL CALCULATION
------------------------------------------------------------------------------
------------------------------------------------------------------------------
                   ___                                                        
                  /   \      - P O W E R E D   B Y -                         
                 /     \                                                     
                 |  |  |   _    _      __       _____    __    __             
                 |  |  |  | |  | |    /  \     |  _  \  |  |  /  |          
                  \  \/   | |  | |   /    \    | | | |  |  | /  /          
                 / \  \   | |__| |  /  /\  \   | |_| |  |  |/  /          
                |  |  |   |  __  | /  /__\  \  |    /   |      \           
                |  |  |   | |  | | |   __   |  |    \   |  |\   \          
                \     /   | |  | | |  |  |  |  | |\  \  |  | \   \       
                 \___/    |_|  |_| |__|  |__|  |_| \__\ |__|  \__/        
                                                                              
                      - O R C A' S   B I G   F R I E N D -                    
                                      &                                       
                       - I N T E G R A L  F E E D E R -                       
                                                                              
 v1 FN, 2020, v2 2021                                                         
------------------------------------------------------------------------------


Reading SHARK input file Xe_sarc-zora-tzvpp_pbe.SHARKINP.tmp ... ok
----------------------
SHARK INTEGRAL PACKAGE
----------------------

Number of atoms                             ...      1
Number of basis functions                   ...     87
Number of shells                            ...     33
Maximum angular momentum                    ...      3
Integral batch strategy                     ... SHARK/LIBINT Hybrid
RI-J (if used) integral strategy            ... SPLIT-RIJ (Revised 2003 algorithm where possible)
Printlevel                                  ...      1
Contraction scheme used                     ... SEGMENTED contraction
Coulomb Range Separation                    ... NOT USED
Exchange Range Separation                   ... NOT USED
Finite Nucleus Model                        ... NOT USED
Auxiliary Coulomb fitting basis             ... NOT available
Auxiliary J/K fitting basis                 ... NOT available
Auxiliary Correlation fitting basis         ... NOT available
Auxiliary 'external' fitting basis          ... NOT available
Integral threshold                          ...     1.000000e-12
Primitive cut-off                           ...     1.000000e-14
Primitive pair pre-selection threshold      ...     1.000000e-14

Calculating pre-screening integrals         ... done (  3.8 sec) Dimension = 33
Organizing shell pair data                  ... done (  1.9 sec)
Shell pair information
Total number of shell pairs                 ...       561
Shell pairs after pre-screening             ...       561
Total number of primitive shell pairs       ...      1278
Primitive shell pairs kept                  ...      1278
          la=0 lb=0:    120 shell pairs
          la=1 lb=0:    165 shell pairs
          la=1 lb=1:     66 shell pairs
          la=2 lb=0:     75 shell pairs
          la=2 lb=1:     55 shell pairs
          la=2 lb=2:     15 shell pairs
          la=3 lb=0:     30 shell pairs
          la=3 lb=1:     22 shell pairs
          la=3 lb=2:     10 shell pairs
          la=3 lb=3:      3 shell pairs

Calculating one electron integrals          ... done (  2.7 sec)
Calculating Nuclear repulsion               ... done (  0.0 sec) ENN=      0.000000000000 Eh

SHARK setup successfully completed in  12.4 seconds

Maximum memory used throughout the entire GTOINT-calculation: 15.9 MB


           ************************************************************
           *        Program running with 32 parallel MPI-processes    *
           *              working on a common directory               *
           ************************************************************
------------------------------------------------------------------------------
                          ORCA RELATIVISTIC HAMILTONIAN
------------------------------------------------------------------------------

Relativistic Method            ... ZORA(MP)
Treatment of potential         ... Van Wuellen
Nucleus model                  ... Point Nucleus
Speed of light used            ... 137.03599908400000


            *************************************************
            *         ZERO ORDER REGULAR APPROXIMATION      *
            *                     ZORA(MP)                  *
            *            Programmed by FN according to      *
            *                   C. van Wuellen              *
            *       J. Chem. Phys. (1998) vol 109, 392-399  *
            *************************************************

Terms included in model potential: +V(e,N)
Basis function cutoff value   ... 1.000000e-12
Loading the fitted atomic densities  (DKH4)  ... done
Calculating the cutoffs                      ... done
Number of fit functions                      ... 32
Setting up the integration grid ... done

Maximum memory used throughout the entire REL-calculation: 10.3 MB


           ************************************************************
           *        Program running with 32 parallel MPI-processes    *
           *              working on a common directory               *
           ************************************************************
-------------------------------------------------------------------------------
                                 ORCA SCF
-------------------------------------------------------------------------------

------------
SCF SETTINGS
------------
Hamiltonian:
 Density Functional     Method          .... DFT(GTOs)
 Exchange Functional    Exchange        .... PBE
   PBE kappa parameter   XKappa         ....  0.804000
   PBE mue parameter    XMuePBE         ....  0.219520
 Correlation Functional Correlation     .... PBE
   PBE beta parameter  CBetaPBE         ....  0.066725
 LDA part of GGA corr.  LDAOpt          .... PW91-LDA
 Gradients option       PostSCFGGA      .... off
   Density functional embedding theory  .... OFF
   NL short-range parameter             ....  6.400000

Relativistic Settings:
 Scalar relativistic method             .... ZORA
 Speed of light used       Velit        ....       137.035999
Orbital energies will be scaled


General Settings:
 Integral files         IntName         .... Xe_sarc-zora-tzvpp_pbe
 Hartree-Fock type      HFTyp           .... UHF
 Total Charge           Charge          ....    0
 Multiplicity           Mult            ....    1
 Number of Electrons    NEL             ....   54
 Basis Dimension        Dim             ....   87
 Nuclear Repulsion      ENuc            ....      0.0000000000 Eh

Convergence Acceleration:
 DIIS                   CNVDIIS         .... on
   Start iteration      DIISMaxIt       ....    12
   Startup error        DIISStart       ....  0.200000
   # of expansion vecs  DIISMaxEq       ....     5
   Bias factor          DIISBfac        ....   1.050
   Max. coefficient     DIISMaxC        ....  10.000
 Trust-Rad. Augm. Hess. CNVTRAH         .... off
 SOSCF                  CNVSOSCF        .... on
   Start iteration      SOSCFMaxIt      ....   150
   Startup grad/error   SOSCFStart      ....  0.003300
 Level Shifting         CNVShift        .... on
   Level shift para.    LevelShift      ....    0.2500
   Turn off err/grad.   ShiftErr        ....    0.0010
 Zerner damping         CNVZerner       .... off
 Static damping         CNVDamp         .... on
   Fraction old density DampFac         ....    0.7000
   Max. Damping (<1)    DampMax         ....    0.9800
   Min. Damping (>=0)   DampMin         ....    0.0000
   Turn off err/grad.   DampErr         ....    0.1000
 Fernandez-Rico         CNVRico         .... off

SCF Procedure:
 Maximum # iterations   MaxIter         ....   125
 SCF integral mode      SCFMode         .... Direct
   Integral package                     .... SHARK and LIBINT hybrid scheme
 Reset frequency        DirectResetFreq ....    20
 Integral Threshold     Thresh          ....  1.000e-12 Eh
 Primitive CutOff       TCut            ....  1.000e-14 Eh

Convergence Tolerance:
 Convergence Check Mode ConvCheckMode   .... Total+1el-Energy
 Convergence forced     ConvForced      .... 0
 Energy Change          TolE            ....  1.000e-09 Eh
 1-El. energy change                    ....  1.000e-06 Eh
 Orbital Gradient       TolG            ....  2.000e-06
 Orbital Rotation angle TolX            ....  2.000e-06
 DIIS Error             TolErr          ....  1.000e-08


Diagonalization of the overlap matrix:
Smallest eigenvalue                        ... 7.226e-04
Time for diagonalization                   ...    0.900 sec
Threshold for overlap eigenvalues          ... 1.000e-08
Number of eigenvalues below threshold      ... 0
Time for construction of square roots      ...    1.452 sec
Total time needed                          ...    2.353 sec

Time for model grid setup =    0.258 sec

------------------------------
INITIAL GUESS: MODEL POTENTIAL
------------------------------
Loading ZORA relativistic densities                ... done
Calculating cut-offs                               ... done
Initializing the effective Hamiltonian             ... done
Setting up the integral package (SHARK)            ... done
Starting the Coulomb interaction                   ... done (   6.5 sec)
Reading the grid                                   ... done
Mapping shells                                     ... done
Starting the XC term evaluation                    ... done (   1.7 sec)
  promolecular density results
     # of electrons  =     54.003162780
     EX              =   -195.356567898
     EC              =     -2.901221558
     EX+EC           =   -198.257789456
Transforming the Hamiltonian                       ... done (   0.6 sec)
Diagonalizing the Hamiltonian                      ... done (   0.3 sec)
Back transforming the eigenvectors                 ... done (   0.0 sec)
Now organizing SCF variables                       ... done
                      ------------------
                      INITIAL GUESS DONE (  10.0 sec)
                      ------------------
-------------------
DFT GRID GENERATION
-------------------

General Integration Accuracy     IntAcc      ... 4.388
Radial Grid Type                 RadialGrid  ... OptM3 with GC (2021)
Angular Grid (max. ang.)         AngularGrid ... 4 (Lebedev-302)
Angular grid pruning method      GridPruning ... 4 (adaptive)
Weight generation scheme         WeightScheme... Becke
Basis function cutoff            BFCut       ... 1.0000e-12
Integration weight cutoff        WCut        ... 1.0000e-14
Angular grids for H and He will be reduced by one unit
Partially contracted basis set               ... off
Rotationally invariant grid construction     ... off

Total number of grid points                  ...    27544
Total number of batches                      ...      431
Average number of points per batch           ...       63
Average number of grid points per atom       ...    27544
Time for grid setup =    0.803 sec

--------------
SCF ITERATIONS
--------------
ITER       Energy         Delta-E        Max-DP      RMS-DP      [F,P]     Damp
               ***  Starting incremental Fock matrix formation  ***
  0  -7608.5147986066   0.000000000000 0.02282299  0.00088066  7.2452465 0.7000
  1  -7608.5653826213  -0.050584014705 0.01149201  0.00044831  5.0196614 0.7000
  2  -7608.5936717959  -0.028289174562 0.00548826  0.00018950  3.4794272 0.7000
  3  -7608.6119230533  -0.018251257449 0.00349813  0.00010100  2.4129509 0.7000
  4  -7608.6243486159  -0.012425562602 0.00292158  0.00006914  1.6739749 0.7000
  5  -7608.6329370287  -0.008588412824 0.00199355  0.00004650  1.1616414 0.7000
                      *** Initiating the SOSCF procedure ***
                      *** Re-Reading the Fockian *** 
                      *** Removing any level shift *** 
ITER      Energy       Delta-E        Grad      Rot      Max-DP    RMS-DP
  6  -7608.63890583  -0.0059688023  0.002859  0.002859  0.004101  0.000097
               *** Restarting incremental Fock matrix formation ***
  7  -7608.65271951  -0.0138136795  0.006797  0.000440  0.001659  0.000042
  8  -7608.65273062  -0.0000111110  0.000968  0.000205  0.000522  0.000015
  9  -7608.65273206  -0.0000014407  0.000185  0.000037  0.000085  0.000002
 10  -7608.65273208  -0.0000000197  0.000051  0.000007  0.000015  0.000000
 11  -7608.65273208  -0.0000000014  0.000002  0.000001  0.000003  0.000000
 12  -7608.65273208   0.0000000000  0.000002  0.000000  0.000002  0.000000
                 **** Energy Check signals convergence ****
              ***Rediagonalizing the Fockian in SOSCF/NRSCF***

               *****************************************************
               *                     SUCCESS                       *
               *           SCF CONVERGED AFTER  13 CYCLES          *
               *****************************************************


----------------
TOTAL SCF ENERGY
----------------

Total Energy       :        -7608.65273208 Eh         -207041.96665 eV

Components:
Nuclear Repulsion  :            0.00000000 Eh               0.00000 eV
Electronic Energy  :        -7608.65273208 Eh         -207041.96665 eV
One Electron Energy:       -10369.48874869 Eh         -282168.13400 eV
Two Electron Energy:         2760.83601661 Eh           75126.16735 eV

Virial components:
Potential Energy   :       -15615.35983168 Eh         -424915.54331 eV
Kinetic Energy     :         8006.70709959 Eh          217873.57666 eV
Virial Ratio       :            1.95028488


DFT components:
N(Alpha)           :       26.999999999892 electrons
N(Beta)            :       26.999999999892 electrons
N(Total)           :       53.999999999783 electrons
E(X)               :     -185.870078440428 Eh       
E(C)               :       -2.908653494924 Eh       
E(XC)              :     -188.778731935352 Eh       
DFET-embed. en.    :        0.000000000000 Eh       

---------------
SCF CONVERGENCE
---------------

  Last Energy change         ...   -9.0949e-12  Tolerance :   1.0000e-09
  Last MAX-Density change    ...    1.7594e-08  Tolerance :   1.0000e-08
  Last RMS-Density change    ...    3.3915e-10  Tolerance :   1.0000e-09
  Last Orbital Gradient      ...    3.8462e-08  Tolerance :   2.0000e-06
  Last Orbital Rotation      ...    1.4235e-09  Tolerance :   2.0000e-06

             **** THE GBW FILE WAS UPDATED (Xe_sarc-zora-tzvpp_pbe.gbw) ****
             **** DENSITY Xe_sarc-zora-tzvpp_pbe.scfp WAS UPDATED ****
             **** ENERGY FILE WAS UPDATED (Xe_sarc-zora-tzvpp_pbe.en.tmp) ****
----------------------
UHF SPIN CONTAMINATION
----------------------

Warning: in a DFT calculation there is little theoretical justification to 
         calculate <S**2> as in Hartree-Fock theory. We will do it anyways
         but you should keep in mind that the values have only limited relevance

Expectation value of <S**2>     :    -0.000000
Ideal value S*(S+1) for S=0.0   :     0.000000
Deviation                       :    -0.000000

             **** THE GBW FILE WAS UPDATED (Xe_sarc-zora-tzvpp_pbe.gbw) ****
             **** DENSITY Xe_sarc-zora-tzvpp_pbe.scfp WAS UPDATED ****
----------------
ORBITAL ENERGIES
----------------
                 SPIN UP ORBITALS
  NO   OCC          E(Eh)            E(eV) 
   0   1.0000   -1323.249154    -36007.4401 
   1   1.0000    -199.594480     -5431.2419 
   2   1.0000    -178.847793     -4866.6959 
   3   1.0000    -178.847793     -4866.6959 
   4   1.0000    -178.847793     -4866.6959 
   5   1.0000     -40.608451     -1105.0121 
   6   1.0000     -33.975431      -924.5185 
   7   1.0000     -33.975431      -924.5185 
   8   1.0000     -33.975431      -924.5185 
   9   1.0000     -24.171768      -657.7473 
  10   1.0000     -24.171768      -657.7473 
  11   1.0000     -24.171768      -657.7473 
  12   1.0000     -24.171768      -657.7473 
  13   1.0000     -24.171768      -657.7473 
  14   1.0000      -7.323119      -199.2722 
  15   1.0000      -5.228445      -142.2732 
  16   1.0000      -5.228445      -142.2732 
  17   1.0000      -5.228445      -142.2732 
  18   1.0000      -2.179505       -59.3074 
  19   1.0000      -2.179505       -59.3074 
  20   1.0000      -2.179505       -59.3074 
  21   1.0000      -2.179505       -59.3074 
  22   1.0000      -2.179505       -59.3074 
  23   1.0000      -0.730640       -19.8817 
  24   1.0000      -0.303164        -8.2495 
  25   1.0000      -0.303164        -8.2495 
  26   1.0000      -0.303164        -8.2495 
  27   0.0000       0.033063         0.8997 
  28   0.0000       0.033063         0.8997 
  29   0.0000       0.033063         0.8997 
  30   0.0000       0.041743         1.1359 
  31   0.0000       0.244861         6.6630 
  32   0.0000       0.244861         6.6630 
  33   0.0000       0.244861         6.6630 
  34   0.0000       0.288437         7.8488 
  35   0.0000       0.288437         7.8488 
  36   0.0000       0.288437         7.8488 
  37   0.0000       0.288437         7.8488 
  38   0.0000       0.288437         7.8488 
  39   0.0000       0.685523        18.6540 
  40   0.0000       0.685523        18.6540 
  41   0.0000       0.685523        18.6540 
  42   0.0000       0.685523        18.6540 
  43   0.0000       0.685523        18.6540 
  44   0.0000       0.685523        18.6540 
  45   0.0000       0.685523        18.6540 
  46   0.0000       0.709697        19.3118 
  47   0.0000       1.065071        28.9821 
  48   0.0000       1.065071        28.9821 
  49   0.0000       1.065071        28.9821 
  50   0.0000       2.147078        58.4250 
  51   0.0000       2.147078        58.4250 
  52   0.0000       2.147078        58.4250 
  53   0.0000       2.147078        58.4250 
  54   0.0000       2.147078        58.4250 
  55   0.0000       2.615977        71.1844 
  56   0.0000       2.615977        71.1844 
  57   0.0000       2.615977        71.1844 
  58   0.0000       2.615977        71.1844 
  59   0.0000       2.615977        71.1844 
  60   0.0000       2.615977        71.1844 
  61   0.0000       2.615977        71.1844 
  62   0.0000       3.187691        86.7415 
  63   0.0000       4.655311       126.6774 
  64   0.0000       4.655311       126.6774 
  65   0.0000       4.655311       126.6774 
  66   0.0000      11.500632       312.9481 
  67   0.0000      11.500632       312.9481 
  68   0.0000      11.500632       312.9481 
  69   0.0000      11.500632       312.9481 
  70   0.0000      11.500632       312.9481 
  71   0.0000      13.295407       361.7864 
  72   0.0000      23.898312       650.3061 
  73   0.0000      23.898312       650.3061 
  74   0.0000      23.898312       650.3061 
  75   0.0000      57.157729      1555.3409 
  76   0.0000     122.025207      3320.4747 
  77   0.0000     122.025207      3320.4747 
  78   0.0000     122.025207      3320.4747 
  79   0.0000     228.321002      6212.9303 
  80   0.0000     576.176898     15678.5705 
  81   0.0000     576.176898     15678.5705 
  82   0.0000     576.176898     15678.5705 
  83   0.0000     790.043561     21498.1782 
  84   0.0000    2416.077638     65744.8149 
  85   0.0000    6762.778974    184024.5715 
  86   0.0000   23524.803956    640142.4599 

                 SPIN DOWN ORBITALS
  NO   OCC          E(Eh)            E(eV) 
   0   1.0000   -1323.249154    -36007.4401 
   1   1.0000    -199.594480     -5431.2419 
   2   1.0000    -178.847793     -4866.6959 
   3   1.0000    -178.847793     -4866.6959 
   4   1.0000    -178.847793     -4866.6959 
   5   1.0000     -40.608451     -1105.0121 
   6   1.0000     -33.975431      -924.5185 
   7   1.0000     -33.975431      -924.5185 
   8   1.0000     -33.975431      -924.5185 
   9   1.0000     -24.171768      -657.7473 
  10   1.0000     -24.171768      -657.7473 
  11   1.0000     -24.171768      -657.7473 
  12   1.0000     -24.171768      -657.7473 
  13   1.0000     -24.171768      -657.7473 
  14   1.0000      -7.323119      -199.2722 
  15   1.0000      -5.228445      -142.2732 
  16   1.0000      -5.228445      -142.2732 
  17   1.0000      -5.228445      -142.2732 
  18   1.0000      -2.179505       -59.3074 
  19   1.0000      -2.179505       -59.3074 
  20   1.0000      -2.179505       -59.3074 
  21   1.0000      -2.179505       -59.3074 
  22   1.0000      -2.179505       -59.3074 
  23   1.0000      -0.730640       -19.8817 
  24   1.0000      -0.303164        -8.2495 
  25   1.0000      -0.303164        -8.2495 
  26   1.0000      -0.303164        -8.2495 
  27   0.0000       0.033063         0.8997 
  28   0.0000       0.033063         0.8997 
  29   0.0000       0.033063         0.8997 
  30   0.0000       0.041743         1.1359 
  31   0.0000       0.244861         6.6630 
  32   0.0000       0.244861         6.6630 
  33   0.0000       0.244861         6.6630 
  34   0.0000       0.288437         7.8488 
  35   0.0000       0.288437         7.8488 
  36   0.0000       0.288437         7.8488 
  37   0.0000       0.288437         7.8488 
  38   0.0000       0.288437         7.8488 
  39   0.0000       0.685523        18.6540 
  40   0.0000       0.685523        18.6540 
  41   0.0000       0.685523        18.6540 
  42   0.0000       0.685523        18.6540 
  43   0.0000       0.685523        18.6540 
  44   0.0000       0.685523        18.6540 
  45   0.0000       0.685523        18.6540 
  46   0.0000       0.709697        19.3118 
  47   0.0000       1.065071        28.9821 
  48   0.0000       1.065071        28.9821 
  49   0.0000       1.065071        28.9821 
  50   0.0000       2.147078        58.4250 
  51   0.0000       2.147078        58.4250 
  52   0.0000       2.147078        58.4250 
  53   0.0000       2.147078        58.4250 
  54   0.0000       2.147078        58.4250 
  55   0.0000       2.615977        71.1844 
  56   0.0000       2.615977        71.1844 
  57   0.0000       2.615977        71.1844 
  58   0.0000       2.615977        71.1844 
  59   0.0000       2.615977        71.1844 
  60   0.0000       2.615977        71.1844 
  61   0.0000       2.615977        71.1844 
  62   0.0000       3.187691        86.7415 
  63   0.0000       4.655311       126.6774 
  64   0.0000       4.655311       126.6774 
  65   0.0000       4.655311       126.6774 
  66   0.0000      11.500632       312.9481 
  67   0.0000      11.500632       312.9481 
  68   0.0000      11.500632       312.9481 
  69   0.0000      11.500632       312.9481 
  70   0.0000      11.500632       312.9481 
  71   0.0000      13.295407       361.7864 
  72   0.0000      23.898312       650.3061 
  73   0.0000      23.898312       650.3061 
  74   0.0000      23.898312       650.3061 
  75   0.0000      57.157729      1555.3409 
  76   0.0000     122.025207      3320.4747 
  77   0.0000     122.025207      3320.4747 
  78   0.0000     122.025207      3320.4747 
  79   0.0000     228.321002      6212.9303 
  80   0.0000     576.176898     15678.5705 
  81   0.0000     576.176898     15678.5705 
  82   0.0000     576.176898     15678.5705 
  83   0.0000     790.043561     21498.1782 
  84   0.0000    2416.077638     65744.8149 
  85   0.0000    6762.778974    184024.5715 
  86   0.0000   23524.803956    640142.4599 

                    ********************************
                    * MULLIKEN POPULATION ANALYSIS *
                    ********************************

--------------------------------------------
MULLIKEN ATOMIC CHARGES AND SPIN POPULATIONS
--------------------------------------------
   0 Xe:    0.000000    0.000000
Sum of atomic charges         :    0.0000000
Sum of atomic spin populations:    0.0000000

-----------------------------------------------------
MULLIKEN REDUCED ORBITAL CHARGES AND SPIN POPULATIONS
-----------------------------------------------------
CHARGE
  0 Xes       :    10.000000  s :    10.000000
      pz      :     8.000000  p :    24.000000
      px      :     8.000000
      py      :     8.000000
      dz2     :     4.000000  d :    20.000000
      dxz     :     4.000000
      dyz     :     4.000000
      dx2y2   :     4.000000
      dxy     :     4.000000
      f0      :     0.000000  f :     0.000000
      f+1     :     0.000000
      f-1     :     0.000000
      f+2     :     0.000000
      f-2     :     0.000000
      f+3     :     0.000000
      f-3     :     0.000000

SPIN
  0 Xes       :     0.000000  s :     0.000000
      pz      :     0.000000  p :     0.000000
      px      :     0.000000
      py      :     0.000000
      dz2     :     0.000000  d :     0.000000
      dxz     :     0.000000
      dyz     :     0.000000
      dx2y2   :     0.000000
      dxy     :     0.000000
      f0      :     0.000000  f :     0.000000
      f+1     :     0.000000
      f-1     :     0.000000
      f+2     :     0.000000
      f-2     :     0.000000
      f+3     :     0.000000
      f-3     :     0.000000


                     *******************************
                     * LOEWDIN POPULATION ANALYSIS *
                     *******************************

-------------------------------------------
LOEWDIN ATOMIC CHARGES AND SPIN POPULATIONS
-------------------------------------------
   0 Xe:   -0.000000    0.000000

----------------------------------------------------
LOEWDIN REDUCED ORBITAL CHARGES AND SPIN POPULATIONS
----------------------------------------------------
CHARGE
  0 Xes       :    10.000000  s :    10.000000
      pz      :     8.000000  p :    24.000000
      px      :     8.000000
      py      :     8.000000
      dz2     :     4.000000  d :    20.000000
      dxz     :     4.000000
      dyz     :     4.000000
      dx2y2   :     4.000000
      dxy     :     4.000000
      f0      :     0.000000  f :     0.000000
      f+1     :     0.000000
      f-1     :     0.000000
      f+2     :     0.000000
      f-2     :     0.000000
      f+3     :     0.000000
      f-3     :     0.000000

SPIN
  0 Xes       :     0.000000  s :     0.000000
      pz      :     0.000000  p :     0.000000
      px      :     0.000000
      py      :     0.000000
      dz2     :     0.000000  d :     0.000000
      dxz     :     0.000000
      dyz     :     0.000000
      dx2y2   :     0.000000
      dxy     :     0.000000
      f0      :     0.000000  f :     0.000000
      f+1     :     0.000000
      f-1     :     0.000000
      f+2     :     0.000000
      f-2     :     0.000000
      f+3     :     0.000000
      f-3     :     0.000000


                      *****************************
                      * MAYER POPULATION ANALYSIS *
                      *****************************

  NA   - Mulliken gross atomic population
  ZA   - Total nuclear charge
  QA   - Mulliken gross atomic charge
  VA   - Mayer's total valence
  BVA  - Mayer's bonded valence
  FA   - Mayer's free valence

  ATOM       NA         ZA         QA         VA         BVA        FA
  0 Xe    54.0000    54.0000     0.0000    -0.0000     0.0000    -0.0000

  Mayer bond orders larger than 0.100000


-------
TIMINGS
-------

Total SCF time: 0 days 0 hours 0 min 55 sec 

Total time                  ....      55.792 sec
Sum of individual times     ....      44.282 sec  ( 79.4%)

Fock matrix formation       ....      32.569 sec  ( 58.4%)
  XC integration            ....       9.234 sec  ( 28.4% of F)
    Basis function eval.    ....       0.022 sec  (  0.2% of XC)
    Density eval.           ....       0.137 sec  (  1.5% of XC)
    XC-Functional eval.     ....       0.033 sec  (  0.4% of XC)
    XC-Potential eval.      ....       0.133 sec  (  1.4% of XC)
Diagonalization             ....       0.144 sec  (  0.3%)
Density matrix formation    ....       0.005 sec  (  0.0%)
Population analysis         ....       0.211 sec  (  0.4%)
Initial guess               ....       9.768 sec  ( 17.5%)
Orbital Transformation      ....       0.000 sec  (  0.0%)
Orbital Orthonormalization  ....       0.000 sec  (  0.0%)
DIIS solution               ....       0.029 sec  (  0.1%)
SOSCF solution              ....       0.495 sec  (  0.9%)
Grid generation             ....       1.061 sec  (  1.9%)

Maximum memory used throughout the entire SCF-calculation: 227.8 MB

-------------------------   --------------------
FINAL SINGLE POINT ENERGY     -7608.652732083291
-------------------------   --------------------


                            ***************************************
                            *     ORCA property calculations      *
                            ***************************************

                                    ---------------------
                                    Active property flags
                                    ---------------------
   (+) Dipole Moment


------------------------------------------------------------------------------
                       ORCA ELECTRIC PROPERTIES CALCULATION
------------------------------------------------------------------------------

Dipole Moment Calculation                       ... on
Quadrupole Moment Calculation                   ... off
Polarizability Calculation                      ... off
GBWName                                         ... Xe_sarc-zora-tzvpp_pbe.gbw
Electron density                                ... Xe_sarc-zora-tzvpp_pbe.scfp
The origin for moment calculation is the CENTER OF MASS  = ( 0.000000,  0.000000  0.000000)

-------------
DIPOLE MOMENT
-------------
                                X             Y             Z
Electronic contribution:      0.00000      -0.00000       0.00000
Nuclear contribution   :      0.00000       0.00000       0.00000
                        -----------------------------------------
Total Dipole Moment    :      0.00000      -0.00000       0.00000
                        -----------------------------------------
Magnitude (a.u.)       :      0.00000
Magnitude (Debye)      :      0.00000



--------------------
Rotational spectrum 
--------------------
 
Rotational constants in cm-1:     0.000000     0.000000     0.000000 
Rotational constants in MHz :     0.000000     0.000000     0.000000 

 Dipole components along the rotational axes: 
x,y,z [a.u.] :     0.000000    -0.000000     0.000000 
x,y,z [Debye]:     0.000000    -0.000000     0.000000 

 

Timings for individual modules:

Sum of individual times         ...      153.140 sec (=   2.552 min)
GTO integral calculation        ...       79.334 sec (=   1.322 min)  51.8 %
Relativistic integrals          ...       14.589 sec (=   0.243 min)   9.5 %
SCF iterations                  ...       59.217 sec (=   0.987 min)  38.7 %
                             ****ORCA TERMINATED NORMALLY****
TOTAL RUN TIME: 0 days 0 hours 2 minutes 47 seconds 913 msec
