
                                 *****************
                                 * O   R   C   A *
                                 *****************

                                            #,                                       
                                            ###                                      
                                            ####                                     
                                            #####                                    
                                            ######                                   
                                           ########,                                 
                                     ,,################,,,,,                         
                               ,,#################################,,                 
                          ,,##########################################,,             
                       ,#########################################, ''#####,          
                    ,#############################################,,   '####,        
                  ,##################################################,,,,####,       
                ,###########''''           ''''###############################       
              ,#####''   ,,,,##########,,,,          '''####'''          '####       
            ,##' ,,,,###########################,,,                        '##       
           ' ,,###''''                  '''############,,,                           
         ,,##''                                '''############,,,,        ,,,,,,###''
      ,#''                                            '''#######################'''  
     '                                                          ''''####''''         
             ,#######,   #######,   ,#######,      ##                                
            ,#'     '#,  ##    ##  ,#'     '#,    #''#        ######   ,####,        
            ##       ##  ##   ,#'  ##            #'  '#       #        #'  '#        
            ##       ##  #######   ##           ,######,      #####,   #    #        
            '#,     ,#'  ##    ##  '#,     ,#' ,#      #,         ##   #,  ,#        
             '#######'   ##     ##  '#######'  #'      '#     #####' # '####'        



                  #######################################################
                  #                        -***-                        #
                  #          Department of theory and spectroscopy      #
                  #    Directorship and core code : Frank Neese         #
                  #        Max Planck Institute fuer Kohlenforschung    #
                  #                Kaiser Wilhelm Platz 1               #
                  #                 D-45470 Muelheim/Ruhr               #
                  #                      Germany                        #
                  #                                                     #
                  #                  All rights reserved                #
                  #                        -***-                        #
                  #######################################################


                         Program Version 5.0.1 -  RELEASE  -


 With contributions from (in alphabetic order):
   Daniel Aravena         : Magnetic Suceptibility
   Michael Atanasov       : Ab Initio Ligand Field Theory (pilot matlab implementation)
   Alexander A. Auer      : GIAO ZORA, VPT2 properties, NMR spectrum
   Ute Becker             : Parallelization
   Giovanni Bistoni       : ED, misc. LED, open-shell LED, HFLD
   Martin Brehm           : Molecular dynamics
   Dmytro Bykov           : SCF Hessian
   Vijay G. Chilkuri      : MRCI spin determinant printing, contributions to CSF-ICE
   Dipayan Datta          : RHF DLPNO-CCSD density
   Achintya Kumar Dutta   : EOM-CC, STEOM-CC
   Dmitry Ganyushin       : Spin-Orbit,Spin-Spin,Magnetic field MRCI
   Miquel Garcia          : C-PCM and meta-GGA Hessian, CC/C-PCM, Gaussian charge scheme
   Yang Guo               : DLPNO-NEVPT2, F12-NEVPT2, CIM, IAO-localization
   Andreas Hansen         : Spin unrestricted coupled pair/coupled cluster methods
   Benjamin Helmich-Paris : MC-RPA, TRAH-SCF, COSX integrals
   Lee Huntington         : MR-EOM, pCC
   Robert Izsak           : Overlap fitted RIJCOSX, COSX-SCS-MP3, EOM
   Marcus Kettner         : VPT2
   Christian Kollmar      : KDIIS, OOCD, Brueckner-CCSD(T), CCSD density, CASPT2, CASPT2-K
   Simone Kossmann        : Meta GGA functionals, TD-DFT gradient, OOMP2, MP2 Hessian
   Martin Krupicka        : Initial AUTO-CI
   Lucas Lang             : DCDCAS
   Marvin Lechner         : AUTO-CI (C++ implementation), FIC-MRCC
   Dagmar Lenk            : GEPOL surface, SMD
   Dimitrios Liakos       : Extrapolation schemes; Compound Job, initial MDCI parallelization
   Dimitrios Manganas     : Further ROCIS development; embedding schemes
   Dimitrios Pantazis     : SARC Basis sets
   Anastasios Papadopoulos: AUTO-CI, single reference methods and gradients
   Taras Petrenko         : DFT Hessian,TD-DFT gradient, ASA, ECA, R-Raman, ABS, FL, XAS/XES, NRVS
   Peter Pinski           : DLPNO-MP2, DLPNO-MP2 Gradient
   Christoph Reimann      : Effective Core Potentials
   Marius Retegan         : Local ZFS, SOC
   Christoph Riplinger    : Optimizer, TS searches, QM/MM, DLPNO-CCSD(T), (RO)-DLPNO pert. Triples
   Tobias Risthaus        : Range-separated hybrids, TD-DFT gradient, RPA, STAB
   Michael Roemelt        : Original ROCIS implementation
   Masaaki Saitow         : Open-shell DLPNO-CCSD energy and density
   Barbara Sandhoefer     : DKH picture change effects
   Avijit Sen             : IP-ROCIS
   Kantharuban Sivalingam : CASSCF convergence, NEVPT2, FIC-MRCI
   Bernardo de Souza      : ESD, SOC TD-DFT
   Georgi Stoychev        : AutoAux, RI-MP2 NMR, DLPNO-MP2 response
   Willem Van den Heuvel  : Paramagnetic NMR
   Boris Wezisla          : Elementary symmetry handling
   Frank Wennmohs         : Technical directorship


 We gratefully acknowledge several colleagues who have allowed us to
 interface, adapt or use parts of their codes:
   Stefan Grimme, W. Hujo, H. Kruse, P. Pracht,  : VdW corrections, initial TS optimization,
                  C. Bannwarth, S. Ehlert          DFT functionals, gCP, sTDA/sTD-DF
   Ed Valeev, F. Pavosevic, A. Kumar             : LibInt (2-el integral package), F12 methods
   Garnet Chan, S. Sharma, J. Yang, R. Olivares  : DMRG
   Ulf Ekstrom                                   : XCFun DFT Library
   Mihaly Kallay                                 : mrcc  (arbitrary order and MRCC methods)
   Jiri Pittner, Ondrej Demel                    : Mk-CCSD
   Frank Weinhold                                : gennbo (NPA and NBO analysis)
   Christopher J. Cramer and Donald G. Truhlar   : smd solvation model
   Lars Goerigk                                  : TD-DFT with DH, B97 family of functionals
   V. Asgeirsson, H. Jonsson                     : NEB implementation
   FAccTs GmbH                                   : IRC, NEB, NEB-TS, DLPNO-Multilevel, CI-OPT
                                                   MM, QMMM, 2- and 3-layer-ONIOM, Crystal-QMMM,
                                                   LR-CPCM, SF, NACMEs, symmetry and pop. for TD-DFT,
                                                   nearIR, NL-DFT gradient (VV10), updates on ESD,
                                                   ML-optimized integration grids
   S Lehtola, MJT Oliveira, MAL Marques          : LibXC Library
   Liviu Ungur et al                             : ANISO software


 Your calculation uses the libint2 library for the computation of 2-el integrals
 For citations please refer to: http://libint.valeyev.net

 Your ORCA version has been built with support for libXC version: 5.1.0
 For citations please refer to: https://tddft.org/programs/libxc/

 This ORCA versions uses:
   CBLAS   interface :  Fast vector & matrix operations
   LAPACKE interface :  Fast linear algebra routines
   SCALAPACK package :  Parallel linear algebra routines
   Shared memory     :  Shared parallel matrices
   BLAS/LAPACK       :  OpenBLAS 0.3.15  USE64BITINT DYNAMIC_ARCH NO_AFFINITY Haswell SINGLE_THREADED
        Core in use  :  Haswell
   Copyright (c) 2011-2014, The OpenBLAS Project


SCAN-COORDS

Reading of a custom basis requested
Basis file         : Y_sapporo-qzp-2012-diffuse.basis
READING GTO-BASIS: YTTRIUM
Basis successfully read

================================================================================

----- Orbital basis set information -----
================================================================================
                                        WARNINGS
                       Please study these warnings very carefully!
================================================================================


INFO   : the flag for use of the SHARK integral package has been found!

================================================================================
                                       INPUT FILE
================================================================================
NAME = Y_sapporo-qzp-2012-diffuse_pbe.inp
|  1> !uks pbe nori verytightscf soscf notrah
|  2> 
|  3> %pal
|  4>   nprocs 32
|  5> end
|  6> %coords
|  7>   charge 0
|  8>   mult 2
|  9>   units bohrs
| 10>   coords
| 11>     Y 0.0 0.0 0.0
| 12>   end
| 13> end
| 14> %basis
| 15>   gtoname "Y_sapporo-qzp-2012-diffuse.basis"
| 16>   delECP Y
| 17> end
| 18> %rel
| 19>   method zora
| 20>   modelpot 1, 0, 0, 0
| 21>   c 137.035999084
| 22> endd                         ****END OF INPUT****
================================================================================

                       ****************************
                       * Single Point Calculation *
                       ****************************

---------------------------------
CARTESIAN COORDINATES (ANGSTROEM)
---------------------------------
   Y     0.000000    0.000000    0.000000

----------------------------
CARTESIAN COORDINATES (A.U.)
----------------------------
  NO LB      ZA    FRAG     MASS         X           Y           Z
   0  Y   39.0000    0    88.910    0.000000    0.000000    0.000000

--------------------------------
INTERNAL COORDINATES (ANGSTROEM)
--------------------------------
  Y     0   0   0     0.000000000000     0.00000000     0.00000000

---------------------------
INTERNAL COORDINATES (A.U.)
---------------------------
  Y     0   0   0     0.000000000000     0.00000000     0.00000000

---------------------
BASIS SET INFORMATION
---------------------
There are 1 groups of distinct atoms

 Group   1 Type  Y  : 22s17p13d4f3g2h contracted to 11s9p7d4f3g2h pattern {74221111111/731111111/7111111/1111/111/11}

Atom   0 Y   basis set group =>   1


           ************************************************************
           *        Program running with 32 parallel MPI-processes    *
           *              working on a common directory               *
           ************************************************************
------------------------------------------------------------------------------
                           ORCA GTO INTEGRAL CALCULATION
------------------------------------------------------------------------------
------------------------------------------------------------------------------
                   ___                                                        
                  /   \      - P O W E R E D   B Y -                         
                 /     \                                                     
                 |  |  |   _    _      __       _____    __    __             
                 |  |  |  | |  | |    /  \     |  _  \  |  |  /  |          
                  \  \/   | |  | |   /    \    | | | |  |  | /  /          
                 / \  \   | |__| |  /  /\  \   | |_| |  |  |/  /          
                |  |  |   |  __  | /  /__\  \  |    /   |      \           
                |  |  |   | |  | | |   __   |  |    \   |  |\   \          
                \     /   | |  | | |  |  |  |  | |\  \  |  | \   \       
                 \___/    |_|  |_| |__|  |__|  |_| \__\ |__|  \__/        
                                                                              
                      - O R C A' S   B I G   F R I E N D -                    
                                      &                                       
                       - I N T E G R A L  F E E D E R -                       
                                                                              
 v1 FN, 2020, v2 2021                                                         
------------------------------------------------------------------------------


Reading SHARK input file Y_sapporo-qzp-2012-diffuse_pbe.SHARKINP.tmp ... ok
----------------------
SHARK INTEGRAL PACKAGE
----------------------

Number of atoms                             ...      1
Number of basis functions                   ...    150
Number of shells                            ...     36
Maximum angular momentum                    ...      5
Integral batch strategy                     ... SHARK/LIBINT Hybrid
RI-J (if used) integral strategy            ... SPLIT-RIJ (Revised 2003 algorithm where possible)
Printlevel                                  ...      1
Contraction scheme used                     ... SEGMENTED contraction
Coulomb Range Separation                    ... NOT USED
Exchange Range Separation                   ... NOT USED
Finite Nucleus Model                        ... NOT USED
Auxiliary Coulomb fitting basis             ... NOT available
Auxiliary J/K fitting basis                 ... NOT available
Auxiliary Correlation fitting basis         ... NOT available
Auxiliary 'external' fitting basis          ... NOT available
Integral threshold                          ...     1.000000e-12
Primitive cut-off                           ...     1.000000e-14
Primitive pair pre-selection threshold      ...     1.000000e-14

Calculating pre-screening integrals         ... done (  6.1 sec) Dimension = 36
Organizing shell pair data                  ... done (  1.0 sec)
Shell pair information
Total number of shell pairs                 ...       666
Shell pairs after pre-screening             ...       666
Total number of primitive shell pairs       ...      1965
Primitive shell pairs kept                  ...      1965
          la=0 lb=0:     66 shell pairs
          la=1 lb=0:     99 shell pairs
          la=1 lb=1:     45 shell pairs
          la=2 lb=0:     77 shell pairs
          la=2 lb=1:     63 shell pairs
          la=2 lb=2:     28 shell pairs
          la=3 lb=0:     44 shell pairs
          la=3 lb=1:     36 shell pairs
          la=3 lb=2:     28 shell pairs
          la=3 lb=3:     10 shell pairs
          la=4 lb=0:     33 shell pairs
          la=4 lb=1:     27 shell pairs
          la=4 lb=2:     21 shell pairs
          la=4 lb=3:     12 shell pairs
          la=4 lb=4:      6 shell pairs
          la=5 lb=0:     22 shell pairs
          la=5 lb=1:     18 shell pairs
          la=5 lb=2:     14 shell pairs
          la=5 lb=3:      8 shell pairs
          la=5 lb=4:      6 shell pairs
          la=5 lb=5:      3 shell pairs

Calculating one electron integrals          ... done (  0.8 sec)
Calculating Nuclear repulsion               ... done (  0.0 sec) ENN=      0.000000000000 Eh

SHARK setup successfully completed in  10.3 seconds

Maximum memory used throughout the entire GTOINT-calculation: 39.4 MB


           ************************************************************
           *        Program running with 32 parallel MPI-processes    *
           *              working on a common directory               *
           ************************************************************
------------------------------------------------------------------------------
                          ORCA RELATIVISTIC HAMILTONIAN
------------------------------------------------------------------------------

Relativistic Method            ... ZORA(MP)
Treatment of potential         ... Van Wuellen
Nucleus model                  ... Point Nucleus
Speed of light used            ... 137.03599908400000


            *************************************************
            *         ZERO ORDER REGULAR APPROXIMATION      *
            *                     ZORA(MP)                  *
            *            Programmed by FN according to      *
            *                   C. van Wuellen              *
            *       J. Chem. Phys. (1998) vol 109, 392-399  *
            *************************************************

Terms included in model potential: +V(e,N)
Basis function cutoff value   ... 1.000000e-12
Loading the fitted atomic densities  (DKH4)  ... done
Calculating the cutoffs                      ... done
Number of fit functions                      ... 28
Setting up the integration grid ... done

Maximum memory used throughout the entire REL-calculation: 11.5 MB


           ************************************************************
           *        Program running with 32 parallel MPI-processes    *
           *              working on a common directory               *
           ************************************************************
-------------------------------------------------------------------------------
                                 ORCA SCF
-------------------------------------------------------------------------------

------------
SCF SETTINGS
------------
Hamiltonian:
 Density Functional     Method          .... DFT(GTOs)
 Exchange Functional    Exchange        .... PBE
   PBE kappa parameter   XKappa         ....  0.804000
   PBE mue parameter    XMuePBE         ....  0.219520
 Correlation Functional Correlation     .... PBE
   PBE beta parameter  CBetaPBE         ....  0.066725
 LDA part of GGA corr.  LDAOpt          .... PW91-LDA
 Gradients option       PostSCFGGA      .... off
   Density functional embedding theory  .... OFF
   NL short-range parameter             ....  6.400000

Relativistic Settings:
 Scalar relativistic method             .... ZORA
 Speed of light used       Velit        ....       137.035999
Orbital energies will be scaled


General Settings:
 Integral files         IntName         .... Y_sapporo-qzp-2012-diffuse_pbe
 Hartree-Fock type      HFTyp           .... UHF
 Total Charge           Charge          ....    0
 Multiplicity           Mult            ....    2
 Number of Electrons    NEL             ....   39
 Basis Dimension        Dim             ....  150
 Nuclear Repulsion      ENuc            ....      0.0000000000 Eh

Convergence Acceleration:
 DIIS                   CNVDIIS         .... on
   Start iteration      DIISMaxIt       ....    12
   Startup error        DIISStart       ....  0.200000
   # of expansion vecs  DIISMaxEq       ....     5
   Bias factor          DIISBfac        ....   1.050
   Max. coefficient     DIISMaxC        ....  10.000
 Trust-Rad. Augm. Hess. CNVTRAH         .... off
 SOSCF                  CNVSOSCF        .... on
   Start iteration      SOSCFMaxIt      ....   150
   Startup grad/error   SOSCFStart      ....  0.003300
 Level Shifting         CNVShift        .... on
   Level shift para.    LevelShift      ....    0.2500
   Turn off err/grad.   ShiftErr        ....    0.0010
 Zerner damping         CNVZerner       .... off
 Static damping         CNVDamp         .... on
   Fraction old density DampFac         ....    0.7000
   Max. Damping (<1)    DampMax         ....    0.9800
   Min. Damping (>=0)   DampMin         ....    0.0000
   Turn off err/grad.   DampErr         ....    0.1000
 Fernandez-Rico         CNVRico         .... off

SCF Procedure:
 Maximum # iterations   MaxIter         ....   125
 SCF integral mode      SCFMode         .... Direct
   Integral package                     .... SHARK and LIBINT hybrid scheme
 Reset frequency        DirectResetFreq ....    20
 Integral Threshold     Thresh          ....  1.000e-12 Eh
 Primitive CutOff       TCut            ....  1.000e-14 Eh

Convergence Tolerance:
 Convergence Check Mode ConvCheckMode   .... Total+1el-Energy
 Convergence forced     ConvForced      .... 0
 Energy Change          TolE            ....  1.000e-09 Eh
 1-El. energy change                    ....  1.000e-06 Eh
 Orbital Gradient       TolG            ....  2.000e-06
 Orbital Rotation angle TolX            ....  2.000e-06
 DIIS Error             TolErr          ....  1.000e-08


Diagonalization of the overlap matrix:
Smallest eigenvalue                        ... 2.630e-04
Time for diagonalization                   ...    0.094 sec
Threshold for overlap eigenvalues          ... 1.000e-08
Number of eigenvalues below threshold      ... 0
Time for construction of square roots      ...    0.040 sec
Total time needed                          ...    0.135 sec

Time for model grid setup =    0.293 sec

------------------------------
INITIAL GUESS: MODEL POTENTIAL
------------------------------
Loading ZORA relativistic densities                ... done
Calculating cut-offs                               ... done
Initializing the effective Hamiltonian             ... done
Setting up the integral package (SHARK)            ... done
Starting the Coulomb interaction                   ... done (   2.8 sec)
Reading the grid                                   ... done
Mapping shells                                     ... done
Starting the XC term evaluation                    ... done (   0.6 sec)
  promolecular density results
     # of electrons  =     38.999999970
     EX              =   -109.546984611
     EC              =     -1.900629291
     EX+EC           =   -111.447613902
Transforming the Hamiltonian                       ... done (   0.3 sec)
Diagonalizing the Hamiltonian                      ... done (   0.1 sec)
Back transforming the eigenvectors                 ... done (   0.0 sec)
Now organizing SCF variables                       ... done
                      ------------------
                      INITIAL GUESS DONE (   4.4 sec)
                      ------------------
-------------------
DFT GRID GENERATION
-------------------

General Integration Accuracy     IntAcc      ... 4.388
Radial Grid Type                 RadialGrid  ... OptM3 with GC (2021)
Angular Grid (max. ang.)         AngularGrid ... 4 (Lebedev-302)
Angular grid pruning method      GridPruning ... 4 (adaptive)
Weight generation scheme         WeightScheme... Becke
Basis function cutoff            BFCut       ... 1.0000e-12
Integration weight cutoff        WCut        ... 1.0000e-14
Angular grids for H and He will be reduced by one unit
Partially contracted basis set               ... off
Rotationally invariant grid construction     ... off

Total number of grid points                  ...    30676
Total number of batches                      ...      480
Average number of points per batch           ...       63
Average number of grid points per atom       ...    30676
Time for grid setup =    0.972 sec

--------------
SCF ITERATIONS
--------------
ITER       Energy         Delta-E        Max-DP      RMS-DP      [F,P]     Damp
               ***  Starting incremental Fock matrix formation  ***
  0  -3416.8794333919   0.000000000000 0.01575272  0.00030919  0.1168292 0.7000
  1  -3416.8847576606  -0.005324268734 0.00990549  0.00019252  0.0776140 0.7000
                               ***Turning on DIIS***
  2  -3416.8879911655  -0.003233504920 0.02085167  0.00042158  0.0518157 0.0000
  3  -3416.8949420098  -0.006950844299 0.00591865  0.00012477  0.0192871 0.0000
  4  -3416.8953821378  -0.000440127943 0.00473799  0.00006991  0.0070436 0.0000
  5  -3416.8956140731  -0.000231935347 0.00412915  0.00006148  0.0013232 0.0000
  6  -3416.8958019536  -0.000187880433 0.00452399  0.00006948  0.0010874 0.0000
  7  -3416.8959979563  -0.000196002753 0.01332488  0.00036832  0.0009642 0.0000
  8  -3416.8968234442  -0.000825487850 0.00040971  0.00000536  0.0037342 0.0000
                      *** Initiating the SOSCF procedure ***
                           *** Shutting down DIIS ***
                      *** Re-Reading the Fockian *** 
                      *** Removing any level shift *** 
ITER      Energy       Delta-E        Grad      Rot      Max-DP    RMS-DP
  9  -3416.89683850  -0.0000150605  0.000222  0.000222  0.000395  0.000004
               *** Restarting incremental Fock matrix formation ***
 10  -3416.89684779  -0.0000092883  0.002133  0.035450  0.011746  0.000171
 11  -3416.89712699  -0.0002792008  0.001271  0.065062  0.021419  0.000314
 12  -3416.89727095  -0.0001439571  0.000831  0.015195  0.003326  0.000074
 13  -3416.89729510  -0.0000241492  0.000577  0.003163  0.001163  0.000022
 14  -3416.89730053  -0.0000054283  0.000185  0.005859  0.000708  0.000017
 15  -3416.89730233  -0.0000017971  0.000084  0.004785  0.000483  0.000012
 16  -3416.89730292  -0.0000005941  0.000037  0.000476  0.000219  0.000003
 17  -3416.89730294  -0.0000000244  0.000019  0.000070  0.000025  0.000001
 18  -3416.89730295  -0.0000000017  0.000006  0.000038  0.000008  0.000000
 19  -3416.89730295  -0.0000000004  0.000002  0.000159  0.000026  0.000001
 20  -3416.89730295  -0.0000000009  0.000005  0.000459  0.000070  0.000002
 21  -3416.89730295  -0.0000000022  0.000014  0.001425  0.000209  0.000005
 22  -3416.89730296  -0.0000000061  0.000029  0.003922  0.000564  0.000013
 23  -3416.89730297  -0.0000000155  0.000053  0.010395  0.001473  0.000034
 24  -3416.89730301  -0.0000000380  0.000090  0.019469  0.002708  0.000063
 25  -3416.89730307  -0.0000000597  0.000128  0.012810  0.001735  0.000041
 26  -3416.89730315  -0.0000000817  0.000116  0.021045  0.002746  0.000068
 27  -3416.89730332  -0.0000001653  0.000009  0.004230  0.000547  0.000014
 28  -3416.89730332  -0.0000000087  0.000008  0.001900  0.000244  0.000006
 29  -3416.89730333  -0.0000000038  0.000014  0.004295  0.000566  0.000014
               *** Restarting incremental Fock matrix formation ***
 30  -3416.89730333  -0.0000000017  0.000007  0.000780  0.000101  0.000003
 31  -3416.89730333  -0.0000000007  0.000002  0.000231  0.000031  0.000001
                  ***Gradient check signals convergence***
              ***Rediagonalizing the Fockian in SOSCF/NRSCF***

               *****************************************************
               *                     SUCCESS                       *
               *           SCF CONVERGED AFTER  32 CYCLES          *
               *****************************************************


----------------
TOTAL SCF ENERGY
----------------

Total Energy       :        -3416.89730333 Eh          -92978.50256 eV

Components:
Nuclear Repulsion  :            0.00000000 Eh               0.00000 eV
Electronic Energy  :        -3416.89730333 Eh          -92978.50256 eV
One Electron Energy:        -4705.32166179 Eh         -128038.31176 eV
Two Electron Energy:         1288.42435846 Eh           35059.80920 eV

Virial components:
Potential Energy   :        -6702.85628662 Eh         -182393.99229 eV
Kinetic Energy     :         3285.95898329 Eh           89415.48973 eV
Virial Ratio       :            2.03984783


DFT components:
N(Alpha)           :       20.000000000032 electrons
N(Beta)            :       18.999999999996 electrons
N(Total)           :       39.000000000028 electrons
E(X)               :     -106.537109427796 Eh       
E(C)               :       -1.904742768263 Eh       
E(XC)              :     -108.441852196059 Eh       
DFET-embed. en.    :        0.000000000000 Eh       

---------------
SCF CONVERGENCE
---------------

  Last Energy change         ...   -8.1855e-11  Tolerance :   1.0000e-09
  Last MAX-Density change    ...    2.2950e-05  Tolerance :   1.0000e-08
  Last RMS-Density change    ...    5.3399e-07  Tolerance :   1.0000e-09
  Last Orbital Gradient      ...    4.8320e-07  Tolerance :   2.0000e-06
  Last Orbital Rotation      ...    1.7730e-04  Tolerance :   2.0000e-06

             **** THE GBW FILE WAS UPDATED (Y_sapporo-qzp-2012-diffuse_pbe.gbw) ****
             **** DENSITY Y_sapporo-qzp-2012-diffuse_pbe.scfp WAS UPDATED ****
             **** ENERGY FILE WAS UPDATED (Y_sapporo-qzp-2012-diffuse_pbe.en.tmp) ****
----------------------
UHF SPIN CONTAMINATION
----------------------

Warning: in a DFT calculation there is little theoretical justification to 
         calculate <S**2> as in Hartree-Fock theory. We will do it anyways
         but you should keep in mind that the values have only limited relevance

Expectation value of <S**2>     :     0.946541
Ideal value S*(S+1) for S=0.5   :     0.750000
Deviation                       :     0.196541

             **** THE GBW FILE WAS UPDATED (Y_sapporo-qzp-2012-diffuse_pbe.gbw) ****
             **** DENSITY Y_sapporo-qzp-2012-diffuse_pbe.scfp WAS UPDATED ****
----------------
ORBITAL ENERGIES
----------------
                 SPIN UP ORBITALS
  NO   OCC          E(Eh)            E(eV) 
   0   1.0000    -633.567359    -17240.2443 
   1   1.0000     -85.384830     -2323.4394 
   2   1.0000     -76.459838     -2080.5780 
   3   1.0000     -76.457573     -2080.5163 
   4   1.0000     -76.457573     -2080.5163 
   5   1.0000     -13.535785      -368.3274 
   6   1.0000     -10.592137      -288.2267 
   7   1.0000     -10.584772      -288.0263 
   8   1.0000     -10.584771      -288.0263 
   9   1.0000      -5.567464      -151.4984 
  10   1.0000      -5.565955      -151.4573 
  11   1.0000      -5.565955      -151.4573 
  12   1.0000      -5.560817      -151.3175 
  13   1.0000      -5.560508      -151.3091 
  14   1.0000      -1.755328       -47.7649 
  15   1.0000      -1.031116       -28.0581 
  16   1.0000      -1.026669       -27.9371 
  17   1.0000      -1.026668       -27.9371 
  18   1.0000      -0.151914        -4.1338 
  19   1.0000      -0.109687        -2.9847 
  20   0.0000      -0.089166        -2.4263 
  21   0.0000      -0.089163        -2.4262 
  22   0.0000      -0.087142        -2.3713 
  23   0.0000      -0.082477        -2.2443 
  24   0.0000      -0.056486        -1.5371 
  25   0.0000      -0.056485        -1.5370 
  26   0.0000      -0.046802        -1.2735 
  27   0.0000      -0.002277        -0.0620 
  28   0.0000       0.016119         0.4386 
  29   0.0000       0.018484         0.5030 
  30   0.0000       0.018691         0.5086 
  31   0.0000       0.018692         0.5086 
  32   0.0000       0.019257         0.5240 
  33   0.0000       0.047323         1.2877 
  34   0.0000       0.047323         1.2877 
  35   0.0000       0.053869         1.4658 
  36   0.0000       0.065531         1.7832 
  37   0.0000       0.069230         1.8838 
  38   0.0000       0.070498         1.9183 
  39   0.0000       0.070498         1.9184 
  40   0.0000       0.071023         1.9326 
  41   0.0000       0.074643         2.0312 
  42   0.0000       0.091481         2.4893 
  43   0.0000       0.091482         2.4893 
  44   0.0000       0.092016         2.5039 
  45   0.0000       0.095999         2.6123 
  46   0.0000       0.096264         2.6195 
  47   0.0000       0.096264         2.6195 
  48   0.0000       0.096708         2.6316 
  49   0.0000       0.208863         5.6835 
  50   0.0000       0.209832         5.7098 
  51   0.0000       0.210832         5.7370 
  52   0.0000       0.210832         5.7370 
  53   0.0000       0.211311         5.7501 
  54   0.0000       0.214885         5.8473 
  55   0.0000       0.214901         5.8477 
  56   0.0000       0.214901         5.8478 
  57   0.0000       0.214987         5.8501 
  58   0.0000       0.274978         7.4825 
  59   0.0000       0.286763         7.8032 
  60   0.0000       0.286765         7.8033 
  61   0.0000       0.289051         7.8655 
  62   0.0000       0.289259         7.8711 
  63   0.0000       0.307816         8.3761 
  64   0.0000       0.307823         8.3763 
  65   0.0000       0.307862         8.3773 
  66   0.0000       0.321959         8.7609 
  67   0.0000       0.321961         8.7610 
  68   0.0000       0.322117         8.7652 
  69   0.0000       0.323311         8.7977 
  70   0.0000       0.349490         9.5101 
  71   0.0000       0.430652        11.7186 
  72   0.0000       0.430655        11.7187 
  73   0.0000       0.441080        12.0024 
  74   0.0000       0.681889        18.5551 
  75   0.0000       0.686822        18.6894 
  76   0.0000       0.688341        18.7307 
  77   0.0000       0.688371        18.7315 
  78   0.0000       0.688381        18.7318 
  79   0.0000       0.700856        19.0713 
  80   0.0000       0.701941        19.1008 
  81   0.0000       0.701944        19.1009 
  82   0.0000       0.703811        19.1517 
  83   0.0000       0.939558        25.5667 
  84   0.0000       0.941114        25.6090 
  85   0.0000       0.941119        25.6091 
  86   0.0000       0.952016        25.9057 
  87   0.0000       0.956439        26.0260 
  88   0.0000       0.956444        26.0262 
  89   0.0000       0.961431        26.1619 
  90   0.0000       1.103587        30.0301 
  91   0.0000       1.120575        30.4924 
  92   0.0000       1.120720        30.4963 
  93   0.0000       1.120724        30.4964 
  94   0.0000       1.127708        30.6865 
  95   0.0000       1.449107        39.4322 
  96   0.0000       2.058882        56.0250 
  97   0.0000       2.058935        56.0265 
  98   0.0000       2.063737        56.1571 
  99   0.0000       2.064618        56.1811 
 100   0.0000       2.065383        56.2019 
 101   0.0000       2.065427        56.2031 
 102   0.0000       2.065433        56.2033 
 103   0.0000       2.076858        56.5142 
 104   0.0000       2.076859        56.5142 
 105   0.0000       2.082035        56.6550 
 106   0.0000       2.084174        56.7133 
 107   0.0000       2.086311        56.7714 
 108   0.0000       2.086323        56.7717 
 109   0.0000       2.088403        56.8283 
 110   0.0000       2.208430        60.0944 
 111   0.0000       2.210980        60.1638 
 112   0.0000       2.210983        60.1639 
 113   0.0000       2.211320        60.1731 
 114   0.0000       2.212040        60.1927 
 115   0.0000       2.225546        60.5602 
 116   0.0000       2.228933        60.6524 
 117   0.0000       2.228935        60.6524 
 118   0.0000       2.231840        60.7315 
 119   0.0000       3.236279        88.0636 
 120   0.0000       3.236842        88.0789 
 121   0.0000       3.237200        88.0887 
 122   0.0000       3.237201        88.0887 
 123   0.0000       3.245826        88.3234 
 124   0.0000       3.246271        88.3355 
 125   0.0000       3.246273        88.3356 
 126   0.0000       4.287008       116.6554 
 127   0.0000       4.290099       116.7395 
 128   0.0000       4.291322       116.7728 
 129   0.0000       4.291324       116.7729 
 130   0.0000       4.300531       117.0234 
 131   0.0000       4.643100       126.3452 
 132   0.0000       6.429257       174.9490 
 133   0.0000       6.429726       174.9617 
 134   0.0000       6.429728       174.9618 
 135   0.0000       6.430351       174.9788 
 136   0.0000       6.435666       175.1234 
 137   0.0000       6.437202       175.1652 
 138   0.0000       6.437214       175.1655 
 139   0.0000       6.441728       175.2883 
 140   0.0000       6.441935       175.2940 
 141   0.0000       6.441939       175.2941 
 142   0.0000       6.442069       175.2976 
 143   0.0000       7.217012       196.3849 
 144   0.0000       7.222379       196.5309 
 145   0.0000       7.222380       196.5309 
 146   0.0000      12.239483       333.0533 
 147   0.0000      28.605851       778.4048 
 148   0.0000      28.612511       778.5860 
 149   0.0000      28.612512       778.5860 

                 SPIN DOWN ORBITALS
  NO   OCC          E(Eh)            E(eV) 
   0   1.0000    -633.567434    -17240.2464 
   1   1.0000     -85.383239     -2323.3961 
   2   1.0000     -76.459789     -2080.5766 
   3   1.0000     -76.455929     -2080.4716 
   4   1.0000     -76.455928     -2080.4716 
   5   1.0000     -13.534789      -368.3003 
   6   1.0000     -10.591176      -288.2005 
   7   1.0000     -10.583652      -287.9958 
   8   1.0000     -10.583651      -287.9958 
   9   1.0000      -5.565907      -151.4560 
  10   1.0000      -5.564693      -151.4230 
  11   1.0000      -5.564693      -151.4230 
  12   1.0000      -5.560868      -151.3189 
  13   1.0000      -5.556757      -151.2070 
  14   1.0000      -1.743389       -47.4400 
  15   1.0000      -1.030081       -28.0299 
  16   1.0000      -1.005518       -27.3615 
  17   1.0000      -1.005515       -27.3615 
  18   1.0000      -0.143267        -3.8985 
  19   0.0000      -0.084094        -2.2883 
  20   0.0000      -0.082990        -2.2583 
  21   0.0000      -0.082989        -2.2582 
  22   0.0000      -0.068914        -1.8752 
  23   0.0000      -0.058788        -1.5997 
  24   0.0000      -0.052547        -1.4299 
  25   0.0000      -0.038694        -1.0529 
  26   0.0000      -0.038692        -1.0529 
  27   0.0000      -0.000143        -0.0039 
  28   0.0000       0.018545         0.5046 
  29   0.0000       0.018825         0.5122 
  30   0.0000       0.018825         0.5123 
  31   0.0000       0.020816         0.5664 
  32   0.0000       0.021603         0.5878 
  33   0.0000       0.046348         1.2612 
  34   0.0000       0.059241         1.6120 
  35   0.0000       0.059242         1.6121 
  36   0.0000       0.068031         1.8512 
  37   0.0000       0.071420         1.9434 
  38   0.0000       0.071421         1.9435 
  39   0.0000       0.076582         2.0839 
  40   0.0000       0.079214         2.1555 
  41   0.0000       0.079786         2.1711 
  42   0.0000       0.094789         2.5793 
  43   0.0000       0.095546         2.6000 
  44   0.0000       0.095547         2.6000 
  45   0.0000       0.096926         2.6375 
  46   0.0000       0.098133         2.6703 
  47   0.0000       0.103270         2.8101 
  48   0.0000       0.103270         2.8101 
  49   0.0000       0.212824         5.7912 
  50   0.0000       0.213216         5.8019 
  51   0.0000       0.213217         5.8019 
  52   0.0000       0.214108         5.8262 
  53   0.0000       0.215234         5.8568 
  54   0.0000       0.217420         5.9163 
  55   0.0000       0.217420         5.9163 
  56   0.0000       0.222646         6.0585 
  57   0.0000       0.222855         6.0642 
  58   0.0000       0.285552         7.7703 
  59   0.0000       0.288806         7.8588 
  60   0.0000       0.288807         7.8588 
  61   0.0000       0.301538         8.2053 
  62   0.0000       0.311893         8.4871 
  63   0.0000       0.317016         8.6264 
  64   0.0000       0.318971         8.6796 
  65   0.0000       0.318972         8.6797 
  66   0.0000       0.323154         8.7935 
  67   0.0000       0.330063         8.9815 
  68   0.0000       0.344078         9.3628 
  69   0.0000       0.344080         9.3629 
  70   0.0000       0.360045         9.7973 
  71   0.0000       0.429994        11.7007 
  72   0.0000       0.454490        12.3673 
  73   0.0000       0.454493        12.3674 
  74   0.0000       0.694257        18.8917 
  75   0.0000       0.695317        18.9205 
  76   0.0000       0.695319        18.9206 
  77   0.0000       0.697204        18.9719 
  78   0.0000       0.703921        19.1547 
  79   0.0000       0.710730        19.3400 
  80   0.0000       0.710732        19.3400 
  81   0.0000       0.725240        19.7348 
  82   0.0000       0.727417        19.7940 
  83   0.0000       0.954763        25.9804 
  84   0.0000       0.957126        26.0447 
  85   0.0000       0.957127        26.0447 
  86   0.0000       0.962209        26.1830 
  87   0.0000       0.973358        26.4864 
  88   0.0000       0.985766        26.8241 
  89   0.0000       0.985767        26.8241 
  90   0.0000       1.119812        30.4716 
  91   0.0000       1.125884        30.6369 
  92   0.0000       1.125886        30.6369 
  93   0.0000       1.137378        30.9496 
  94   0.0000       1.151770        31.3413 
  95   0.0000       1.463716        39.8297 
  96   0.0000       2.074232        56.4427 
  97   0.0000       2.075535        56.4782 
  98   0.0000       2.075541        56.4783 
  99   0.0000       2.075569        56.4791 
 100   0.0000       2.076985        56.5176 
 101   0.0000       2.085472        56.7486 
 102   0.0000       2.090291        56.8797 
 103   0.0000       2.090297        56.8799 
 104   0.0000       2.100790        57.1654 
 105   0.0000       2.100963        57.1701 
 106   0.0000       2.103958        57.2516 
 107   0.0000       2.103960        57.2517 
 108   0.0000       2.112748        57.4908 
 109   0.0000       2.112766        57.4913 
 110   0.0000       2.225073        60.5473 
 111   0.0000       2.226259        60.5796 
 112   0.0000       2.226260        60.5796 
 113   0.0000       2.228357        60.6367 
 114   0.0000       2.239517        60.9404 
 115   0.0000       2.245946        61.1153 
 116   0.0000       2.245947        61.1153 
 117   0.0000       2.259709        61.4898 
 118   0.0000       2.260856        61.5210 
 119   0.0000       3.242503        88.2330 
 120   0.0000       3.243277        88.2540 
 121   0.0000       3.243277        88.2541 
 122   0.0000       3.244870        88.2974 
 123   0.0000       3.255466        88.5857 
 124   0.0000       3.263139        88.7945 
 125   0.0000       3.263139        88.7945 
 126   0.0000       4.293311       116.8269 
 127   0.0000       4.296950       116.9260 
 128   0.0000       4.296951       116.9260 
 129   0.0000       4.305316       117.1536 
 130   0.0000       4.319851       117.5491 
 131   0.0000       4.658217       126.7565 
 132   0.0000       6.439869       175.2377 
 133   0.0000       6.440068       175.2432 
 134   0.0000       6.440070       175.2432 
 135   0.0000       6.440258       175.2483 
 136   0.0000       6.452909       175.5926 
 137   0.0000       6.454963       175.6485 
 138   0.0000       6.454965       175.6485 
 139   0.0000       6.460618       175.8023 
 140   0.0000       6.462756       175.8605 
 141   0.0000       6.473305       176.1476 
 142   0.0000       6.473307       176.1476 
 143   0.0000       7.216691       196.3762 
 144   0.0000       7.236386       196.9121 
 145   0.0000       7.236389       196.9121 
 146   0.0000      12.246504       333.2443 
 147   0.0000      28.607114       778.4392 
 148   0.0000      28.616453       778.6933 
 149   0.0000      28.616454       778.6933 

                    ********************************
                    * MULLIKEN POPULATION ANALYSIS *
                    ********************************

--------------------------------------------
MULLIKEN ATOMIC CHARGES AND SPIN POPULATIONS
--------------------------------------------
   0  Y:   -0.000000    1.000000
Sum of atomic charges         :   -0.0000000
Sum of atomic spin populations:    1.0000000

-----------------------------------------------------
MULLIKEN REDUCED ORBITAL CHARGES AND SPIN POPULATIONS
-----------------------------------------------------
CHARGE
  0  Ys       :     9.885184  s :     9.885184
      pz      :     5.999875  p :    17.999669
      px      :     5.999913
      py      :     5.999881
      dz2     :     2.106572  d :    11.114307
      dxz     :     2.115149
      dyz     :     2.780431
      dx2y2   :     2.066603
      dxy     :     2.045553
      f0      :     0.000026  f :     0.000303
      f+1     :     0.000035
      f-1     :     0.000065
      f+2     :     0.000050
      f-2     :     0.000038
      f+3     :     0.000043
      f-3     :     0.000047
      g0      :     0.000148  g :     0.000509
      g+1     :     0.000016
      g-1     :     0.000127
      g+2     :     0.000061
      g-2     :     0.000054
      g+3     :     0.000064
      g-3     :     0.000020
      g+4     :     0.000000
      g-4     :     0.000019
      h0      :     0.000005  h :     0.000028
      h+1     :     0.000002
      h-1     :     0.000008
      h+2     :     0.000004
      h-2     :     0.000003
      h+3     :     0.000002
      h-3     :     0.000003
      h+4     :     0.000000
      h-4     :     0.000000
      h+5     :     0.000000
      h-5     :     0.000000

SPIN
  0  Ys       :     0.070110  s :     0.070110
      pz      :     0.000029  p :     0.000123
      px      :     0.000061
      py      :     0.000033
      dz2     :     0.060495  d :     0.929502
      dxz     :     0.114939
      dyz     :     0.780401
      dx2y2   :    -0.011821
      dxy     :    -0.014512
      f0      :     0.000010  f :    -0.000134
      f+1     :    -0.000023
      f-1     :    -0.000000
      f+2     :    -0.000025
      f-2     :    -0.000019
      f+3     :    -0.000037
      f-3     :    -0.000041
      g0      :     0.000096  g :     0.000388
      g+1     :     0.000013
      g-1     :     0.000101
      g+2     :     0.000056
      g-2     :     0.000050
      g+3     :     0.000061
      g-3     :     0.000019
      g+4     :     0.000000
      g-4     :    -0.000007
      h0      :     0.000002  h :     0.000012
      h+1     :     0.000001
      h-1     :     0.000003
      h+2     :     0.000002
      h-2     :     0.000001
      h+3     :     0.000001
      h-3     :     0.000002
      h+4     :     0.000000
      h-4     :     0.000000
      h+5     :    -0.000000
      h-5     :    -0.000000


                     *******************************
                     * LOEWDIN POPULATION ANALYSIS *
                     *******************************

-------------------------------------------
LOEWDIN ATOMIC CHARGES AND SPIN POPULATIONS
-------------------------------------------
   0  Y:   -0.000000    1.000000

----------------------------------------------------
LOEWDIN REDUCED ORBITAL CHARGES AND SPIN POPULATIONS
----------------------------------------------------
CHARGE
  0  Ys       :     9.885184  s :     9.885184
      pz      :     5.999875  p :    17.999669
      px      :     5.999913
      py      :     5.999881
      dz2     :     2.106572  d :    11.114307
      dxz     :     2.115149
      dyz     :     2.780431
      dx2y2   :     2.066603
      dxy     :     2.045553
      f0      :     0.000026  f :     0.000303
      f+1     :     0.000035
      f-1     :     0.000065
      f+2     :     0.000050
      f-2     :     0.000038
      f+3     :     0.000043
      f-3     :     0.000047
      g0      :     0.000148  g :     0.000509
      g+1     :     0.000016
      g-1     :     0.000127
      g+2     :     0.000061
      g-2     :     0.000054
      g+3     :     0.000064
      g-3     :     0.000020
      g+4     :     0.000000
      g-4     :     0.000019
      h0      :     0.000005  h :     0.000028
      h+1     :     0.000002
      h-1     :     0.000008
      h+2     :     0.000004
      h-2     :     0.000003
      h+3     :     0.000002
      h-3     :     0.000003
      h+4     :     0.000000
      h-4     :     0.000000
      h+5     :     0.000000
      h-5     :     0.000000

SPIN
  0  Ys       :     0.070110  s :     0.070110
      pz      :     0.000029  p :     0.000123
      px      :     0.000061
      py      :     0.000033
      dz2     :     0.060495  d :     0.929502
      dxz     :     0.114939
      dyz     :     0.780401
      dx2y2   :    -0.011821
      dxy     :    -0.014512
      f0      :     0.000010  f :    -0.000134
      f+1     :    -0.000023
      f-1     :    -0.000000
      f+2     :    -0.000025
      f-2     :    -0.000019
      f+3     :    -0.000037
      f-3     :    -0.000041
      g0      :     0.000096  g :     0.000388
      g+1     :     0.000013
      g-1     :     0.000101
      g+2     :     0.000056
      g-2     :     0.000050
      g+3     :     0.000061
      g-3     :     0.000019
      g+4     :     0.000000
      g-4     :    -0.000007
      h0      :     0.000002  h :     0.000012
      h+1     :     0.000001
      h-1     :     0.000003
      h+2     :     0.000002
      h-2     :     0.000001
      h+3     :     0.000001
      h-3     :     0.000002
      h+4     :     0.000000
      h-4     :     0.000000
      h+5     :    -0.000000
      h-5     :    -0.000000


                      *****************************
                      * MAYER POPULATION ANALYSIS *
                      *****************************

  NA   - Mulliken gross atomic population
  ZA   - Total nuclear charge
  QA   - Mulliken gross atomic charge
  VA   - Mayer's total valence
  BVA  - Mayer's bonded valence
  FA   - Mayer's free valence

  ATOM       NA         ZA         QA         VA         BVA        FA
  0  Y    39.0000    39.0000    -0.0000     1.3931     0.0000     1.3931

  Mayer bond orders larger than 0.100000


-------
TIMINGS
-------

Total SCF time: 0 days 0 hours 4 min 24 sec 

Total time                  ....     264.204 sec
Sum of individual times     ....     236.527 sec  ( 89.5%)

Fock matrix formation       ....     226.198 sec  ( 85.6%)
  XC integration            ....     100.610 sec  ( 44.5% of F)
    Basis function eval.    ....       0.123 sec  (  0.1% of XC)
    Density eval.           ....       0.469 sec  (  0.5% of XC)
    XC-Functional eval.     ....       0.079 sec  (  0.1% of XC)
    XC-Potential eval.      ....       0.273 sec  (  0.3% of XC)
Diagonalization             ....       1.201 sec  (  0.5%)
Density matrix formation    ....       0.019 sec  (  0.0%)
Population analysis         ....       0.200 sec  (  0.1%)
Initial guess               ....       4.059 sec  (  1.5%)
Orbital Transformation      ....       0.000 sec  (  0.0%)
Orbital Orthonormalization  ....       0.000 sec  (  0.0%)
DIIS solution               ....       0.748 sec  (  0.3%)
SOSCF solution              ....       2.837 sec  (  1.1%)
Grid generation             ....       1.265 sec  (  0.5%)

Maximum memory used throughout the entire SCF-calculation: 234.0 MB

-------------------------   --------------------
FINAL SINGLE POINT ENERGY     -3416.897303330379
-------------------------   --------------------


                            ***************************************
                            *     ORCA property calculations      *
                            ***************************************

                                    ---------------------
                                    Active property flags
                                    ---------------------
   (+) Dipole Moment


------------------------------------------------------------------------------
                       ORCA ELECTRIC PROPERTIES CALCULATION
------------------------------------------------------------------------------

Dipole Moment Calculation                       ... on
Quadrupole Moment Calculation                   ... off
Polarizability Calculation                      ... off
GBWName                                         ... Y_sapporo-qzp-2012-diffuse_pbe.gbw
Electron density                                ... Y_sapporo-qzp-2012-diffuse_pbe.scfp
The origin for moment calculation is the CENTER OF MASS  = ( 0.000000,  0.000000  0.000000)

-------------
DIPOLE MOMENT
-------------
                                X             Y             Z
Electronic contribution:      0.00000       0.00000       0.00000
Nuclear contribution   :      0.00000       0.00000       0.00000
                        -----------------------------------------
Total Dipole Moment    :      0.00000       0.00000       0.00000
                        -----------------------------------------
Magnitude (a.u.)       :      0.00000
Magnitude (Debye)      :      0.00000



--------------------
Rotational spectrum 
--------------------
 
Rotational constants in cm-1:     0.000000     0.000000     0.000000 
Rotational constants in MHz :     0.000000     0.000000     0.000000 

 Dipole components along the rotational axes: 
x,y,z [a.u.] :     0.000000     0.000000     0.000000 
x,y,z [Debye]:     0.000000     0.000000     0.000000 

 

Timings for individual modules:

Sum of individual times         ...      373.366 sec (=   6.223 min)
GTO integral calculation        ...       98.006 sec (=   1.633 min)  26.2 %
Relativistic integrals          ...        5.852 sec (=   0.098 min)   1.6 %
SCF iterations                  ...      269.508 sec (=   4.492 min)  72.2 %
                             ****ORCA TERMINATED NORMALLY****
TOTAL RUN TIME: 0 days 0 hours 6 minutes 19 seconds 823 msec
