
                                 *****************
                                 * O   R   C   A *
                                 *****************

                                            #,                                       
                                            ###                                      
                                            ####                                     
                                            #####                                    
                                            ######                                   
                                           ########,                                 
                                     ,,################,,,,,                         
                               ,,#################################,,                 
                          ,,##########################################,,             
                       ,#########################################, ''#####,          
                    ,#############################################,,   '####,        
                  ,##################################################,,,,####,       
                ,###########''''           ''''###############################       
              ,#####''   ,,,,##########,,,,          '''####'''          '####       
            ,##' ,,,,###########################,,,                        '##       
           ' ,,###''''                  '''############,,,                           
         ,,##''                                '''############,,,,        ,,,,,,###''
      ,#''                                            '''#######################'''  
     '                                                          ''''####''''         
             ,#######,   #######,   ,#######,      ##                                
            ,#'     '#,  ##    ##  ,#'     '#,    #''#        ######   ,####,        
            ##       ##  ##   ,#'  ##            #'  '#       #        #'  '#        
            ##       ##  #######   ##           ,######,      #####,   #    #        
            '#,     ,#'  ##    ##  '#,     ,#' ,#      #,         ##   #,  ,#        
             '#######'   ##     ##  '#######'  #'      '#     #####' # '####'        



                  #######################################################
                  #                        -***-                        #
                  #          Department of theory and spectroscopy      #
                  #    Directorship and core code : Frank Neese         #
                  #        Max Planck Institute fuer Kohlenforschung    #
                  #                Kaiser Wilhelm Platz 1               #
                  #                 D-45470 Muelheim/Ruhr               #
                  #                      Germany                        #
                  #                                                     #
                  #                  All rights reserved                #
                  #                        -***-                        #
                  #######################################################


                         Program Version 5.0.1 -  RELEASE  -


 With contributions from (in alphabetic order):
   Daniel Aravena         : Magnetic Suceptibility
   Michael Atanasov       : Ab Initio Ligand Field Theory (pilot matlab implementation)
   Alexander A. Auer      : GIAO ZORA, VPT2 properties, NMR spectrum
   Ute Becker             : Parallelization
   Giovanni Bistoni       : ED, misc. LED, open-shell LED, HFLD
   Martin Brehm           : Molecular dynamics
   Dmytro Bykov           : SCF Hessian
   Vijay G. Chilkuri      : MRCI spin determinant printing, contributions to CSF-ICE
   Dipayan Datta          : RHF DLPNO-CCSD density
   Achintya Kumar Dutta   : EOM-CC, STEOM-CC
   Dmitry Ganyushin       : Spin-Orbit,Spin-Spin,Magnetic field MRCI
   Miquel Garcia          : C-PCM and meta-GGA Hessian, CC/C-PCM, Gaussian charge scheme
   Yang Guo               : DLPNO-NEVPT2, F12-NEVPT2, CIM, IAO-localization
   Andreas Hansen         : Spin unrestricted coupled pair/coupled cluster methods
   Benjamin Helmich-Paris : MC-RPA, TRAH-SCF, COSX integrals
   Lee Huntington         : MR-EOM, pCC
   Robert Izsak           : Overlap fitted RIJCOSX, COSX-SCS-MP3, EOM
   Marcus Kettner         : VPT2
   Christian Kollmar      : KDIIS, OOCD, Brueckner-CCSD(T), CCSD density, CASPT2, CASPT2-K
   Simone Kossmann        : Meta GGA functionals, TD-DFT gradient, OOMP2, MP2 Hessian
   Martin Krupicka        : Initial AUTO-CI
   Lucas Lang             : DCDCAS
   Marvin Lechner         : AUTO-CI (C++ implementation), FIC-MRCC
   Dagmar Lenk            : GEPOL surface, SMD
   Dimitrios Liakos       : Extrapolation schemes; Compound Job, initial MDCI parallelization
   Dimitrios Manganas     : Further ROCIS development; embedding schemes
   Dimitrios Pantazis     : SARC Basis sets
   Anastasios Papadopoulos: AUTO-CI, single reference methods and gradients
   Taras Petrenko         : DFT Hessian,TD-DFT gradient, ASA, ECA, R-Raman, ABS, FL, XAS/XES, NRVS
   Peter Pinski           : DLPNO-MP2, DLPNO-MP2 Gradient
   Christoph Reimann      : Effective Core Potentials
   Marius Retegan         : Local ZFS, SOC
   Christoph Riplinger    : Optimizer, TS searches, QM/MM, DLPNO-CCSD(T), (RO)-DLPNO pert. Triples
   Tobias Risthaus        : Range-separated hybrids, TD-DFT gradient, RPA, STAB
   Michael Roemelt        : Original ROCIS implementation
   Masaaki Saitow         : Open-shell DLPNO-CCSD energy and density
   Barbara Sandhoefer     : DKH picture change effects
   Avijit Sen             : IP-ROCIS
   Kantharuban Sivalingam : CASSCF convergence, NEVPT2, FIC-MRCI
   Bernardo de Souza      : ESD, SOC TD-DFT
   Georgi Stoychev        : AutoAux, RI-MP2 NMR, DLPNO-MP2 response
   Willem Van den Heuvel  : Paramagnetic NMR
   Boris Wezisla          : Elementary symmetry handling
   Frank Wennmohs         : Technical directorship


 We gratefully acknowledge several colleagues who have allowed us to
 interface, adapt or use parts of their codes:
   Stefan Grimme, W. Hujo, H. Kruse, P. Pracht,  : VdW corrections, initial TS optimization,
                  C. Bannwarth, S. Ehlert          DFT functionals, gCP, sTDA/sTD-DF
   Ed Valeev, F. Pavosevic, A. Kumar             : LibInt (2-el integral package), F12 methods
   Garnet Chan, S. Sharma, J. Yang, R. Olivares  : DMRG
   Ulf Ekstrom                                   : XCFun DFT Library
   Mihaly Kallay                                 : mrcc  (arbitrary order and MRCC methods)
   Jiri Pittner, Ondrej Demel                    : Mk-CCSD
   Frank Weinhold                                : gennbo (NPA and NBO analysis)
   Christopher J. Cramer and Donald G. Truhlar   : smd solvation model
   Lars Goerigk                                  : TD-DFT with DH, B97 family of functionals
   V. Asgeirsson, H. Jonsson                     : NEB implementation
   FAccTs GmbH                                   : IRC, NEB, NEB-TS, DLPNO-Multilevel, CI-OPT
                                                   MM, QMMM, 2- and 3-layer-ONIOM, Crystal-QMMM,
                                                   LR-CPCM, SF, NACMEs, symmetry and pop. for TD-DFT,
                                                   nearIR, NL-DFT gradient (VV10), updates on ESD,
                                                   ML-optimized integration grids
   S Lehtola, MJT Oliveira, MAL Marques          : LibXC Library
   Liviu Ungur et al                             : ANISO software


 Your calculation uses the libint2 library for the computation of 2-el integrals
 For citations please refer to: http://libint.valeyev.net

 Your ORCA version has been built with support for libXC version: 5.1.0
 For citations please refer to: https://tddft.org/programs/libxc/

 This ORCA versions uses:
   CBLAS   interface :  Fast vector & matrix operations
   LAPACKE interface :  Fast linear algebra routines
   SCALAPACK package :  Parallel linear algebra routines
   Shared memory     :  Shared parallel matrices
   BLAS/LAPACK       :  OpenBLAS 0.3.15  USE64BITINT DYNAMIC_ARCH NO_AFFINITY Haswell SINGLE_THREADED
        Core in use  :  Haswell
   Copyright (c) 2011-2014, The OpenBLAS Project


SCAN-COORDS

Reading of a custom basis requested
Basis file         : Y_ugbs.basis
READING GTO-BASIS: YTTRIUM
Basis successfully read

================================================================================

----- Orbital basis set information -----
================================================================================
                                        WARNINGS
                       Please study these warnings very carefully!
================================================================================


INFO   : the flag for use of the SHARK integral package has been found!

================================================================================
                                       INPUT FILE
================================================================================
NAME = Y_ugbs_pbe.inp
|  1> !uks pbe nori verytightscf soscf notrah
|  2> 
|  3> %pal
|  4>   nprocs 32
|  5> end
|  6> %coords
|  7>   charge 0
|  8>   mult 2
|  9>   units bohrs
| 10>   coords
| 11>     Y 0.0 0.0 0.0
| 12>   end
| 13> end
| 14> %basis
| 15>   gtoname "Y_ugbs.basis"
| 16>   delECP Y
| 17> end
| 18> %rel
| 19>   method zora
| 20>   modelpot 1, 0, 0, 0
| 21>   c 137.035999084
| 22> endd                         ****END OF INPUT****
================================================================================

                       ****************************
                       * Single Point Calculation *
                       ****************************

---------------------------------
CARTESIAN COORDINATES (ANGSTROEM)
---------------------------------
   Y     0.000000    0.000000    0.000000

----------------------------
CARTESIAN COORDINATES (A.U.)
----------------------------
  NO LB      ZA    FRAG     MASS         X           Y           Z
   0  Y   39.0000    0    88.910    0.000000    0.000000    0.000000

--------------------------------
INTERNAL COORDINATES (ANGSTROEM)
--------------------------------
  Y     0   0   0     0.000000000000     0.00000000     0.00000000

---------------------------
INTERNAL COORDINATES (A.U.)
---------------------------
  Y     0   0   0     0.000000000000     0.00000000     0.00000000

---------------------
BASIS SET INFORMATION
---------------------
There are 1 groups of distinct atoms

 Group   1 Type  Y  : 30s22p18d contracted to 30s22p18d pattern {111111111111111111111111111111/1111111111111111111111/111111111111111111}

Atom   0 Y   basis set group =>   1


           ************************************************************
           *        Program running with 32 parallel MPI-processes    *
           *              working on a common directory               *
           ************************************************************
------------------------------------------------------------------------------
                           ORCA GTO INTEGRAL CALCULATION
------------------------------------------------------------------------------
------------------------------------------------------------------------------
                   ___                                                        
                  /   \      - P O W E R E D   B Y -                         
                 /     \                                                     
                 |  |  |   _    _      __       _____    __    __             
                 |  |  |  | |  | |    /  \     |  _  \  |  |  /  |          
                  \  \/   | |  | |   /    \    | | | |  |  | /  /          
                 / \  \   | |__| |  /  /\  \   | |_| |  |  |/  /          
                |  |  |   |  __  | /  /__\  \  |    /   |      \           
                |  |  |   | |  | | |   __   |  |    \   |  |\   \          
                \     /   | |  | | |  |  |  |  | |\  \  |  | \   \       
                 \___/    |_|  |_| |__|  |__|  |_| \__\ |__|  \__/        
                                                                              
                      - O R C A' S   B I G   F R I E N D -                    
                                      &                                       
                       - I N T E G R A L  F E E D E R -                       
                                                                              
 v1 FN, 2020, v2 2021                                                         
------------------------------------------------------------------------------


Reading SHARK input file Y_ugbs_pbe.SHARKINP.tmp ... ok
----------------------
SHARK INTEGRAL PACKAGE
----------------------

Number of atoms                             ...      1
Number of basis functions                   ...    186
Number of shells                            ...     70
Maximum angular momentum                    ...      2
Integral batch strategy                     ... SHARK/LIBINT Hybrid
RI-J (if used) integral strategy            ... SPLIT-RIJ (Revised 2003 algorithm where possible)
Printlevel                                  ...      1
Contraction scheme used                     ... SEGMENTED contraction
Coulomb Range Separation                    ... NOT USED
Exchange Range Separation                   ... NOT USED
Finite Nucleus Model                        ... NOT USED
Auxiliary Coulomb fitting basis             ... NOT available
Auxiliary J/K fitting basis                 ... NOT available
Auxiliary Correlation fitting basis         ... NOT available
Auxiliary 'external' fitting basis          ... NOT available
Integral threshold                          ...     1.000000e-12
Primitive cut-off                           ...     1.000000e-14
Primitive pair pre-selection threshold      ...     1.000000e-14

Calculating pre-screening integrals         ... done ( 18.6 sec) Dimension = 70
Organizing shell pair data                  ... done (  0.1 sec)
Shell pair information
Total number of shell pairs                 ...      2485
Shell pairs after pre-screening             ...      2485
Total number of primitive shell pairs       ...      2485
Primitive shell pairs kept                  ...      2485
          la=0 lb=0:    465 shell pairs
          la=1 lb=0:    660 shell pairs
          la=1 lb=1:    253 shell pairs
          la=2 lb=0:    540 shell pairs
          la=2 lb=1:    396 shell pairs
          la=2 lb=2:    171 shell pairs

Calculating one electron integrals          ... done (  0.0 sec)
Calculating Nuclear repulsion               ... done (  0.0 sec) ENN=      0.000000000000 Eh

SHARK setup successfully completed in  37.8 seconds

Maximum memory used throughout the entire GTOINT-calculation: 6.0 MB


           ************************************************************
           *        Program running with 32 parallel MPI-processes    *
           *              working on a common directory               *
           ************************************************************
------------------------------------------------------------------------------
                          ORCA RELATIVISTIC HAMILTONIAN
------------------------------------------------------------------------------

Relativistic Method            ... ZORA(MP)
Treatment of potential         ... Van Wuellen
Nucleus model                  ... Point Nucleus
Speed of light used            ... 137.03599908400000


            *************************************************
            *         ZERO ORDER REGULAR APPROXIMATION      *
            *                     ZORA(MP)                  *
            *            Programmed by FN according to      *
            *                   C. van Wuellen              *
            *       J. Chem. Phys. (1998) vol 109, 392-399  *
            *************************************************

Terms included in model potential: +V(e,N)
Basis function cutoff value   ... 1.000000e-12
Loading the fitted atomic densities  (DKH4)  ... done
Calculating the cutoffs                      ... done
Number of fit functions                      ... 28
Setting up the integration grid ... done

Maximum memory used throughout the entire REL-calculation: 10.5 MB


           ************************************************************
           *        Program running with 32 parallel MPI-processes    *
           *              working on a common directory               *
           ************************************************************
-------------------------------------------------------------------------------
                                 ORCA SCF
-------------------------------------------------------------------------------

------------
SCF SETTINGS
------------
Hamiltonian:
 Density Functional     Method          .... DFT(GTOs)
 Exchange Functional    Exchange        .... PBE
   PBE kappa parameter   XKappa         ....  0.804000
   PBE mue parameter    XMuePBE         ....  0.219520
 Correlation Functional Correlation     .... PBE
   PBE beta parameter  CBetaPBE         ....  0.066725
 LDA part of GGA corr.  LDAOpt          .... PW91-LDA
 Gradients option       PostSCFGGA      .... off
   Density functional embedding theory  .... OFF
   NL short-range parameter             ....  6.400000

Relativistic Settings:
 Scalar relativistic method             .... ZORA
 Speed of light used       Velit        ....       137.035999
Orbital energies will be scaled


General Settings:
 Integral files         IntName         .... Y_ugbs_pbe
 Hartree-Fock type      HFTyp           .... UHF
 Total Charge           Charge          ....    0
 Multiplicity           Mult            ....    2
 Number of Electrons    NEL             ....   39
 Basis Dimension        Dim             ....  186
 Nuclear Repulsion      ENuc            ....      0.0000000000 Eh

Convergence Acceleration:
 DIIS                   CNVDIIS         .... on
   Start iteration      DIISMaxIt       ....    12
   Startup error        DIISStart       ....  0.200000
   # of expansion vecs  DIISMaxEq       ....     5
   Bias factor          DIISBfac        ....   1.050
   Max. coefficient     DIISMaxC        ....  10.000
 Trust-Rad. Augm. Hess. CNVTRAH         .... off
 SOSCF                  CNVSOSCF        .... on
   Start iteration      SOSCFMaxIt      ....   150
   Startup grad/error   SOSCFStart      ....  0.003300
 Level Shifting         CNVShift        .... on
   Level shift para.    LevelShift      ....    0.2500
   Turn off err/grad.   ShiftErr        ....    0.0010
 Zerner damping         CNVZerner       .... off
 Static damping         CNVDamp         .... on
   Fraction old density DampFac         ....    0.7000
   Max. Damping (<1)    DampMax         ....    0.9800
   Min. Damping (>=0)   DampMin         ....    0.0000
   Turn off err/grad.   DampErr         ....    0.1000
 Fernandez-Rico         CNVRico         .... off

SCF Procedure:
 Maximum # iterations   MaxIter         ....   125
 SCF integral mode      SCFMode         .... Direct
   Integral package                     .... SHARK and LIBINT hybrid scheme
 Reset frequency        DirectResetFreq ....    20
 Integral Threshold     Thresh          ....  1.000e-12 Eh
 Primitive CutOff       TCut            ....  1.000e-14 Eh

Convergence Tolerance:
 Convergence Check Mode ConvCheckMode   .... Total+1el-Energy
 Convergence forced     ConvForced      .... 0
 Energy Change          TolE            ....  1.000e-09 Eh
 1-El. energy change                    ....  1.000e-06 Eh
 Orbital Gradient       TolG            ....  2.000e-06
 Orbital Rotation angle TolX            ....  2.000e-06
 DIIS Error             TolErr          ....  1.000e-08


Diagonalization of the overlap matrix:
Smallest eigenvalue                        ... 6.125e-05
Time for diagonalization                   ...    1.084 sec
Threshold for overlap eigenvalues          ... 1.000e-08
Number of eigenvalues below threshold      ... 0
Time for construction of square roots      ...    2.838 sec
Total time needed                          ...    3.924 sec

Time for model grid setup =    0.188 sec

------------------------------
INITIAL GUESS: MODEL POTENTIAL
------------------------------
Loading ZORA relativistic densities                ... done
Calculating cut-offs                               ... done
Initializing the effective Hamiltonian             ... done
Setting up the integral package (SHARK)            ... done
Starting the Coulomb interaction                   ... done (  12.7 sec)
Reading the grid                                   ... done
Mapping shells                                     ... done
Starting the XC term evaluation                    ... done (   0.6 sec)
  promolecular density results
     # of electrons  =     38.999999970
     EX              =   -109.546984611
     EC              =     -1.900629291
     EX+EC           =   -111.447613902
Transforming the Hamiltonian                       ... done (   0.2 sec)
Diagonalizing the Hamiltonian                      ... done (   0.1 sec)
Back transforming the eigenvectors                 ... done (   0.1 sec)
Now organizing SCF variables                       ... done
                      ------------------
                      INITIAL GUESS DONE (  16.6 sec)
                      ------------------
-------------------
DFT GRID GENERATION
-------------------

General Integration Accuracy     IntAcc      ... 4.388
Radial Grid Type                 RadialGrid  ... OptM3 with GC (2021)
Angular Grid (max. ang.)         AngularGrid ... 4 (Lebedev-302)
Angular grid pruning method      GridPruning ... 4 (adaptive)
Weight generation scheme         WeightScheme... Becke
Basis function cutoff            BFCut       ... 1.0000e-12
Integration weight cutoff        WCut        ... 1.0000e-14
Angular grids for H and He will be reduced by one unit
Partially contracted basis set               ... off
Rotationally invariant grid construction     ... off

Total number of grid points                  ...    27544
Total number of batches                      ...      431
Average number of points per batch           ...       63
Average number of grid points per atom       ...    27544
Time for grid setup =    5.918 sec

--------------
SCF ITERATIONS
--------------
ITER       Energy         Delta-E        Max-DP      RMS-DP      [F,P]     Damp
               ***  Starting incremental Fock matrix formation  ***
  0  -3425.6817621153   0.000000000000 0.00696433  0.00007308  1.0693691 0.7000
  1  -3425.6835951056  -0.001832990375 0.00798589  0.00006541  0.7381064 0.7000
  2  -3425.6848206275  -0.001225521867 0.00697266  0.00005599  0.5098131 0.7000
  3  -3425.6857147136  -0.000894086105 0.00541389  0.00004777  0.3523659 0.7000
  4  -3425.6863876270  -0.000672913358 0.00397565  0.00004133  0.2436667 0.7000
                               ***Turning on DIIS***
  5  -3425.6869019820  -0.000514355047 0.00288201  0.00003645  0.1685653 0.7000
  6  -3425.6873003631  -0.000398381114 0.00249133  0.00003430  0.1166483 0.7000
  7  -3425.6876177485  -0.000317385387 0.00779990  0.00010781  0.0813778 0.0000
  8  -3425.6885305885  -0.000912839964 0.00836797  0.00019446  0.0008426 0.0000
  9  -3425.6892211563  -0.000690567792 0.00034251  0.00000269  0.0042599 0.0000
 10  -3425.6892295375  -0.000008381251 0.00022331  0.00000198  0.0040056 0.0000
 11  -3425.6892360956  -0.000006558043 0.00014905  0.00000166  0.0039266 0.0000
 12  -3425.6892417490  -0.000005653390 0.00013263  0.00000161  0.0038905 0.0000
 13  -3425.6892473198  -0.000005570874 0.00550759  0.00004359  0.0038560 0.0000
                      *** Initiating the SOSCF procedure ***
                           *** Shutting down DIIS ***
                      *** Re-Reading the Fockian *** 
                      *** Removing any level shift *** 
ITER      Energy       Delta-E        Grad      Rot      Max-DP    RMS-DP
 14  -3425.68935567  -0.0001083523  0.002354  0.002354  0.002516  0.000026
               *** Restarting incremental Fock matrix formation ***
 15  -3425.68942387  -0.0000681992  0.002166  0.037293  0.004810  0.000103
 16  -3425.68966439  -0.0002405152  0.001124  0.057518  0.020421  0.000206
 17  -3425.68980117  -0.0001367787  0.000521  0.013329  0.004931  0.000050
 18  -3425.68981868  -0.0000175123  0.000244  0.005152  0.000445  0.000010
 19  -3425.68982142  -0.0000027393  0.000165  0.008560  0.000527  0.000011
 20  -3425.68982320  -0.0000017799  0.000055  0.001395  0.000383  0.000004
 21  -3425.68982330  -0.0000001041  0.000030  0.000199  0.000102  0.000001
 22  -3425.68982331  -0.0000000069  0.000014  0.000071  0.000014  0.000000
                  ***Gradient check signals convergence***
              ***Rediagonalizing the Fockian in SOSCF/NRSCF***

               *****************************************************
               *                     SUCCESS                       *
               *           SCF CONVERGED AFTER  23 CYCLES          *
               *****************************************************


----------------
TOTAL SCF ENERGY
----------------

Total Energy       :        -3425.68982331 Eh          -93217.75919 eV

Components:
Nuclear Repulsion  :            0.00000000 Eh               0.00000 eV
Electronic Energy  :        -3425.68982331 Eh          -93217.75919 eV
One Electron Energy:        -4720.71755179 Eh         -128457.25522 eV
Two Electron Energy:         1295.02772848 Eh           35239.49603 eV

Virial components:
Potential Energy   :        -6946.33918856 Eh         -189019.49889 eV
Kinetic Energy     :         3520.64936525 Eh           95801.73969 eV
Virial Ratio       :            1.97302783


DFT components:
N(Alpha)           :       20.000000000036 electrons
N(Beta)            :       18.999999999868 electrons
N(Total)           :       38.999999999904 electrons
E(X)               :     -108.290295803125 Eh       
E(C)               :       -1.898349953230 Eh       
E(XC)              :     -110.188645756355 Eh       
DFET-embed. en.    :        0.000000000000 Eh       

---------------
SCF CONVERGENCE
---------------

  Last Energy change         ...   -8.4719e-10  Tolerance :   1.0000e-09
  Last MAX-Density change    ...    4.0912e-06  Tolerance :   1.0000e-08
  Last RMS-Density change    ...    4.3208e-08  Tolerance :   1.0000e-09
  Last Orbital Gradient      ...    4.0955e-07  Tolerance :   2.0000e-06
  Last Orbital Rotation      ...    8.4154e-06  Tolerance :   2.0000e-06

             **** THE GBW FILE WAS UPDATED (Y_ugbs_pbe.gbw) ****
             **** DENSITY Y_ugbs_pbe.scfp WAS UPDATED ****
             **** ENERGY FILE WAS UPDATED (Y_ugbs_pbe.en.tmp) ****
----------------------
UHF SPIN CONTAMINATION
----------------------

Warning: in a DFT calculation there is little theoretical justification to 
         calculate <S**2> as in Hartree-Fock theory. We will do it anyways
         but you should keep in mind that the values have only limited relevance

Expectation value of <S**2>     :     0.926996
Ideal value S*(S+1) for S=0.5   :     0.750000
Deviation                       :     0.176996

             **** THE GBW FILE WAS UPDATED (Y_ugbs_pbe.gbw) ****
             **** DENSITY Y_ugbs_pbe.scfp WAS UPDATED ****
----------------
ORBITAL ENERGIES
----------------
                 SPIN UP ORBITALS
  NO   OCC          E(Eh)            E(eV) 
   0   1.0000    -634.863120    -17275.5038 
   1   1.0000     -85.595273     -2329.1658 
   2   1.0000     -76.126419     -2071.5052 
   3   1.0000     -76.123993     -2071.4392 
   4   1.0000     -76.123993     -2071.4392 
   5   1.0000     -13.615559      -370.4982 
   6   1.0000     -10.569195      -287.6024 
   7   1.0000     -10.560961      -287.3784 
   8   1.0000     -10.560961      -287.3784 
   9   1.0000      -5.554066      -151.1338 
  10   1.0000      -5.552332      -151.0866 
  11   1.0000      -5.552332      -151.0866 
  12   1.0000      -5.546623      -150.9313 
  13   1.0000      -5.546297      -150.9224 
  14   1.0000      -1.766156       -48.0595 
  15   1.0000      -1.029436       -28.0124 
  16   1.0000      -1.022814       -27.8322 
  17   1.0000      -1.022813       -27.8322 
  18   1.0000      -0.152768        -4.1570 
  19   1.0000      -0.107571        -2.9272 
  20   0.0000      -0.089390        -2.4324 
  21   0.0000      -0.089390        -2.4324 
  22   0.0000      -0.087787        -2.3888 
  23   0.0000      -0.082826        -2.2538 
  24   0.0000      -0.039228        -1.0674 
  25   0.0000      -0.039227        -1.0674 
  26   0.0000      -0.028093        -0.7645 
  27   0.0000       0.007748         0.2108 
  28   0.0000       0.050492         1.3740 
  29   0.0000       0.056023         1.5245 
  30   0.0000       0.056023         1.5245 
  31   0.0000       0.056327         1.5327 
  32   0.0000       0.057185         1.5561 
  33   0.0000       0.146552         3.9879 
  34   0.0000       0.234480         6.3805 
  35   0.0000       0.242926         6.6104 
  36   0.0000       0.242927         6.6104 
  37   0.0000       0.244279         6.6472 
  38   0.0000       0.245117         6.6700 
  39   0.0000       0.319406         8.6915 
  40   0.0000       0.319406         8.6915 
  41   0.0000       0.329128         8.9560 
  42   0.0000       0.511501        13.9186 
  43   0.0000       0.662749        18.0343 
  44   0.0000       0.675308        18.3761 
  45   0.0000       0.675308        18.3761 
  46   0.0000       0.677785        18.4435 
  47   0.0000       0.677865        18.4456 
  48   0.0000       1.226082        33.3634 
  49   0.0000       1.226083        33.3634 
  50   0.0000       1.235053        33.6075 
  51   0.0000       1.476588        40.1800 
  52   0.0000       1.625766        44.2394 
  53   0.0000       1.642668        44.6993 
  54   0.0000       1.642669        44.6993 
  55   0.0000       1.642764        44.7019 
  56   0.0000       1.648434        44.8562 
  57   0.0000       3.488787        94.9347 
  58   0.0000       3.488787        94.9347 
  59   0.0000       3.490794        94.9893 
  60   0.0000       3.790875       103.1550 
  61   0.0000       3.802599       103.4740 
  62   0.0000       3.803081       103.4871 
  63   0.0000       3.803081       103.4871 
  64   0.0000       3.811421       103.7140 
  65   0.0000       4.019193       109.3678 
  66   0.0000       8.708487       236.9700 
  67   0.0000       8.708854       236.9800 
  68   0.0000       8.710322       237.0199 
  69   0.0000       8.710322       237.0199 
  70   0.0000       8.720428       237.2949 
  71   0.0000       9.196961       250.2620 
  72   0.0000       9.203885       250.4505 
  73   0.0000       9.203886       250.4505 
  74   0.0000      10.851854       295.2940 
  75   0.0000      19.852334       540.2095 
  76   0.0000      19.854585       540.2707 
  77   0.0000      19.854585       540.2707 
  78   0.0000      19.858535       540.3782 
  79   0.0000      19.863872       540.5235 
  80   0.0000      23.695070       644.7756 
  81   0.0000      23.704496       645.0321 
  82   0.0000      23.704496       645.0321 
  83   0.0000      29.271383       796.5148 
  84   0.0000      44.819340      1219.5962 
  85   0.0000      44.821121      1219.6447 
  86   0.0000      44.821121      1219.6447 
  87   0.0000      44.826688      1219.7962 
  88   0.0000      44.827838      1219.8275 
  89   0.0000      59.629985      1622.6144 
  90   0.0000      59.637495      1622.8187 
  91   0.0000      59.637495      1622.8188 
  92   0.0000      77.735855      2115.3001 
  93   0.0000      99.804124      2715.8083 
  94   0.0000      99.805549      2715.8471 
  95   0.0000      99.805549      2715.8471 
  96   0.0000      99.809636      2715.9583 
  97   0.0000      99.810635      2715.9854 
  98   0.0000     145.176425      3950.4514 
  99   0.0000     145.181633      3950.5931 
 100   0.0000     145.181633      3950.5931 
 101   0.0000     200.227723      5448.4733 
 102   0.0000     219.114203      5962.4006 
 103   0.0000     219.115385      5962.4327 
 104   0.0000     219.115385      5962.4328 
 105   0.0000     219.117226      5962.4829 
 106   0.0000     219.119458      5962.5436 
 107   0.0000     339.348142      9234.1324 
 108   0.0000     339.351494      9234.2236 
 109   0.0000     339.351494      9234.2236 
 110   0.0000     472.986609     12870.6200 
 111   0.0000     472.987470     12870.6434 
 112   0.0000     472.987470     12870.6434 
 113   0.0000     472.988742     12870.6780 
 114   0.0000     472.990425     12870.7238 
 115   0.0000     493.532227     13429.6947 
 116   0.0000     761.029180     20708.6568 
 117   0.0000     761.031485     20708.7195 
 118   0.0000     761.031485     20708.7195 
 119   0.0000    1003.425357     27304.5921 
 120   0.0000    1003.425936     27304.6079 
 121   0.0000    1003.425936     27304.6079 
 122   0.0000    1003.426965     27304.6358 
 123   0.0000    1003.427903     27304.6614 
 124   0.0000    1156.676853     31474.7773 
 125   0.0000    1646.695029     44808.8498 
 126   0.0000    1646.696583     44808.8921 
 127   0.0000    1646.696583     44808.8921 
 128   0.0000    2096.353043     57044.6664 
 129   0.0000    2096.353416     57044.6765 
 130   0.0000    2096.353416     57044.6766 
 131   0.0000    2096.354253     57044.6993 
 132   0.0000    2096.354663     57044.7105 
 133   0.0000    2582.589877     70275.8433 
 134   0.0000    3461.313568     94187.1306 
 135   0.0000    3461.314619     94187.1592 
 136   0.0000    3461.314619     94187.1592 
 137   0.0000    4329.293928    117806.0769 
 138   0.0000    4329.294165    117806.0834 
 139   0.0000    4329.294165    117806.0834 
 140   0.0000    4329.294771    117806.0999 
 141   0.0000    4329.294937    117806.1044 
 142   0.0000    5534.742472    150607.9994 
 143   0.0000    7107.645137    193408.8569 
 144   0.0000    7107.645808    193408.8751 
 145   0.0000    7107.645808    193408.8751 
 146   0.0000    8969.225870    244065.0439 
 147   0.0000    8969.226011    244065.0478 
 148   0.0000    8969.226011    244065.0478 
 149   0.0000    8969.226400    244065.0584 
 150   0.0000    8969.226460    244065.0600 
 151   0.0000   11483.099394    312471.0202 
 152   0.0000   14329.459317    389924.4114 
 153   0.0000   14329.459727    389924.4226 
 154   0.0000   14329.459727    389924.4226 
 155   0.0000   18859.544673    513194.3008 
 156   0.0000   18859.544744    513194.3028 
 157   0.0000   18859.544744    513194.3028 
 158   0.0000   18859.544949    513194.3083 
 159   0.0000   18859.544969    513194.3089 
 160   0.0000   23219.345788    631830.5205 
 161   0.0000   28429.953517    773618.3652 
 162   0.0000   28429.953756    773618.3717 
 163   0.0000   28429.953756    773618.3717 
 164   0.0000   45957.813426   1250575.6814 
 165   0.0000   55788.775356   1518089.7556 
 166   0.0000   55788.775490   1518089.7593 
 167   0.0000   55788.775490   1518089.7593 
 168   0.0000   89212.689316   2427600.6931 
 169   0.0000   107972.643398   2938084.9962 
 170   0.0000   107972.643472   2938084.9982 
 171   0.0000   107972.643472   2938084.9982 
 172   0.0000   169952.772852   4624650.0620 
 173   0.0000   210993.049932   5741412.7764 
 174   0.0000   210993.049970   5741412.7775 
 175   0.0000   210993.049970   5741412.7775 
 176   0.0000   317263.169893   8633169.7547 
 177   0.0000   401203.520704   10917302.8233 
 178   0.0000   401203.520723   10917302.8238 
 179   0.0000   401203.520723   10917302.8238 
 180   0.0000   580078.319659   15784733.5583 
 181   0.0000   1033620.582159   28126245.9513 
 182   0.0000   1806383.734808   49154200.3754 
 183   0.0000   3031431.820506   82489453.5188 
 184   0.0000   5236292.570810   142486764.7389 
 185   0.0000   8063614.764471   219422112.9459 

                 SPIN DOWN ORBITALS
  NO   OCC          E(Eh)            E(eV) 
   0   1.0000    -634.863211    -17275.5062 
   1   1.0000     -85.593528     -2329.1183 
   2   1.0000     -76.126321     -2071.5025 
   3   1.0000     -76.122156     -2071.3892 
   4   1.0000     -76.122156     -2071.3892 
   5   1.0000     -13.614583      -370.4716 
   6   1.0000     -10.568286      -287.5777 
   7   1.0000     -10.559828      -287.3475 
   8   1.0000     -10.559828      -287.3475 
   9   1.0000      -5.552473      -151.0905 
  10   1.0000      -5.551027      -151.0511 
  11   1.0000      -5.551027      -151.0511 
  12   1.0000      -5.546542      -150.9291 
  13   1.0000      -5.542452      -150.8178 
  14   1.0000      -1.754206       -47.7344 
  15   1.0000      -1.027198       -27.9515 
  16   1.0000      -1.001912       -27.2634 
  17   1.0000      -1.001912       -27.2634 
  18   1.0000      -0.143946        -3.9170 
  19   0.0000      -0.083505        -2.2723 
  20   0.0000      -0.082331        -2.2403 
  21   0.0000      -0.082330        -2.2403 
  22   0.0000      -0.067355        -1.8328 
  23   0.0000      -0.053184        -1.4472 
  24   0.0000      -0.041771        -1.1367 
  25   0.0000      -0.015819        -0.4305 
  26   0.0000      -0.015819        -0.4304 
  27   0.0000       0.010968         0.2985 
  28   0.0000       0.056178         1.5287 
  29   0.0000       0.057338         1.5602 
  30   0.0000       0.057338         1.5603 
  31   0.0000       0.063447         1.7265 
  32   0.0000       0.066356         1.8056 
  33   0.0000       0.152450         4.1484 
  34   0.0000       0.243069         6.6142 
  35   0.0000       0.244825         6.6620 
  36   0.0000       0.244825         6.6620 
  37   0.0000       0.255891         6.9632 
  38   0.0000       0.262224         7.1355 
  39   0.0000       0.318218         8.6591 
  40   0.0000       0.342017         9.3067 
  41   0.0000       0.342017         9.3068 
  42   0.0000       0.522036        14.2053 
  43   0.0000       0.674778        18.3616 
  44   0.0000       0.678153        18.4535 
  45   0.0000       0.678154        18.4535 
  46   0.0000       0.692470        18.8431 
  47   0.0000       0.702198        19.1078 
  48   0.0000       1.225123        33.3373 
  49   0.0000       1.253439        34.1078 
  50   0.0000       1.253440        34.1078 
  51   0.0000       1.491765        40.5930 
  52   0.0000       1.642187        44.6862 
  53   0.0000       1.647656        44.8350 
  54   0.0000       1.647657        44.8350 
  55   0.0000       1.660995        45.1980 
  56   0.0000       1.672129        45.5010 
  57   0.0000       3.486573        94.8745 
  58   0.0000       3.513751        95.6140 
  59   0.0000       3.513752        95.6140 
  60   0.0000       3.804662       103.5301 
  61   0.0000       3.810440       103.6874 
  62   0.0000       3.810441       103.6874 
  63   0.0000       3.823271       104.0365 
  64   0.0000       3.837636       104.4274 
  65   0.0000       4.034021       109.7713 
  66   0.0000       8.712760       237.0862 
  67   0.0000       8.716491       237.1878 
  68   0.0000       8.716491       237.1878 
  69   0.0000       8.725923       237.4444 
  70   0.0000       8.739526       237.8146 
  71   0.0000       9.197513       250.2771 
  72   0.0000       9.218979       250.8612 
  73   0.0000       9.218979       250.8612 
  74   0.0000      10.861238       295.5493 
  75   0.0000      19.856083       540.3115 
  76   0.0000      19.858495       540.3771 
  77   0.0000      19.858495       540.3771 
  78   0.0000      19.865082       540.5564 
  79   0.0000      19.874435       540.8109 
  80   0.0000      23.696848       644.8240 
  81   0.0000      23.710691       645.2007 
  82   0.0000      23.710691       645.2007 
  83   0.0000      29.275127       796.6167 
  84   0.0000      44.821107      1219.6443 
  85   0.0000      44.822854      1219.6919 
  86   0.0000      44.822855      1219.6919 
  87   0.0000      44.828129      1219.8354 
  88   0.0000      44.833715      1219.9874 
  89   0.0000      59.631123      1622.6454 
  90   0.0000      59.640516      1622.9009 
  91   0.0000      59.640516      1622.9009 
  92   0.0000      77.738242      2115.3651 
  93   0.0000      99.805526      2715.8464 
  94   0.0000      99.806853      2715.8825 
  95   0.0000      99.806853      2715.8825 
  96   0.0000      99.810819      2715.9905 
  97   0.0000      99.814611      2716.0936 
  98   0.0000     145.177368      3950.4770 
  99   0.0000     145.184174      3950.6622 
 100   0.0000     145.184174      3950.6622 
 101   0.0000     200.229812      5448.5302 
 102   0.0000     219.115783      5962.4436 
 103   0.0000     219.116869      5962.4731 
 104   0.0000     219.116869      5962.4731 
 105   0.0000     219.119835      5962.5538 
 106   0.0000     219.122841      5962.6356 
 107   0.0000     339.348823      9234.1509 
 108   0.0000     339.353891      9234.2888 
 109   0.0000     339.353891      9234.2888 
 110   0.0000     472.987526     12870.6449 
 111   0.0000     472.988395     12870.6686 
 112   0.0000     472.988395     12870.6686 
 113   0.0000     472.990777     12870.7334 
 114   0.0000     472.992999     12870.7938 
 115   0.0000     493.533753     13429.7362 
 116   0.0000     761.029304     20708.6602 
 117   0.0000     761.032931     20708.7589 
 118   0.0000     761.032931     20708.7589 
 119   0.0000    1003.425692     27304.6012 
 120   0.0000    1003.426310     27304.6180 
 121   0.0000    1003.426310     27304.6180 
 122   0.0000    1003.428048     27304.6653 
 123   0.0000    1003.429421     27304.7027 
 124   0.0000    1156.677506     31474.7951 
 125   0.0000    1646.694929     44808.8471 
 126   0.0000    1646.697203     44808.9089 
 127   0.0000    1646.697203     44808.9089 
 128   0.0000    2096.353102     57044.6680 
 129   0.0000    2096.353482     57044.6783 
 130   0.0000    2096.353482     57044.6783 
 131   0.0000    2096.354579     57044.7082 
 132   0.0000    2096.355316     57044.7283 
 133   0.0000    2582.590051     70275.8481 
 134   0.0000    3461.313495     94187.1286 
 135   0.0000    3461.314732     94187.1623 
 136   0.0000    3461.314732     94187.1623 
 137   0.0000    4329.293910    117806.0764 
 138   0.0000    4329.294115    117806.0820 
 139   0.0000    4329.294115    117806.0820 
 140   0.0000    4329.294716    117806.0984 
 141   0.0000    4329.295065    117806.1079 
 142   0.0000    5534.742461    150607.9991 
 143   0.0000    7107.645126    193408.8566 
 144   0.0000    7107.645762    193408.8739 
 145   0.0000    7107.645762    193408.8739 
 146   0.0000    8969.225874    244065.0441 
 147   0.0000    8969.225974    244065.0468 
 148   0.0000    8969.225974    244065.0468 
 149   0.0000    8969.226270    244065.0548 
 150   0.0000    8969.226416    244065.0588 
 151   0.0000   11483.099363    312471.0194 
 152   0.0000   14329.459345    389924.4121 
 153   0.0000   14329.459663    389924.4208 
 154   0.0000   14329.459663    389924.4208 
 155   0.0000   18859.544696    513194.3015 
 156   0.0000   18859.544741    513194.3027 
 157   0.0000   18859.544741    513194.3027 
 158   0.0000   18859.544872    513194.3063 
 159   0.0000   18859.544927    513194.3078 
 160   0.0000   23219.345774    631830.5202 
 161   0.0000   28429.953556    773618.3663 
 162   0.0000   28429.953718    773618.3707 
 163   0.0000   28429.953718    773618.3707 
 164   0.0000   45957.813430   1250575.6815 
 165   0.0000   55788.775397   1518089.7567 
 166   0.0000   55788.775480   1518089.7590 
 167   0.0000   55788.775480   1518089.7590 
 168   0.0000   89212.689331   2427600.6935 
 169   0.0000   107972.643437   2938084.9973 
 170   0.0000   107972.643480   2938084.9984 
 171   0.0000   107972.643480   2938084.9984 
 172   0.0000   169952.772873   4624650.0625 
 173   0.0000   210993.049968   5741412.7774 
 174   0.0000   210993.049989   5741412.7780 
 175   0.0000   210993.049989   5741412.7780 
 176   0.0000   317263.169915   8633169.7553 
 177   0.0000   401203.520736   10917302.8242 
 178   0.0000   401203.520745   10917302.8244 
 179   0.0000   401203.520745   10917302.8244 
 180   0.0000   580078.319680   15784733.5588 
 181   0.0000   1033620.582179   28126245.9518 
 182   0.0000   1806383.734831   49154200.3760 
 183   0.0000   3031431.820539   82489453.5197 
 184   0.0000   5236292.570835   142486764.7396 
 185   0.0000   8063614.764475   219422112.9460 

                    ********************************
                    * MULLIKEN POPULATION ANALYSIS *
                    ********************************

--------------------------------------------
MULLIKEN ATOMIC CHARGES AND SPIN POPULATIONS
--------------------------------------------
   0  Y:    0.000000    1.000000
Sum of atomic charges         :    0.0000000
Sum of atomic spin populations:    1.0000000

-----------------------------------------------------
MULLIKEN REDUCED ORBITAL CHARGES AND SPIN POPULATIONS
-----------------------------------------------------
CHARGE
  0  Ys       :     9.895752  s :     9.895752
      pz      :     6.000000  p :    18.000000
      px      :     6.000000
      py      :     6.000000
      dz2     :     2.050607  d :    11.104248
      dxz     :     2.875915
      dyz     :     2.072678
      dx2y2   :     2.082744
      dxy     :     2.022303

SPIN
  0  Ys       :     0.066866  s :     0.066866
      pz      :    -0.000000  p :    -0.000000
      px      :     0.000000
      py      :     0.000000
      dz2     :     0.013013  d :     0.933134
      dxz     :     0.875322
      dyz     :     0.062789
      dx2y2   :    -0.013993
      dxy     :    -0.003997


                     *******************************
                     * LOEWDIN POPULATION ANALYSIS *
                     *******************************

-------------------------------------------
LOEWDIN ATOMIC CHARGES AND SPIN POPULATIONS
-------------------------------------------
   0  Y:   -0.000000    1.000000

----------------------------------------------------
LOEWDIN REDUCED ORBITAL CHARGES AND SPIN POPULATIONS
----------------------------------------------------
CHARGE
  0  Ys       :     9.895752  s :     9.895752
      pz      :     6.000000  p :    18.000000
      px      :     6.000000
      py      :     6.000000
      dz2     :     2.050607  d :    11.104248
      dxz     :     2.875915
      dyz     :     2.072678
      dx2y2   :     2.082744
      dxy     :     2.022303

SPIN
  0  Ys       :     0.066866  s :     0.066866
      pz      :    -0.000000  p :    -0.000000
      px      :     0.000000
      py      :     0.000000
      dz2     :     0.013013  d :     0.933134
      dxz     :     0.875322
      dyz     :     0.062789
      dx2y2   :    -0.013993
      dxy     :    -0.003997


                      *****************************
                      * MAYER POPULATION ANALYSIS *
                      *****************************

  NA   - Mulliken gross atomic population
  ZA   - Total nuclear charge
  QA   - Mulliken gross atomic charge
  VA   - Mayer's total valence
  BVA  - Mayer's bonded valence
  FA   - Mayer's free valence

  ATOM       NA         ZA         QA         VA         BVA        FA
  0  Y    39.0000    39.0000    -0.0000     1.3540     0.0000     1.3540

  Mayer bond orders larger than 0.100000


-------
TIMINGS
-------

Total SCF time: 0 days 0 hours 6 min 11 sec 

Total time                  ....     371.678 sec
Sum of individual times     ....     294.304 sec  ( 79.2%)

Fock matrix formation       ....     265.519 sec  ( 71.4%)
  XC integration            ....      67.962 sec  ( 25.6% of F)
    Basis function eval.    ....       0.057 sec  (  0.1% of XC)
    Density eval.           ....       1.668 sec  (  2.5% of XC)
    XC-Functional eval.     ....       0.072 sec  (  0.1% of XC)
    XC-Potential eval.      ....       0.123 sec  (  0.2% of XC)
Diagonalization             ....       0.994 sec  (  0.3%)
Density matrix formation    ....       0.028 sec  (  0.0%)
Population analysis         ....       1.145 sec  (  0.3%)
Initial guess               ....      16.422 sec  (  4.4%)
Orbital Transformation      ....       0.000 sec  (  0.0%)
Orbital Orthonormalization  ....       0.000 sec  (  0.0%)
DIIS solution               ....       1.961 sec  (  0.5%)
SOSCF solution              ....       2.128 sec  (  0.6%)
Grid generation             ....       6.106 sec  (  1.6%)

Maximum memory used throughout the entire SCF-calculation: 229.5 MB

-------------------------   --------------------
FINAL SINGLE POINT ENERGY     -3425.689823308841
-------------------------   --------------------


                            ***************************************
                            *     ORCA property calculations      *
                            ***************************************

                                    ---------------------
                                    Active property flags
                                    ---------------------
   (+) Dipole Moment


------------------------------------------------------------------------------
                       ORCA ELECTRIC PROPERTIES CALCULATION
------------------------------------------------------------------------------

Dipole Moment Calculation                       ... on
Quadrupole Moment Calculation                   ... off
Polarizability Calculation                      ... off
GBWName                                         ... Y_ugbs_pbe.gbw
Electron density                                ... Y_ugbs_pbe.scfp
The origin for moment calculation is the CENTER OF MASS  = ( 0.000000,  0.000000  0.000000)

-------------
DIPOLE MOMENT
-------------
                                X             Y             Z
Electronic contribution:      0.00000       0.00000      -0.00000
Nuclear contribution   :      0.00000       0.00000       0.00000
                        -----------------------------------------
Total Dipole Moment    :      0.00000       0.00000      -0.00000
                        -----------------------------------------
Magnitude (a.u.)       :      0.00000
Magnitude (Debye)      :      0.00000



--------------------
Rotational spectrum 
--------------------
 
Rotational constants in cm-1:     0.000000     0.000000     0.000000 
Rotational constants in MHz :     0.000000     0.000000     0.000000 

 Dipole components along the rotational axes: 
x,y,z [a.u.] :     0.000000     0.000000    -0.000000 
x,y,z [Debye]:     0.000000     0.000000    -0.000000 

 

Timings for individual modules:

Sum of individual times         ...      520.942 sec (=   8.682 min)
GTO integral calculation        ...      127.523 sec (=   2.125 min)  24.5 %
Relativistic integrals          ...       14.737 sec (=   0.246 min)   2.8 %
SCF iterations                  ...      378.682 sec (=   6.311 min)  72.7 %
                             ****ORCA TERMINATED NORMALLY****
TOTAL RUN TIME: 0 days 0 hours 8 minutes 47 seconds 96 msec
