
                                 *****************
                                 * O   R   C   A *
                                 *****************

                                            #,                                       
                                            ###                                      
                                            ####                                     
                                            #####                                    
                                            ######                                   
                                           ########,                                 
                                     ,,################,,,,,                         
                               ,,#################################,,                 
                          ,,##########################################,,             
                       ,#########################################, ''#####,          
                    ,#############################################,,   '####,        
                  ,##################################################,,,,####,       
                ,###########''''           ''''###############################       
              ,#####''   ,,,,##########,,,,          '''####'''          '####       
            ,##' ,,,,###########################,,,                        '##       
           ' ,,###''''                  '''############,,,                           
         ,,##''                                '''############,,,,        ,,,,,,###''
      ,#''                                            '''#######################'''  
     '                                                          ''''####''''         
             ,#######,   #######,   ,#######,      ##                                
            ,#'     '#,  ##    ##  ,#'     '#,    #''#        ######   ,####,        
            ##       ##  ##   ,#'  ##            #'  '#       #        #'  '#        
            ##       ##  #######   ##           ,######,      #####,   #    #        
            '#,     ,#'  ##    ##  '#,     ,#' ,#      #,         ##   #,  ,#        
             '#######'   ##     ##  '#######'  #'      '#     #####' # '####'        



                  #######################################################
                  #                        -***-                        #
                  #          Department of theory and spectroscopy      #
                  #    Directorship and core code : Frank Neese         #
                  #        Max Planck Institute fuer Kohlenforschung    #
                  #                Kaiser Wilhelm Platz 1               #
                  #                 D-45470 Muelheim/Ruhr               #
                  #                      Germany                        #
                  #                                                     #
                  #                  All rights reserved                #
                  #                        -***-                        #
                  #######################################################


                         Program Version 5.0.1 -  RELEASE  -


 With contributions from (in alphabetic order):
   Daniel Aravena         : Magnetic Suceptibility
   Michael Atanasov       : Ab Initio Ligand Field Theory (pilot matlab implementation)
   Alexander A. Auer      : GIAO ZORA, VPT2 properties, NMR spectrum
   Ute Becker             : Parallelization
   Giovanni Bistoni       : ED, misc. LED, open-shell LED, HFLD
   Martin Brehm           : Molecular dynamics
   Dmytro Bykov           : SCF Hessian
   Vijay G. Chilkuri      : MRCI spin determinant printing, contributions to CSF-ICE
   Dipayan Datta          : RHF DLPNO-CCSD density
   Achintya Kumar Dutta   : EOM-CC, STEOM-CC
   Dmitry Ganyushin       : Spin-Orbit,Spin-Spin,Magnetic field MRCI
   Miquel Garcia          : C-PCM and meta-GGA Hessian, CC/C-PCM, Gaussian charge scheme
   Yang Guo               : DLPNO-NEVPT2, F12-NEVPT2, CIM, IAO-localization
   Andreas Hansen         : Spin unrestricted coupled pair/coupled cluster methods
   Benjamin Helmich-Paris : MC-RPA, TRAH-SCF, COSX integrals
   Lee Huntington         : MR-EOM, pCC
   Robert Izsak           : Overlap fitted RIJCOSX, COSX-SCS-MP3, EOM
   Marcus Kettner         : VPT2
   Christian Kollmar      : KDIIS, OOCD, Brueckner-CCSD(T), CCSD density, CASPT2, CASPT2-K
   Simone Kossmann        : Meta GGA functionals, TD-DFT gradient, OOMP2, MP2 Hessian
   Martin Krupicka        : Initial AUTO-CI
   Lucas Lang             : DCDCAS
   Marvin Lechner         : AUTO-CI (C++ implementation), FIC-MRCC
   Dagmar Lenk            : GEPOL surface, SMD
   Dimitrios Liakos       : Extrapolation schemes; Compound Job, initial MDCI parallelization
   Dimitrios Manganas     : Further ROCIS development; embedding schemes
   Dimitrios Pantazis     : SARC Basis sets
   Anastasios Papadopoulos: AUTO-CI, single reference methods and gradients
   Taras Petrenko         : DFT Hessian,TD-DFT gradient, ASA, ECA, R-Raman, ABS, FL, XAS/XES, NRVS
   Peter Pinski           : DLPNO-MP2, DLPNO-MP2 Gradient
   Christoph Reimann      : Effective Core Potentials
   Marius Retegan         : Local ZFS, SOC
   Christoph Riplinger    : Optimizer, TS searches, QM/MM, DLPNO-CCSD(T), (RO)-DLPNO pert. Triples
   Tobias Risthaus        : Range-separated hybrids, TD-DFT gradient, RPA, STAB
   Michael Roemelt        : Original ROCIS implementation
   Masaaki Saitow         : Open-shell DLPNO-CCSD energy and density
   Barbara Sandhoefer     : DKH picture change effects
   Avijit Sen             : IP-ROCIS
   Kantharuban Sivalingam : CASSCF convergence, NEVPT2, FIC-MRCI
   Bernardo de Souza      : ESD, SOC TD-DFT
   Georgi Stoychev        : AutoAux, RI-MP2 NMR, DLPNO-MP2 response
   Willem Van den Heuvel  : Paramagnetic NMR
   Boris Wezisla          : Elementary symmetry handling
   Frank Wennmohs         : Technical directorship


 We gratefully acknowledge several colleagues who have allowed us to
 interface, adapt or use parts of their codes:
   Stefan Grimme, W. Hujo, H. Kruse, P. Pracht,  : VdW corrections, initial TS optimization,
                  C. Bannwarth, S. Ehlert          DFT functionals, gCP, sTDA/sTD-DF
   Ed Valeev, F. Pavosevic, A. Kumar             : LibInt (2-el integral package), F12 methods
   Garnet Chan, S. Sharma, J. Yang, R. Olivares  : DMRG
   Ulf Ekstrom                                   : XCFun DFT Library
   Mihaly Kallay                                 : mrcc  (arbitrary order and MRCC methods)
   Jiri Pittner, Ondrej Demel                    : Mk-CCSD
   Frank Weinhold                                : gennbo (NPA and NBO analysis)
   Christopher J. Cramer and Donald G. Truhlar   : smd solvation model
   Lars Goerigk                                  : TD-DFT with DH, B97 family of functionals
   V. Asgeirsson, H. Jonsson                     : NEB implementation
   FAccTs GmbH                                   : IRC, NEB, NEB-TS, DLPNO-Multilevel, CI-OPT
                                                   MM, QMMM, 2- and 3-layer-ONIOM, Crystal-QMMM,
                                                   LR-CPCM, SF, NACMEs, symmetry and pop. for TD-DFT,
                                                   nearIR, NL-DFT gradient (VV10), updates on ESD,
                                                   ML-optimized integration grids
   S Lehtola, MJT Oliveira, MAL Marques          : LibXC Library
   Liviu Ungur et al                             : ANISO software


 Your calculation uses the libint2 library for the computation of 2-el integrals
 For citations please refer to: http://libint.valeyev.net

 Your ORCA version has been built with support for libXC version: 5.1.0
 For citations please refer to: https://tddft.org/programs/libxc/

 This ORCA versions uses:
   CBLAS   interface :  Fast vector & matrix operations
   LAPACKE interface :  Fast linear algebra routines
   SCALAPACK package :  Parallel linear algebra routines
   Shared memory     :  Shared parallel matrices
   BLAS/LAPACK       :  OpenBLAS 0.3.15  USE64BITINT DYNAMIC_ARCH NO_AFFINITY Haswell SINGLE_THREADED
        Core in use  :  Haswell
   Copyright (c) 2011-2014, The OpenBLAS Project


SCAN-COORDS

Reading of a custom basis requested
Basis file         : /cluster/home/ambr/projects/zora/row5/calcs_gto/In_ano-r3.basis
READING GTO-BASIS: INDIUM
Basis successfully read

================================================================================

----- Orbital basis set information -----
================================================================================
                                        WARNINGS
                       Please study these warnings very carefully!
================================================================================


INFO   : the flag for use of the SHARK integral package has been found!

================================================================================
                                       INPUT FILE
================================================================================
NAME = In_ano-r3_pbe.inp
|  1> !uks pbe nori verytightscf soscf
|  2> 
|  3> %pal
|  4>   nprocs 32
|  5> end
|  6> %coords
|  7>   charge 0
|  8>   mult 2
|  9>   units bohrs
| 10>   coords
| 11>     In 0.0 0.0 0.0
| 12>   end
| 13> end
| 14> %basis
| 15>   gtoname "/cluster/home/ambr/projects/zora/row5/calcs_gto/In_ano-r3.basis"
| 16>   delECP In
| 17> end
| 18> %plots
| 19>   format gaussian_cube
| 20>   dim1 120
| 21>   dim2 120
| 22>   dim3 120
| 23>   MO("In_ano-r3_pbe_phi_a_scf_0_re.cube",0,0);
| 24>   MO("In_ano-r3_pbe_phi_a_scf_1_re.cube",1,0);
| 25>   MO("In_ano-r3_pbe_phi_a_scf_2_re.cube",2,0);
| 26>   MO("In_ano-r3_pbe_phi_a_scf_3_re.cube",3,0);
| 27>   MO("In_ano-r3_pbe_phi_a_scf_4_re.cube",4,0);
| 28>   MO("In_ano-r3_pbe_phi_a_scf_5_re.cube",5,0);
| 29>   MO("In_ano-r3_pbe_phi_a_scf_6_re.cube",6,0);
| 30>   MO("In_ano-r3_pbe_phi_a_scf_7_re.cube",7,0);
| 31>   MO("In_ano-r3_pbe_phi_a_scf_8_re.cube",8,0);
| 32>   MO("In_ano-r3_pbe_phi_a_scf_9_re.cube",9,0);
| 33>   MO("In_ano-r3_pbe_phi_a_scf_10_re.cube",10,0);
| 34>   MO("In_ano-r3_pbe_phi_a_scf_11_re.cube",11,0);
| 35>   MO("In_ano-r3_pbe_phi_a_scf_12_re.cube",12,0);
| 36>   MO("In_ano-r3_pbe_phi_a_scf_13_re.cube",13,0);
| 37>   MO("In_ano-r3_pbe_phi_a_scf_14_re.cube",14,0);
| 38>   MO("In_ano-r3_pbe_phi_a_scf_15_re.cube",15,0);
| 39>   MO("In_ano-r3_pbe_phi_a_scf_16_re.cube",16,0);
| 40>   MO("In_ano-r3_pbe_phi_a_scf_17_re.cube",17,0);
| 41>   MO("In_ano-r3_pbe_phi_a_scf_18_re.cube",18,0);
| 42>   MO("In_ano-r3_pbe_phi_a_scf_19_re.cube",19,0);
| 43>   MO("In_ano-r3_pbe_phi_a_scf_20_re.cube",20,0);
| 44>   MO("In_ano-r3_pbe_phi_a_scf_21_re.cube",21,0);
| 45>   MO("In_ano-r3_pbe_phi_a_scf_22_re.cube",22,0);
| 46>   MO("In_ano-r3_pbe_phi_a_scf_23_re.cube",23,0);
| 47>   MO("In_ano-r3_pbe_phi_a_scf_24_re.cube",24,0);
| 48>   MO("In_ano-r3_pbe_phi_b_scf_0_re.cube",0,1);
| 49>   MO("In_ano-r3_pbe_phi_b_scf_1_re.cube",1,1);
| 50>   MO("In_ano-r3_pbe_phi_b_scf_2_re.cube",2,1);
| 51>   MO("In_ano-r3_pbe_phi_b_scf_3_re.cube",3,1);
| 52>   MO("In_ano-r3_pbe_phi_b_scf_4_re.cube",4,1);
| 53>   MO("In_ano-r3_pbe_phi_b_scf_5_re.cube",5,1);
| 54>   MO("In_ano-r3_pbe_phi_b_scf_6_re.cube",6,1);
| 55>   MO("In_ano-r3_pbe_phi_b_scf_7_re.cube",7,1);
| 56>   MO("In_ano-r3_pbe_phi_b_scf_8_re.cube",8,1);
| 57>   MO("In_ano-r3_pbe_phi_b_scf_9_re.cube",9,1);
| 58>   MO("In_ano-r3_pbe_phi_b_scf_10_re.cube",10,1);
| 59>   MO("In_ano-r3_pbe_phi_b_scf_11_re.cube",11,1);
| 60>   MO("In_ano-r3_pbe_phi_b_scf_12_re.cube",12,1);
| 61>   MO("In_ano-r3_pbe_phi_b_scf_13_re.cube",13,1);
| 62>   MO("In_ano-r3_pbe_phi_b_scf_14_re.cube",14,1);
| 63>   MO("In_ano-r3_pbe_phi_b_scf_15_re.cube",15,1);
| 64>   MO("In_ano-r3_pbe_phi_b_scf_16_re.cube",16,1);
| 65>   MO("In_ano-r3_pbe_phi_b_scf_17_re.cube",17,1);
| 66>   MO("In_ano-r3_pbe_phi_b_scf_18_re.cube",18,1);
| 67>   MO("In_ano-r3_pbe_phi_b_scf_19_re.cube",19,1);
| 68>   MO("In_ano-r3_pbe_phi_b_scf_20_re.cube",20,1);
| 69>   MO("In_ano-r3_pbe_phi_b_scf_21_re.cube",21,1);
| 70>   MO("In_ano-r3_pbe_phi_b_scf_22_re.cube",22,1);
| 71>   MO("In_ano-r3_pbe_phi_b_scf_23_re.cube",23,1);
| 72> endd                         ****END OF INPUT****
================================================================================

                       ****************************
                       * Single Point Calculation *
                       ****************************

---------------------------------
CARTESIAN COORDINATES (ANGSTROEM)
---------------------------------
  In     0.000000    0.000000    0.000000

----------------------------
CARTESIAN COORDINATES (A.U.)
----------------------------
  NO LB      ZA    FRAG     MASS         X           Y           Z
   0 In   49.0000    0   114.820    0.000000    0.000000    0.000000

--------------------------------
INTERNAL COORDINATES (ANGSTROEM)
--------------------------------
 In     0   0   0     0.000000000000     0.00000000     0.00000000

---------------------------
INTERNAL COORDINATES (A.U.)
---------------------------
 In     0   0   0     0.000000000000     0.00000000     0.00000000

---------------------
BASIS SET INFORMATION
---------------------
There are 1 groups of distinct atoms

 Group   1 Type In  : 184s126p60d18f10g3h contracted to 8s7p5d3f2g1h pattern {2323232323232323/18181818181818/1212121212/666/55/3}

Atom   0In   basis set group =>   1


           ************************************************************
           *        Program running with 32 parallel MPI-processes    *
           *              working on a common directory               *
           ************************************************************
------------------------------------------------------------------------------
                           ORCA GTO INTEGRAL CALCULATION
------------------------------------------------------------------------------
------------------------------------------------------------------------------
                   ___                                                        
                  /   \      - P O W E R E D   B Y -                         
                 /     \                                                     
                 |  |  |   _    _      __       _____    __    __             
                 |  |  |  | |  | |    /  \     |  _  \  |  |  /  |          
                  \  \/   | |  | |   /    \    | | | |  |  | /  /          
                 / \  \   | |__| |  /  /\  \   | |_| |  |  |/  /          
                |  |  |   |  __  | /  /__\  \  |    /   |      \           
                |  |  |   | |  | | |   __   |  |    \   |  |\   \          
                \     /   | |  | | |  |  |  |  | |\  \  |  | \   \       
                 \___/    |_|  |_| |__|  |__|  |_| \__\ |__|  \__/        
                                                                              
                      - O R C A' S   B I G   F R I E N D -                    
                                      &                                       
                       - I N T E G R A L  F E E D E R -                       
                                                                              
 v1 FN, 2020, v2 2021                                                         
------------------------------------------------------------------------------


Reading SHARK input file In_ano-r3_pbe.SHARKINP.tmp ... ok
----------------------
SHARK INTEGRAL PACKAGE
----------------------

Number of atoms                             ...      1
Number of basis functions                   ...    104
Number of shells                            ...     26
Maximum angular momentum                    ...      5
Integral batch strategy                     ... SHARK/LIBINT Hybrid
RI-J (if used) integral strategy            ... SPLIT-RIJ (Revised 2003 algorithm where possible)
Printlevel                                  ...      1
Contraction scheme used                     ... SEGMENTED contraction
Coulomb Range Separation                    ... NOT USED
Exchange Range Separation                   ... NOT USED
Finite Nucleus Model                        ... NOT USED
Auxiliary Coulomb fitting basis             ... NOT available
Auxiliary J/K fitting basis                 ... NOT available
Auxiliary Correlation fitting basis         ... NOT available
Auxiliary 'external' fitting basis          ... NOT available
Integral threshold                          ...     1.000000e-12
Primitive cut-off                           ...     1.000000e-14
Primitive pair pre-selection threshold      ...     1.000000e-14

Calculating pre-screening integrals         ... done ( 34.3 sec) Dimension = 26
Organizing shell pair data                  ... done (  1.6 sec)
Shell pair information
Total number of shell pairs                 ...       351
Shell pairs after pre-screening             ...       351
Total number of primitive shell pairs       ...     84094
Primitive shell pairs kept                  ...     84079
          la=0 lb=0:     36 shell pairs
          la=1 lb=0:     56 shell pairs
          la=1 lb=1:     28 shell pairs
          la=2 lb=0:     40 shell pairs
          la=2 lb=1:     35 shell pairs
          la=2 lb=2:     15 shell pairs
          la=3 lb=0:     24 shell pairs
          la=3 lb=1:     21 shell pairs
          la=3 lb=2:     15 shell pairs
          la=3 lb=3:      6 shell pairs
          la=4 lb=0:     16 shell pairs
          la=4 lb=1:     14 shell pairs
          la=4 lb=2:     10 shell pairs
          la=4 lb=3:      6 shell pairs
          la=4 lb=4:      3 shell pairs
          la=5 lb=0:      8 shell pairs
          la=5 lb=1:      7 shell pairs
          la=5 lb=2:      5 shell pairs
          la=5 lb=3:      3 shell pairs
          la=5 lb=4:      2 shell pairs
          la=5 lb=5:      1 shell pairs

Calculating one electron integrals          ... done (  0.2 sec)
Calculating Nuclear repulsion               ... done (  0.0 sec) ENN=      0.000000000000 Eh

SHARK setup successfully completed in  37.0 seconds

Maximum memory used throughout the entire GTOINT-calculation: 386.5 MB


           ************************************************************
           *        Program running with 32 parallel MPI-processes    *
           *              working on a common directory               *
           ************************************************************
-------------------------------------------------------------------------------
                                 ORCA SCF
-------------------------------------------------------------------------------

------------
SCF SETTINGS
------------
Hamiltonian:
 Density Functional     Method          .... DFT(GTOs)
 Exchange Functional    Exchange        .... PBE
   PBE kappa parameter   XKappa         ....  0.804000
   PBE mue parameter    XMuePBE         ....  0.219520
 Correlation Functional Correlation     .... PBE
   PBE beta parameter  CBetaPBE         ....  0.066725
 LDA part of GGA corr.  LDAOpt          .... PW91-LDA
 Gradients option       PostSCFGGA      .... off
   Density functional embedding theory  .... OFF
   NL short-range parameter             ....  6.400000


General Settings:
 Integral files         IntName         .... In_ano-r3_pbe
 Hartree-Fock type      HFTyp           .... UHF
 Total Charge           Charge          ....    0
 Multiplicity           Mult            ....    2
 Number of Electrons    NEL             ....   49
 Basis Dimension        Dim             ....  104
 Nuclear Repulsion      ENuc            ....      0.0000000000 Eh

Convergence Acceleration:
 DIIS                   CNVDIIS         .... on
   Start iteration      DIISMaxIt       ....    12
   Startup error        DIISStart       ....  0.200000
   # of expansion vecs  DIISMaxEq       ....     5
   Bias factor          DIISBfac        ....   1.050
   Max. coefficient     DIISMaxC        ....  10.000
 Trust-Rad. Augm. Hess. CNVTRAH         .... auto
   Auto Start mean grad. ratio tolernc. ....  1.125000
   Auto Start start iteration           ....    20
   Auto Start num. interpolation iter.  ....    10
   Max. Number of Micro iterations      ....    16
   Max. Number of Macro iterations      .... Maxiter - #DIIS iter
   Number of Davidson start vectors     ....     2
   Converg. threshold I  (grad. norm)   ....   2.000e-06
   Converg. threshold II (energy diff.) ....   1.000e-09
   Grad. Scal. Fac. for Micro threshold ....   0.100
   Minimum threshold for Micro iter.    ....   0.010
   NR start threshold (gradient norm)   ....   0.001
   Initial trust radius                 ....   0.400
   Minimum AH scaling param. (alpha)    ....   1.000
   Maximum AH scaling param. (alpha)    .... 1000.000
   Orbital update algorithm             .... Taylor
   White noise on init. David. guess    .... on
   Maximum white noise                  ....   0.010
   Quad. conv. algorithm                .... NR
 SOSCF                  CNVSOSCF        .... on
   Start iteration      SOSCFMaxIt      ....   150
   Startup grad/error   SOSCFStart      ....  0.003300
 Level Shifting         CNVShift        .... on
   Level shift para.    LevelShift      ....    0.2500
   Turn off err/grad.   ShiftErr        ....    0.0010
 Zerner damping         CNVZerner       .... off
 Static damping         CNVDamp         .... on
   Fraction old density DampFac         ....    0.7000
   Max. Damping (<1)    DampMax         ....    0.9800
   Min. Damping (>=0)   DampMin         ....    0.0000
   Turn off err/grad.   DampErr         ....    0.1000
 Fernandez-Rico         CNVRico         .... off

SCF Procedure:
 Maximum # iterations   MaxIter         ....   125
 SCF integral mode      SCFMode         .... Direct
   Integral package                     .... SHARK and LIBINT hybrid scheme
 Reset frequency        DirectResetFreq ....    20
 Integral Threshold     Thresh          ....  1.000e-12 Eh
 Primitive CutOff       TCut            ....  1.000e-14 Eh

Convergence Tolerance:
 Convergence Check Mode ConvCheckMode   .... Total+1el-Energy
 Convergence forced     ConvForced      .... 0
 Energy Change          TolE            ....  1.000e-09 Eh
 1-El. energy change                    ....  1.000e-06 Eh
 Orbital Gradient       TolG            ....  2.000e-06
 Orbital Rotation angle TolX            ....  2.000e-06
 DIIS Error             TolErr          ....  1.000e-08


Diagonalization of the overlap matrix:
Smallest eigenvalue                        ... 1.000e+00
Time for diagonalization                   ...    0.004 sec
Threshold for overlap eigenvalues          ... 1.000e-08
Number of eigenvalues below threshold      ... 0
Time for construction of square roots      ...    0.011 sec
Total time needed                          ...    0.016 sec

Time for model grid setup =    1.430 sec

------------------------------
INITIAL GUESS: MODEL POTENTIAL
------------------------------
Loading Hartree-Fock densities                     ... done
Calculating cut-offs                               ... done
Initializing the effective Hamiltonian             ... done
Setting up the integral package (SHARK)            ... done
Starting the Coulomb interaction                   ... done (   2.5 sec)
Reading the grid                                   ... done
Mapping shells                                     ... done
Starting the XC term evaluation                    ... done (   0.7 sec)
  promolecular density results
     # of electrons  =     49.000258748
     EX              =   -153.117043827
     EC              =     -2.592108750
     EX+EC           =   -155.709152577
Transforming the Hamiltonian                       ... done (   0.1 sec)
Diagonalizing the Hamiltonian                      ... done (   0.1 sec)
Back transforming the eigenvectors                 ... done (   0.0 sec)
Now organizing SCF variables                       ... done
                      ------------------
                      INITIAL GUESS DONE (   5.2 sec)
                      ------------------
-------------------
DFT GRID GENERATION
-------------------

General Integration Accuracy     IntAcc      ... 4.388
Radial Grid Type                 RadialGrid  ... OptM3 with GC (2021)
Angular Grid (max. ang.)         AngularGrid ... 4 (Lebedev-302)
Angular grid pruning method      GridPruning ... 4 (adaptive)
Weight generation scheme         WeightScheme... Becke
Basis function cutoff            BFCut       ... 1.0000e-12
Integration weight cutoff        WCut        ... 1.0000e-14
Angular grids for H and He will be reduced by one unit
Partially contracted basis set               ... off
Rotationally invariant grid construction     ... off

Total number of grid points                  ...    13826
Total number of batches                      ...      217
Average number of points per batch           ...       63
Average number of grid points per atom       ...    13826
Time for grid setup =    0.236 sec

--------------
SCF ITERATIONS
--------------
ITER       Energy         Delta-E        Max-DP      RMS-DP      [F,P]     Damp
               ***  Starting incremental Fock matrix formation  ***
  0  -5614.9807577369   0.000000000000 0.00702685  0.00015986  0.3763975 0.7000
  1  -5614.9852325010  -0.004474764059 0.00570400  0.00011087  0.2632399 0.7000
                               ***Turning on DIIS***
  2  -5614.9877194496  -0.002486948638 0.00459316  0.00006609  0.1839504 0.7000
  3  -5614.9893354267  -0.001615977088 0.00350168  0.00003935  0.1284434 0.7000
  4  -5614.9904392114  -0.001103784695 0.00874722  0.00010035  0.0897590 0.0000
                      *** Initiating the SOSCF procedure ***
                           *** Shutting down DIIS ***
                      *** Re-Reading the Fockian *** 
                      *** Removing any level shift *** 
ITER      Energy       Delta-E        Grad      Rot      Max-DP    RMS-DP
  5  -5614.99300545  -0.0025662347  0.000509  0.000509  0.000642  0.000011
               *** Restarting incremental Fock matrix formation ***
  6  -5614.99300676  -0.0000013106  0.000343  0.000169  0.000173  0.000004
  7  -5614.99300657   0.0000001842  0.000384  0.000107  0.000111  0.000003
  8  -5614.99300713  -0.0000005541  0.000018  0.000041  0.000038  0.000000
  9  -5614.99300713  -0.0000000010  0.000007  0.000008  0.000008  0.000000
                  ***Gradient check signals convergence***
              ***Rediagonalizing the Fockian in SOSCF/NRSCF***

               *****************************************************
               *                     SUCCESS                       *
               *           SCF CONVERGED AFTER  10 CYCLES          *
               *****************************************************


----------------
TOTAL SCF ENERGY
----------------

Total Energy       :        -5614.99300713 Eh         -152791.72751 eV

Components:
Nuclear Repulsion  :            0.00000000 Eh               0.00000 eV
Electronic Energy  :        -5614.99300713 Eh         -152791.72751 eV
One Electron Energy:        -7804.88181122 Eh         -212381.63136 eV
Two Electron Energy:         2189.88880409 Eh           59589.90385 eV

Virial components:
Potential Energy   :       -12235.25604447 Eh         -332938.24322 eV
Kinetic Energy     :         6620.26303734 Eh          180146.51572 eV
Virial Ratio       :            1.84815255


DFT components:
N(Alpha)           :       24.999999399062 electrons
N(Beta)            :       23.999999399827 electrons
N(Total)           :       48.999998798889 electrons
E(X)               :     -156.983886116548 Eh       
E(C)               :       -2.573409265573 Eh       
E(XC)              :     -159.557295382121 Eh       
DFET-embed. en.    :        0.000000000000 Eh       

---------------
SCF CONVERGENCE
---------------

  Last Energy change         ...   -1.6917e-10  Tolerance :   1.0000e-09
  Last MAX-Density change    ...    3.9076e-07  Tolerance :   1.0000e-08
  Last RMS-Density change    ...    5.6216e-09  Tolerance :   1.0000e-09
  Last Orbital Gradient      ...    2.3673e-07  Tolerance :   2.0000e-06
  Last Orbital Rotation      ...    5.5672e-07  Tolerance :   2.0000e-06

             **** THE GBW FILE WAS UPDATED (In_ano-r3_pbe.gbw) ****
             **** DENSITY In_ano-r3_pbe.scfp WAS UPDATED ****
             **** ENERGY FILE WAS UPDATED (In_ano-r3_pbe.en.tmp) ****
----------------------
UHF SPIN CONTAMINATION
----------------------

Warning: in a DFT calculation there is little theoretical justification to 
         calculate <S**2> as in Hartree-Fock theory. We will do it anyways
         but you should keep in mind that the values have only limited relevance

Expectation value of <S**2>     :     0.752803
Ideal value S*(S+1) for S=0.5   :     0.750000
Deviation                       :     0.002803

             **** THE GBW FILE WAS UPDATED (In_ano-r3_pbe.gbw) ****
             **** DENSITY In_ano-r3_pbe.scfp WAS UPDATED ****
----------------
ORBITAL ENERGIES
----------------
                 SPIN UP ORBITALS
  NO   OCC          E(Eh)            E(eV) 
   0   1.0000    -930.227440    -25312.7755 
   1   1.0000    -134.586045     -3662.2725 
   2   1.0000    -133.404625     -3630.1244 
   3   1.0000    -133.404625     -3630.1244 
   4   1.0000    -133.403398     -3630.0910 
   5   1.0000     -24.991423      -680.0512 
   6   1.0000     -23.247414      -632.5943 
   7   1.0000     -23.247414      -632.5943 
   8   1.0000     -23.244347      -632.5108 
   9   1.0000     -16.207165      -441.0194 
  10   1.0000     -16.207165      -441.0194 
  11   1.0000     -16.205076      -440.9625 
  12   1.0000     -16.205076      -440.9625 
  13   1.0000     -16.204376      -440.9435 
  14   1.0000      -3.621992       -98.5594 
  15   1.0000      -2.824135       -76.8486 
  16   1.0000      -2.824135       -76.8486 
  17   1.0000      -2.816358       -76.6370 
  18   1.0000      -0.777529       -21.1576 
  19   1.0000      -0.777529       -21.1576 
  20   1.0000      -0.771176       -20.9848 
  21   1.0000      -0.771176       -20.9848 
  22   1.0000      -0.768748       -20.9187 
  23   1.0000      -0.257913        -7.0182 
  24   1.0000      -0.114477        -3.1151 
  25   0.0000      -0.107680        -2.9301 
  26   0.0000      -0.107680        -2.9301 
  27   0.0000       0.002108         0.0574 
  28   0.0000       0.122309         3.3282 
  29   0.0000       0.125453         3.4138 
  30   0.0000       0.125453         3.4138 
  31   0.0000       0.178913         4.8685 
  32   0.0000       0.178913         4.8685 
  33   0.0000       0.182165         4.9570 
  34   0.0000       0.188693         5.1346 
  35   0.0000       0.188693         5.1346 
  36   0.0000       0.381600        10.3839 
  37   0.0000       0.732253        19.9256 
  38   0.0000       0.732253        19.9256 
  39   0.0000       0.734084        19.9755 
  40   0.0000       0.734084        19.9755 
  41   0.0000       0.734385        19.9836 
  42   0.0000       0.734385        19.9836 
  43   0.0000       0.734766        19.9940 
  44   0.0000       1.123752        30.5788 
  45   0.0000       1.123752        30.5788 
  46   0.0000       1.126625        30.6570 
  47   0.0000       1.362078        37.0640 
  48   0.0000       1.362078        37.0640 
  49   0.0000       1.364351        37.1259 
  50   0.0000       1.364351        37.1259 
  51   0.0000       1.367046        37.1992 
  52   0.0000       2.018018        54.9131 
  53   0.0000       2.018018        54.9131 
  54   0.0000       2.020331        54.9760 
  55   0.0000       2.020331        54.9760 
  56   0.0000       2.023276        55.0561 
  57   0.0000       2.023276        55.0561 
  58   0.0000       2.024241        55.0824 
  59   0.0000       2.622442        71.3603 
  60   0.0000       2.622442        71.3603 
  61   0.0000       2.625119        71.4331 
  62   0.0000       2.625119        71.4331 
  63   0.0000       2.628211        71.5173 
  64   0.0000       2.628211        71.5173 
  65   0.0000       2.630371        71.5760 
  66   0.0000       2.630371        71.5760 
  67   0.0000       2.631112        71.5962 
  68   0.0000       3.852046       104.8195 
  69   0.0000       4.952650       134.7685 
  70   0.0000       4.952650       134.7685 
  71   0.0000       4.955373       134.8426 
  72   0.0000       4.955373       134.8426 
  73   0.0000       4.957904       134.9114 
  74   0.0000       4.957904       134.9114 
  75   0.0000       4.958729       134.9339 
  76   0.0000       5.424305       147.6028 
  77   0.0000       5.424305       147.6028 
  78   0.0000       5.430189       147.7630 
  79   0.0000       6.210587       168.9987 
  80   0.0000       6.210587       168.9987 
  81   0.0000       6.213373       169.0745 
  82   0.0000       6.213373       169.0745 
  83   0.0000       6.215315       169.1273 
  84   0.0000       7.636398       207.7970 
  85   0.0000       7.636398       207.7970 
  86   0.0000       7.638999       207.8677 
  87   0.0000       7.638999       207.8677 
  88   0.0000       7.641277       207.9297 
  89   0.0000       7.641277       207.9297 
  90   0.0000       7.642749       207.9698 
  91   0.0000       7.642749       207.9698 
  92   0.0000       7.643243       207.9832 
  93   0.0000       7.702826       209.6045 
  94   0.0000       7.702826       209.6045 
  95   0.0000       7.707155       209.7223 
  96   0.0000       7.707155       209.7223 
  97   0.0000       7.710747       209.8201 
  98   0.0000       7.710747       209.8201 
  99   0.0000       7.713404       209.8924 
 100   0.0000       7.713404       209.8924 
 101   0.0000       7.715023       209.9364 
 102   0.0000       7.715023       209.9364 
 103   0.0000       7.715568       209.9513 

                 SPIN DOWN ORBITALS
  NO   OCC          E(Eh)            E(eV) 
   0   1.0000    -930.226997    -25312.7635 
   1   1.0000    -134.585933     -3662.2694 
   2   1.0000    -133.404497     -3630.1209 
   3   1.0000    -133.404497     -3630.1209 
   4   1.0000    -133.402701     -3630.0720 
   5   1.0000     -24.991027      -680.0404 
   6   1.0000     -23.247271      -632.5904 
   7   1.0000     -23.247271      -632.5904 
   8   1.0000     -23.243422      -632.4857 
   9   1.0000     -16.207172      -441.0196 
  10   1.0000     -16.207172      -441.0196 
  11   1.0000     -16.204563      -440.9486 
  12   1.0000     -16.204563      -440.9486 
  13   1.0000     -16.203684      -440.9247 
  14   1.0000      -3.621273       -98.5399 
  15   1.0000      -2.823958       -76.8438 
  16   1.0000      -2.823958       -76.8438 
  17   1.0000      -2.814243       -76.5794 
  18   1.0000      -0.777283       -21.1509 
  19   1.0000      -0.777283       -21.1509 
  20   1.0000      -0.767731       -20.8910 
  21   1.0000      -0.767731       -20.8910 
  22   1.0000      -0.764685       -20.8081 
  23   1.0000      -0.238780        -6.4975 
  24   0.0000      -0.097906        -2.6642 
  25   0.0000      -0.097906        -2.6642 
  26   0.0000      -0.074268        -2.0209 
  27   0.0000       0.016589         0.4514 
  28   0.0000       0.134242         3.6529 
  29   0.0000       0.134242         3.6529 
  30   0.0000       0.151697         4.1279 
  31   0.0000       0.194017         5.2795 
  32   0.0000       0.194017         5.2795 
  33   0.0000       0.210996         5.7415 
  34   0.0000       0.210996         5.7415 
  35   0.0000       0.217927         5.9301 
  36   0.0000       0.396873        10.7995 
  37   0.0000       0.735316        20.0090 
  38   0.0000       0.735316        20.0090 
  39   0.0000       0.751119        20.4390 
  40   0.0000       0.751119        20.4390 
  41   0.0000       0.761073        20.7099 
  42   0.0000       0.761073        20.7099 
  43   0.0000       0.764369        20.7995 
  44   0.0000       1.130044        30.7500 
  45   0.0000       1.130044        30.7500 
  46   0.0000       1.151965        31.3466 
  47   0.0000       1.364436        37.1282 
  48   0.0000       1.364436        37.1282 
  49   0.0000       1.379436        37.5364 
  50   0.0000       1.379436        37.5364 
  51   0.0000       1.384735        37.6806 
  52   0.0000       2.018329        54.9215 
  53   0.0000       2.018329        54.9215 
  54   0.0000       2.027426        55.1691 
  55   0.0000       2.027426        55.1691 
  56   0.0000       2.033121        55.3240 
  57   0.0000       2.033121        55.3240 
  58   0.0000       2.034982        55.3747 
  59   0.0000       2.621925        71.3462 
  60   0.0000       2.621925        71.3462 
  61   0.0000       2.634115        71.6779 
  62   0.0000       2.634115        71.6779 
  63   0.0000       2.642867        71.9161 
  64   0.0000       2.642867        71.9161 
  65   0.0000       2.648102        72.0585 
  66   0.0000       2.648102        72.0585 
  67   0.0000       2.649851        72.1061 
  68   0.0000       3.858508       104.9953 
  69   0.0000       4.952956       134.7768 
  70   0.0000       4.952956       134.7768 
  71   0.0000       4.960688       134.9872 
  72   0.0000       4.960688       134.9872 
  73   0.0000       4.965434       135.1163 
  74   0.0000       4.965434       135.1163 
  75   0.0000       4.966989       135.1586 
  76   0.0000       5.426282       147.6566 
  77   0.0000       5.426282       147.6566 
  78   0.0000       5.439482       148.0158 
  79   0.0000       6.211541       169.0246 
  80   0.0000       6.211541       169.0246 
  81   0.0000       6.220070       169.2567 
  82   0.0000       6.220070       169.2567 
  83   0.0000       6.223031       169.3373 
  84   0.0000       7.635860       207.7823 
  85   0.0000       7.635860       207.7823 
  86   0.0000       7.641428       207.9338 
  87   0.0000       7.641428       207.9338 
  88   0.0000       7.645451       208.0433 
  89   0.0000       7.645451       208.0433 
  90   0.0000       7.647863       208.1089 
  91   0.0000       7.647863       208.1089 
  92   0.0000       7.648670       208.1309 
  93   0.0000       7.702322       209.5908 
  94   0.0000       7.702322       209.5908 
  95   0.0000       7.709007       209.7727 
  96   0.0000       7.709007       209.7727 
  97   0.0000       7.714187       209.9137 
  98   0.0000       7.714187       209.9137 
  99   0.0000       7.717875       210.0141 
 100   0.0000       7.717875       210.0141 
 101   0.0000       7.720083       210.0741 
 102   0.0000       7.720083       210.0741 
 103   0.0000       7.720818       210.0941 

                    ********************************
                    * MULLIKEN POPULATION ANALYSIS *
                    ********************************

--------------------------------------------
MULLIKEN ATOMIC CHARGES AND SPIN POPULATIONS
--------------------------------------------
   0 In:    0.000000    1.000000
Sum of atomic charges         :    0.0000000
Sum of atomic spin populations:    1.0000000

-----------------------------------------------------
MULLIKEN REDUCED ORBITAL CHARGES AND SPIN POPULATIONS
-----------------------------------------------------
CHARGE
  0 Ins       :     9.998374  s :     9.998374
      pz      :     6.997269  p :    18.999988
      px      :     6.002009
      py      :     6.000710
      dz2     :     4.001602  d :    20.001591
      dxz     :     4.000001
      dyz     :     3.999995
      dx2y2   :     3.999996
      dxy     :     3.999996
      f0      :     0.000006  f :     0.000012
      f+1     :     0.000003
      f-1     :     0.000003
      f+2     :     0.000000
      f-2     :     0.000000
      f+3     :     0.000000
      f-3     :     0.000000
      g0      :     0.000010  g :     0.000035
      g+1     :     0.000008
      g-1     :     0.000008
      g+2     :     0.000004
      g-2     :     0.000004
      g+3     :     0.000000
      g-3     :     0.000000
      g+4     :     0.000000
      g-4     :     0.000000
      h0      :     0.000000  h :     0.000000
      h+1     :     0.000000
      h-1     :     0.000000
      h+2     :     0.000000
      h-2     :     0.000000
      h+3     :     0.000000
      h-3     :     0.000000
      h+4     :     0.000000
      h-4     :     0.000000
      h+5     :     0.000000
      h-5     :     0.000000

SPIN
  0 Ins       :     0.001298  s :     0.001298
      pz      :     0.997275  p :     1.000002
      px      :     0.002013
      py      :     0.000714
      dz2     :    -0.001282  d :    -0.001278
      dxz     :    -0.000003
      dyz     :     0.000002
      dx2y2   :     0.000003
      dxy     :     0.000003
      f0      :     0.000000  f :    -0.000002
      f+1     :    -0.000001
      f-1     :    -0.000001
      f+2     :    -0.000000
      f-2     :    -0.000000
      f+3     :    -0.000000
      f-3     :    -0.000000
      g0      :    -0.000005  g :    -0.000020
      g+1     :    -0.000005
      g-1     :    -0.000005
      g+2     :    -0.000003
      g-2     :    -0.000003
      g+3     :    -0.000000
      g-3     :    -0.000000
      g+4     :    -0.000000
      g-4     :    -0.000000
      h0      :     0.000000  h :     0.000000
      h+1     :     0.000000
      h-1     :     0.000000
      h+2     :     0.000000
      h-2     :     0.000000
      h+3     :     0.000000
      h-3     :     0.000000
      h+4     :     0.000000
      h-4     :     0.000000
      h+5     :     0.000000
      h-5     :     0.000000


                     *******************************
                     * LOEWDIN POPULATION ANALYSIS *
                     *******************************

-------------------------------------------
LOEWDIN ATOMIC CHARGES AND SPIN POPULATIONS
-------------------------------------------
   0 In:   -0.000000    1.000000

----------------------------------------------------
LOEWDIN REDUCED ORBITAL CHARGES AND SPIN POPULATIONS
----------------------------------------------------
CHARGE
  0 Ins       :     9.998374  s :     9.998374
      pz      :     6.997269  p :    18.999988
      px      :     6.002009
      py      :     6.000710
      dz2     :     4.001602  d :    20.001591
      dxz     :     4.000001
      dyz     :     3.999995
      dx2y2   :     3.999996
      dxy     :     3.999996
      f0      :     0.000006  f :     0.000012
      f+1     :     0.000003
      f-1     :     0.000003
      f+2     :     0.000000
      f-2     :     0.000000
      f+3     :     0.000000
      f-3     :     0.000000
      g0      :     0.000010  g :     0.000035
      g+1     :     0.000008
      g-1     :     0.000008
      g+2     :     0.000004
      g-2     :     0.000004
      g+3     :     0.000000
      g-3     :     0.000000
      g+4     :     0.000000
      g-4     :     0.000000
      h0      :     0.000000  h :     0.000000
      h+1     :     0.000000
      h-1     :     0.000000
      h+2     :     0.000000
      h-2     :     0.000000
      h+3     :     0.000000
      h-3     :     0.000000
      h+4     :     0.000000
      h-4     :     0.000000
      h+5     :     0.000000
      h-5     :     0.000000

SPIN
  0 Ins       :     0.001298  s :     0.001298
      pz      :     0.997275  p :     1.000002
      px      :     0.002013
      py      :     0.000714
      dz2     :    -0.001282  d :    -0.001278
      dxz     :    -0.000003
      dyz     :     0.000002
      dx2y2   :     0.000003
      dxy     :     0.000003
      f0      :     0.000000  f :    -0.000002
      f+1     :    -0.000001
      f-1     :    -0.000001
      f+2     :    -0.000000
      f-2     :    -0.000000
      f+3     :    -0.000000
      f-3     :    -0.000000
      g0      :    -0.000005  g :    -0.000020
      g+1     :    -0.000005
      g-1     :    -0.000005
      g+2     :    -0.000003
      g-2     :    -0.000003
      g+3     :    -0.000000
      g-3     :    -0.000000
      g+4     :    -0.000000
      g-4     :    -0.000000
      h0      :     0.000000  h :     0.000000
      h+1     :     0.000000
      h-1     :     0.000000
      h+2     :     0.000000
      h-2     :     0.000000
      h+3     :     0.000000
      h-3     :     0.000000
      h+4     :     0.000000
      h-4     :     0.000000
      h+5     :     0.000000
      h-5     :     0.000000


                      *****************************
                      * MAYER POPULATION ANALYSIS *
                      *****************************

  NA   - Mulliken gross atomic population
  ZA   - Total nuclear charge
  QA   - Mulliken gross atomic charge
  VA   - Mayer's total valence
  BVA  - Mayer's bonded valence
  FA   - Mayer's free valence

  ATOM       NA         ZA         QA         VA         BVA        FA
  0 In    49.0000    49.0000    -0.0000     1.0056     0.0000     1.0056

  Mayer bond orders larger than 0.100000


-------
TIMINGS
-------

Total SCF time: 0 days 0 hours 44 min 47 sec 

Total time                  ....    2687.728 sec
Sum of individual times     ....    2685.527 sec  ( 99.9%)

Fock matrix formation       ....    2677.790 sec  ( 99.6%)
  XC integration            ....       5.077 sec  (  0.2% of F)
    Basis function eval.    ....       0.096 sec  (  1.9% of XC)
    Density eval.           ....       0.077 sec  (  1.5% of XC)
    XC-Functional eval.     ....       0.084 sec  (  1.7% of XC)
    XC-Potential eval.      ....       0.035 sec  (  0.7% of XC)
Diagonalization             ....       0.829 sec  (  0.0%)
Density matrix formation    ....       0.060 sec  (  0.0%)
Population analysis         ....       0.156 sec  (  0.0%)
Initial guess               ....       3.724 sec  (  0.1%)
Orbital Transformation      ....       0.000 sec  (  0.0%)
Orbital Orthonormalization  ....       0.000 sec  (  0.0%)
DIIS solution               ....       0.891 sec  (  0.0%)
SOSCF solution              ....       0.411 sec  (  0.0%)
Grid generation             ....       1.666 sec  (  0.1%)

Maximum memory used throughout the entire SCF-calculation: 266.2 MB

-------------------------   --------------------
FINAL SINGLE POINT ENERGY     -5614.993007127820
-------------------------   --------------------

MakePlots. Basename = [In_ano-r3_pbe]

---------------
PLOT GENERATION
---------------
choosing x-range =    -7.000000 ..     7.000000
choosing y-range =    -7.000000 ..     7.000000
choosing z-range =    -7.000000 ..     7.000000


           ************************************************************
           *        Program running with 32 parallel MPI-processes    *
           *              working on a common directory               *
           ************************************************************

GBW-File       ... In_ano-r3_pbe.gbw
PlotType       ... MO-PLOT
MO/Operator    ... 0 0
Output file    ... In_ano-r3_pbe_phi_a_scf_0_re.cube
Format         ... Gaussian-Cube
Resolution     ... 120 120 120
Boundaries     ...    -7.000000     7.000000 (x direction)
                      -7.000000     7.000000 (y direction)
                      -7.000000     7.000000 (z direction)
Entering PlotGrid3d with Plottype =1
choosing x-range =    -7.000000 ..     7.000000
choosing y-range =    -7.000000 ..     7.000000
choosing z-range =    -7.000000 ..     7.000000


           ************************************************************
           *        Program running with 32 parallel MPI-processes    *
           *              working on a common directory               *
           ************************************************************

GBW-File       ... In_ano-r3_pbe.gbw
PlotType       ... MO-PLOT
MO/Operator    ... 1 0
Output file    ... In_ano-r3_pbe_phi_a_scf_1_re.cube
Format         ... Gaussian-Cube
Resolution     ... 120 120 120
Boundaries     ...    -7.000000     7.000000 (x direction)
                      -7.000000     7.000000 (y direction)
                      -7.000000     7.000000 (z direction)
Entering PlotGrid3d with Plottype =1
choosing x-range =    -7.000000 ..     7.000000
choosing y-range =    -7.000000 ..     7.000000
choosing z-range =    -7.000000 ..     7.000000


           ************************************************************
           *        Program running with 32 parallel MPI-processes    *
           *              working on a common directory               *
           ************************************************************

GBW-File       ... In_ano-r3_pbe.gbw
PlotType       ... MO-PLOT
MO/Operator    ... 2 0
Output file    ... In_ano-r3_pbe_phi_a_scf_2_re.cube
Format         ... Gaussian-Cube
Resolution     ... 120 120 120
Boundaries     ...    -7.000000     7.000000 (x direction)
                      -7.000000     7.000000 (y direction)
                      -7.000000     7.000000 (z direction)
Entering PlotGrid3d with Plottype =1
choosing x-range =    -7.000000 ..     7.000000
choosing y-range =    -7.000000 ..     7.000000
choosing z-range =    -7.000000 ..     7.000000


           ************************************************************
           *        Program running with 32 parallel MPI-processes    *
           *              working on a common directory               *
           ************************************************************

GBW-File       ... In_ano-r3_pbe.gbw
PlotType       ... MO-PLOT
MO/Operator    ... 3 0
Output file    ... In_ano-r3_pbe_phi_a_scf_3_re.cube
Format         ... Gaussian-Cube
Resolution     ... 120 120 120
Boundaries     ...    -7.000000     7.000000 (x direction)
                      -7.000000     7.000000 (y direction)
                      -7.000000     7.000000 (z direction)
Entering PlotGrid3d with Plottype =1
choosing x-range =    -7.000000 ..     7.000000
choosing y-range =    -7.000000 ..     7.000000
choosing z-range =    -7.000000 ..     7.000000


           ************************************************************
           *        Program running with 32 parallel MPI-processes    *
           *              working on a common directory               *
           ************************************************************

GBW-File       ... In_ano-r3_pbe.gbw
PlotType       ... MO-PLOT
MO/Operator    ... 4 0
Output file    ... In_ano-r3_pbe_phi_a_scf_4_re.cube
Format         ... Gaussian-Cube
Resolution     ... 120 120 120
Boundaries     ...    -7.000000     7.000000 (x direction)
                      -7.000000     7.000000 (y direction)
                      -7.000000     7.000000 (z direction)
Entering PlotGrid3d with Plottype =1
choosing x-range =    -7.000000 ..     7.000000
choosing y-range =    -7.000000 ..     7.000000
choosing z-range =    -7.000000 ..     7.000000


           ************************************************************
           *        Program running with 32 parallel MPI-processes    *
           *              working on a common directory               *
           ************************************************************

GBW-File       ... In_ano-r3_pbe.gbw
PlotType       ... MO-PLOT
MO/Operator    ... 5 0
Output file    ... In_ano-r3_pbe_phi_a_scf_5_re.cube
Format         ... Gaussian-Cube
Resolution     ... 120 120 120
Boundaries     ...    -7.000000     7.000000 (x direction)
                      -7.000000     7.000000 (y direction)
                      -7.000000     7.000000 (z direction)
Entering PlotGrid3d with Plottype =1
choosing x-range =    -7.000000 ..     7.000000
choosing y-range =    -7.000000 ..     7.000000
choosing z-range =    -7.000000 ..     7.000000


           ************************************************************
           *        Program running with 32 parallel MPI-processes    *
           *              working on a common directory               *
           ************************************************************

GBW-File       ... In_ano-r3_pbe.gbw
PlotType       ... MO-PLOT
MO/Operator    ... 6 0
Output file    ... In_ano-r3_pbe_phi_a_scf_6_re.cube
Format         ... Gaussian-Cube
Resolution     ... 120 120 120
Boundaries     ...    -7.000000     7.000000 (x direction)
                      -7.000000     7.000000 (y direction)
                      -7.000000     7.000000 (z direction)
Entering PlotGrid3d with Plottype =1
choosing x-range =    -7.000000 ..     7.000000
choosing y-range =    -7.000000 ..     7.000000
choosing z-range =    -7.000000 ..     7.000000


           ************************************************************
           *        Program running with 32 parallel MPI-processes    *
           *              working on a common directory               *
           ************************************************************

GBW-File       ... In_ano-r3_pbe.gbw
PlotType       ... MO-PLOT
MO/Operator    ... 7 0
Output file    ... In_ano-r3_pbe_phi_a_scf_7_re.cube
Format         ... Gaussian-Cube
Resolution     ... 120 120 120
Boundaries     ...    -7.000000     7.000000 (x direction)
                      -7.000000     7.000000 (y direction)
                      -7.000000     7.000000 (z direction)
Entering PlotGrid3d with Plottype =1
choosing x-range =    -7.000000 ..     7.000000
choosing y-range =    -7.000000 ..     7.000000
choosing z-range =    -7.000000 ..     7.000000


           ************************************************************
           *        Program running with 32 parallel MPI-processes    *
           *              working on a common directory               *
           ************************************************************

GBW-File       ... In_ano-r3_pbe.gbw
PlotType       ... MO-PLOT
MO/Operator    ... 8 0
Output file    ... In_ano-r3_pbe_phi_a_scf_8_re.cube
Format         ... Gaussian-Cube
Resolution     ... 120 120 120
Boundaries     ...    -7.000000     7.000000 (x direction)
                      -7.000000     7.000000 (y direction)
                      -7.000000     7.000000 (z direction)
Entering PlotGrid3d with Plottype =1
choosing x-range =    -7.000000 ..     7.000000
choosing y-range =    -7.000000 ..     7.000000
choosing z-range =    -7.000000 ..     7.000000


           ************************************************************
           *        Program running with 32 parallel MPI-processes    *
           *              working on a common directory               *
           ************************************************************

GBW-File       ... In_ano-r3_pbe.gbw
PlotType       ... MO-PLOT
MO/Operator    ... 9 0
Output file    ... In_ano-r3_pbe_phi_a_scf_9_re.cube
Format         ... Gaussian-Cube
Resolution     ... 120 120 120
Boundaries     ...    -7.000000     7.000000 (x direction)
                      -7.000000     7.000000 (y direction)
                      -7.000000     7.000000 (z direction)
Entering PlotGrid3d with Plottype =1
choosing x-range =    -7.000000 ..     7.000000
choosing y-range =    -7.000000 ..     7.000000
choosing z-range =    -7.000000 ..     7.000000


           ************************************************************
           *        Program running with 32 parallel MPI-processes    *
           *              working on a common directory               *
           ************************************************************

GBW-File       ... In_ano-r3_pbe.gbw
PlotType       ... MO-PLOT
MO/Operator    ... 10 0
Output file    ... In_ano-r3_pbe_phi_a_scf_10_re.cube
Format         ... Gaussian-Cube
Resolution     ... 120 120 120
Boundaries     ...    -7.000000     7.000000 (x direction)
                      -7.000000     7.000000 (y direction)
                      -7.000000     7.000000 (z direction)
Entering PlotGrid3d with Plottype =1
choosing x-range =    -7.000000 ..     7.000000
choosing y-range =    -7.000000 ..     7.000000
choosing z-range =    -7.000000 ..     7.000000


           ************************************************************
           *        Program running with 32 parallel MPI-processes    *
           *              working on a common directory               *
           ************************************************************

GBW-File       ... In_ano-r3_pbe.gbw
PlotType       ... MO-PLOT
MO/Operator    ... 11 0
Output file    ... In_ano-r3_pbe_phi_a_scf_11_re.cube
Format         ... Gaussian-Cube
Resolution     ... 120 120 120
Boundaries     ...    -7.000000     7.000000 (x direction)
                      -7.000000     7.000000 (y direction)
                      -7.000000     7.000000 (z direction)
Entering PlotGrid3d with Plottype =1
choosing x-range =    -7.000000 ..     7.000000
choosing y-range =    -7.000000 ..     7.000000
choosing z-range =    -7.000000 ..     7.000000


           ************************************************************
           *        Program running with 32 parallel MPI-processes    *
           *              working on a common directory               *
           ************************************************************

GBW-File       ... In_ano-r3_pbe.gbw
PlotType       ... MO-PLOT
MO/Operator    ... 12 0
Output file    ... In_ano-r3_pbe_phi_a_scf_12_re.cube
Format         ... Gaussian-Cube
Resolution     ... 120 120 120
Boundaries     ...    -7.000000     7.000000 (x direction)
                      -7.000000     7.000000 (y direction)
                      -7.000000     7.000000 (z direction)
Entering PlotGrid3d with Plottype =1
choosing x-range =    -7.000000 ..     7.000000
choosing y-range =    -7.000000 ..     7.000000
choosing z-range =    -7.000000 ..     7.000000


           ************************************************************
           *        Program running with 32 parallel MPI-processes    *
           *              working on a common directory               *
           ************************************************************

GBW-File       ... In_ano-r3_pbe.gbw
PlotType       ... MO-PLOT
MO/Operator    ... 13 0
Output file    ... In_ano-r3_pbe_phi_a_scf_13_re.cube
Format         ... Gaussian-Cube
Resolution     ... 120 120 120
Boundaries     ...    -7.000000     7.000000 (x direction)
                      -7.000000     7.000000 (y direction)
                      -7.000000     7.000000 (z direction)
Entering PlotGrid3d with Plottype =1
choosing x-range =    -7.000000 ..     7.000000
choosing y-range =    -7.000000 ..     7.000000
choosing z-range =    -7.000000 ..     7.000000


           ************************************************************
           *        Program running with 32 parallel MPI-processes    *
           *              working on a common directory               *
           ************************************************************

GBW-File       ... In_ano-r3_pbe.gbw
PlotType       ... MO-PLOT
MO/Operator    ... 14 0
Output file    ... In_ano-r3_pbe_phi_a_scf_14_re.cube
Format         ... Gaussian-Cube
Resolution     ... 120 120 120
Boundaries     ...    -7.000000     7.000000 (x direction)
                      -7.000000     7.000000 (y direction)
                      -7.000000     7.000000 (z direction)
Entering PlotGrid3d with Plottype =1
choosing x-range =    -7.000000 ..     7.000000
choosing y-range =    -7.000000 ..     7.000000
choosing z-range =    -7.000000 ..     7.000000


           ************************************************************
           *        Program running with 32 parallel MPI-processes    *
           *              working on a common directory               *
           ************************************************************

GBW-File       ... In_ano-r3_pbe.gbw
PlotType       ... MO-PLOT
MO/Operator    ... 15 0
Output file    ... In_ano-r3_pbe_phi_a_scf_15_re.cube
Format         ... Gaussian-Cube
Resolution     ... 120 120 120
Boundaries     ...    -7.000000     7.000000 (x direction)
                      -7.000000     7.000000 (y direction)
                      -7.000000     7.000000 (z direction)
Entering PlotGrid3d with Plottype =1
choosing x-range =    -7.000000 ..     7.000000
choosing y-range =    -7.000000 ..     7.000000
choosing z-range =    -7.000000 ..     7.000000


           ************************************************************
           *        Program running with 32 parallel MPI-processes    *
           *              working on a common directory               *
           ************************************************************

GBW-File       ... In_ano-r3_pbe.gbw
PlotType       ... MO-PLOT
MO/Operator    ... 16 0
Output file    ... In_ano-r3_pbe_phi_a_scf_16_re.cube
Format         ... Gaussian-Cube
Resolution     ... 120 120 120
Boundaries     ...    -7.000000     7.000000 (x direction)
                      -7.000000     7.000000 (y direction)
                      -7.000000     7.000000 (z direction)
Entering PlotGrid3d with Plottype =1
choosing x-range =    -7.000000 ..     7.000000
choosing y-range =    -7.000000 ..     7.000000
choosing z-range =    -7.000000 ..     7.000000


           ************************************************************
           *        Program running with 32 parallel MPI-processes    *
           *              working on a common directory               *
           ************************************************************

GBW-File       ... In_ano-r3_pbe.gbw
PlotType       ... MO-PLOT
MO/Operator    ... 17 0
Output file    ... In_ano-r3_pbe_phi_a_scf_17_re.cube
Format         ... Gaussian-Cube
Resolution     ... 120 120 120
Boundaries     ...    -7.000000     7.000000 (x direction)
                      -7.000000     7.000000 (y direction)
                      -7.000000     7.000000 (z direction)
Entering PlotGrid3d with Plottype =1
choosing x-range =    -7.000000 ..     7.000000
choosing y-range =    -7.000000 ..     7.000000
choosing z-range =    -7.000000 ..     7.000000


           ************************************************************
           *        Program running with 32 parallel MPI-processes    *
           *              working on a common directory               *
           ************************************************************

GBW-File       ... In_ano-r3_pbe.gbw
PlotType       ... MO-PLOT
MO/Operator    ... 18 0
Output file    ... In_ano-r3_pbe_phi_a_scf_18_re.cube
Format         ... Gaussian-Cube
Resolution     ... 120 120 120
Boundaries     ...    -7.000000     7.000000 (x direction)
                      -7.000000     7.000000 (y direction)
                      -7.000000     7.000000 (z direction)
Entering PlotGrid3d with Plottype =1
choosing x-range =    -7.000000 ..     7.000000
choosing y-range =    -7.000000 ..     7.000000
choosing z-range =    -7.000000 ..     7.000000


           ************************************************************
           *        Program running with 32 parallel MPI-processes    *
           *              working on a common directory               *
           ************************************************************

GBW-File       ... In_ano-r3_pbe.gbw
PlotType       ... MO-PLOT
MO/Operator    ... 19 0
Output file    ... In_ano-r3_pbe_phi_a_scf_19_re.cube
Format         ... Gaussian-Cube
Resolution     ... 120 120 120
Boundaries     ...    -7.000000     7.000000 (x direction)
                      -7.000000     7.000000 (y direction)
                      -7.000000     7.000000 (z direction)
Entering PlotGrid3d with Plottype =1
choosing x-range =    -7.000000 ..     7.000000
choosing y-range =    -7.000000 ..     7.000000
choosing z-range =    -7.000000 ..     7.000000


           ************************************************************
           *        Program running with 32 parallel MPI-processes    *
           *              working on a common directory               *
           ************************************************************

GBW-File       ... In_ano-r3_pbe.gbw
PlotType       ... MO-PLOT
MO/Operator    ... 20 0
Output file    ... In_ano-r3_pbe_phi_a_scf_20_re.cube
Format         ... Gaussian-Cube
Resolution     ... 120 120 120
Boundaries     ...    -7.000000     7.000000 (x direction)
                      -7.000000     7.000000 (y direction)
                      -7.000000     7.000000 (z direction)
Entering PlotGrid3d with Plottype =1
choosing x-range =    -7.000000 ..     7.000000
choosing y-range =    -7.000000 ..     7.000000
choosing z-range =    -7.000000 ..     7.000000


           ************************************************************
           *        Program running with 32 parallel MPI-processes    *
           *              working on a common directory               *
           ************************************************************

GBW-File       ... In_ano-r3_pbe.gbw
PlotType       ... MO-PLOT
MO/Operator    ... 21 0
Output file    ... In_ano-r3_pbe_phi_a_scf_21_re.cube
Format         ... Gaussian-Cube
Resolution     ... 120 120 120
Boundaries     ...    -7.000000     7.000000 (x direction)
                      -7.000000     7.000000 (y direction)
                      -7.000000     7.000000 (z direction)
Entering PlotGrid3d with Plottype =1
choosing x-range =    -7.000000 ..     7.000000
choosing y-range =    -7.000000 ..     7.000000
choosing z-range =    -7.000000 ..     7.000000


           ************************************************************
           *        Program running with 32 parallel MPI-processes    *
           *              working on a common directory               *
           ************************************************************

GBW-File       ... In_ano-r3_pbe.gbw
PlotType       ... MO-PLOT
MO/Operator    ... 22 0
Output file    ... In_ano-r3_pbe_phi_a_scf_22_re.cube
Format         ... Gaussian-Cube
Resolution     ... 120 120 120
Boundaries     ...    -7.000000     7.000000 (x direction)
                      -7.000000     7.000000 (y direction)
                      -7.000000     7.000000 (z direction)
Entering PlotGrid3d with Plottype =1
choosing x-range =    -7.000000 ..     7.000000
choosing y-range =    -7.000000 ..     7.000000
choosing z-range =    -7.000000 ..     7.000000


           ************************************************************
           *        Program running with 32 parallel MPI-processes    *
           *              working on a common directory               *
           ************************************************************

GBW-File       ... In_ano-r3_pbe.gbw
PlotType       ... MO-PLOT
MO/Operator    ... 23 0
Output file    ... In_ano-r3_pbe_phi_a_scf_23_re.cube
Format         ... Gaussian-Cube
Resolution     ... 120 120 120
Boundaries     ...    -7.000000     7.000000 (x direction)
                      -7.000000     7.000000 (y direction)
                      -7.000000     7.000000 (z direction)
Entering PlotGrid3d with Plottype =1
choosing x-range =    -7.000000 ..     7.000000
choosing y-range =    -7.000000 ..     7.000000
choosing z-range =    -7.000000 ..     7.000000


           ************************************************************
           *        Program running with 32 parallel MPI-processes    *
           *              working on a common directory               *
           ************************************************************

GBW-File       ... In_ano-r3_pbe.gbw
PlotType       ... MO-PLOT
MO/Operator    ... 24 0
Output file    ... In_ano-r3_pbe_phi_a_scf_24_re.cube
Format         ... Gaussian-Cube
Resolution     ... 120 120 120
Boundaries     ...    -7.000000     7.000000 (x direction)
                      -7.000000     7.000000 (y direction)
                      -7.000000     7.000000 (z direction)
Entering PlotGrid3d with Plottype =1
choosing x-range =    -7.000000 ..     7.000000
choosing y-range =    -7.000000 ..     7.000000
choosing z-range =    -7.000000 ..     7.000000


           ************************************************************
           *        Program running with 32 parallel MPI-processes    *
           *              working on a common directory               *
           ************************************************************

GBW-File       ... In_ano-r3_pbe.gbw
PlotType       ... MO-PLOT
MO/Operator    ... 0 1
Output file    ... In_ano-r3_pbe_phi_b_scf_0_re.cube
Format         ... Gaussian-Cube
Resolution     ... 120 120 120
Boundaries     ...    -7.000000     7.000000 (x direction)
                      -7.000000     7.000000 (y direction)
                      -7.000000     7.000000 (z direction)
Entering PlotGrid3d with Plottype =1
choosing x-range =    -7.000000 ..     7.000000
choosing y-range =    -7.000000 ..     7.000000
choosing z-range =    -7.000000 ..     7.000000


           ************************************************************
           *        Program running with 32 parallel MPI-processes    *
           *              working on a common directory               *
           ************************************************************

GBW-File       ... In_ano-r3_pbe.gbw
PlotType       ... MO-PLOT
MO/Operator    ... 1 1
Output file    ... In_ano-r3_pbe_phi_b_scf_1_re.cube
Format         ... Gaussian-Cube
Resolution     ... 120 120 120
Boundaries     ...    -7.000000     7.000000 (x direction)
                      -7.000000     7.000000 (y direction)
                      -7.000000     7.000000 (z direction)
Entering PlotGrid3d with Plottype =1
choosing x-range =    -7.000000 ..     7.000000
choosing y-range =    -7.000000 ..     7.000000
choosing z-range =    -7.000000 ..     7.000000


           ************************************************************
           *        Program running with 32 parallel MPI-processes    *
           *              working on a common directory               *
           ************************************************************

GBW-File       ... In_ano-r3_pbe.gbw
PlotType       ... MO-PLOT
MO/Operator    ... 2 1
Output file    ... In_ano-r3_pbe_phi_b_scf_2_re.cube
Format         ... Gaussian-Cube
Resolution     ... 120 120 120
Boundaries     ...    -7.000000     7.000000 (x direction)
                      -7.000000     7.000000 (y direction)
                      -7.000000     7.000000 (z direction)
Entering PlotGrid3d with Plottype =1
choosing x-range =    -7.000000 ..     7.000000
choosing y-range =    -7.000000 ..     7.000000
choosing z-range =    -7.000000 ..     7.000000


           ************************************************************
           *        Program running with 32 parallel MPI-processes    *
           *              working on a common directory               *
           ************************************************************

GBW-File       ... In_ano-r3_pbe.gbw
PlotType       ... MO-PLOT
MO/Operator    ... 3 1
Output file    ... In_ano-r3_pbe_phi_b_scf_3_re.cube
Format         ... Gaussian-Cube
Resolution     ... 120 120 120
Boundaries     ...    -7.000000     7.000000 (x direction)
                      -7.000000     7.000000 (y direction)
                      -7.000000     7.000000 (z direction)
Entering PlotGrid3d with Plottype =1
choosing x-range =    -7.000000 ..     7.000000
choosing y-range =    -7.000000 ..     7.000000
choosing z-range =    -7.000000 ..     7.000000


           ************************************************************
           *        Program running with 32 parallel MPI-processes    *
           *              working on a common directory               *
           ************************************************************

GBW-File       ... In_ano-r3_pbe.gbw
PlotType       ... MO-PLOT
MO/Operator    ... 4 1
Output file    ... In_ano-r3_pbe_phi_b_scf_4_re.cube
Format         ... Gaussian-Cube
Resolution     ... 120 120 120
Boundaries     ...    -7.000000     7.000000 (x direction)
                      -7.000000     7.000000 (y direction)
                      -7.000000     7.000000 (z direction)
Entering PlotGrid3d with Plottype =1
choosing x-range =    -7.000000 ..     7.000000
choosing y-range =    -7.000000 ..     7.000000
choosing z-range =    -7.000000 ..     7.000000


           ************************************************************
           *        Program running with 32 parallel MPI-processes    *
           *              working on a common directory               *
           ************************************************************

GBW-File       ... In_ano-r3_pbe.gbw
PlotType       ... MO-PLOT
MO/Operator    ... 5 1
Output file    ... In_ano-r3_pbe_phi_b_scf_5_re.cube
Format         ... Gaussian-Cube
Resolution     ... 120 120 120
Boundaries     ...    -7.000000     7.000000 (x direction)
                      -7.000000     7.000000 (y direction)
                      -7.000000     7.000000 (z direction)
Entering PlotGrid3d with Plottype =1
choosing x-range =    -7.000000 ..     7.000000
choosing y-range =    -7.000000 ..     7.000000
choosing z-range =    -7.000000 ..     7.000000


           ************************************************************
           *        Program running with 32 parallel MPI-processes    *
           *              working on a common directory               *
           ************************************************************

GBW-File       ... In_ano-r3_pbe.gbw
PlotType       ... MO-PLOT
MO/Operator    ... 6 1
Output file    ... In_ano-r3_pbe_phi_b_scf_6_re.cube
Format         ... Gaussian-Cube
Resolution     ... 120 120 120
Boundaries     ...    -7.000000     7.000000 (x direction)
                      -7.000000     7.000000 (y direction)
                      -7.000000     7.000000 (z direction)
Entering PlotGrid3d with Plottype =1
choosing x-range =    -7.000000 ..     7.000000
choosing y-range =    -7.000000 ..     7.000000
choosing z-range =    -7.000000 ..     7.000000


           ************************************************************
           *        Program running with 32 parallel MPI-processes    *
           *              working on a common directory               *
           ************************************************************

GBW-File       ... In_ano-r3_pbe.gbw
PlotType       ... MO-PLOT
MO/Operator    ... 7 1
Output file    ... In_ano-r3_pbe_phi_b_scf_7_re.cube
Format         ... Gaussian-Cube
Resolution     ... 120 120 120
Boundaries     ...    -7.000000     7.000000 (x direction)
                      -7.000000     7.000000 (y direction)
                      -7.000000     7.000000 (z direction)
Entering PlotGrid3d with Plottype =1
choosing x-range =    -7.000000 ..     7.000000
choosing y-range =    -7.000000 ..     7.000000
choosing z-range =    -7.000000 ..     7.000000


           ************************************************************
           *        Program running with 32 parallel MPI-processes    *
           *              working on a common directory               *
           ************************************************************

GBW-File       ... In_ano-r3_pbe.gbw
PlotType       ... MO-PLOT
MO/Operator    ... 8 1
Output file    ... In_ano-r3_pbe_phi_b_scf_8_re.cube
Format         ... Gaussian-Cube
Resolution     ... 120 120 120
Boundaries     ...    -7.000000     7.000000 (x direction)
                      -7.000000     7.000000 (y direction)
                      -7.000000     7.000000 (z direction)
Entering PlotGrid3d with Plottype =1
choosing x-range =    -7.000000 ..     7.000000
choosing y-range =    -7.000000 ..     7.000000
choosing z-range =    -7.000000 ..     7.000000


           ************************************************************
           *        Program running with 32 parallel MPI-processes    *
           *              working on a common directory               *
           ************************************************************

GBW-File       ... In_ano-r3_pbe.gbw
PlotType       ... MO-PLOT
MO/Operator    ... 9 1
Output file    ... In_ano-r3_pbe_phi_b_scf_9_re.cube
Format         ... Gaussian-Cube
Resolution     ... 120 120 120
Boundaries     ...    -7.000000     7.000000 (x direction)
                      -7.000000     7.000000 (y direction)
                      -7.000000     7.000000 (z direction)
Entering PlotGrid3d with Plottype =1
choosing x-range =    -7.000000 ..     7.000000
choosing y-range =    -7.000000 ..     7.000000
choosing z-range =    -7.000000 ..     7.000000


           ************************************************************
           *        Program running with 32 parallel MPI-processes    *
           *              working on a common directory               *
           ************************************************************

GBW-File       ... In_ano-r3_pbe.gbw
PlotType       ... MO-PLOT
MO/Operator    ... 10 1
Output file    ... In_ano-r3_pbe_phi_b_scf_10_re.cube
Format         ... Gaussian-Cube
Resolution     ... 120 120 120
Boundaries     ...    -7.000000     7.000000 (x direction)
                      -7.000000     7.000000 (y direction)
                      -7.000000     7.000000 (z direction)
Entering PlotGrid3d with Plottype =1
choosing x-range =    -7.000000 ..     7.000000
choosing y-range =    -7.000000 ..     7.000000
choosing z-range =    -7.000000 ..     7.000000


           ************************************************************
           *        Program running with 32 parallel MPI-processes    *
           *              working on a common directory               *
           ************************************************************

GBW-File       ... In_ano-r3_pbe.gbw
PlotType       ... MO-PLOT
MO/Operator    ... 11 1
Output file    ... In_ano-r3_pbe_phi_b_scf_11_re.cube
Format         ... Gaussian-Cube
Resolution     ... 120 120 120
Boundaries     ...    -7.000000     7.000000 (x direction)
                      -7.000000     7.000000 (y direction)
                      -7.000000     7.000000 (z direction)
Entering PlotGrid3d with Plottype =1
choosing x-range =    -7.000000 ..     7.000000
choosing y-range =    -7.000000 ..     7.000000
choosing z-range =    -7.000000 ..     7.000000


           ************************************************************
           *        Program running with 32 parallel MPI-processes    *
           *              working on a common directory               *
           ************************************************************

GBW-File       ... In_ano-r3_pbe.gbw
PlotType       ... MO-PLOT
MO/Operator    ... 12 1
Output file    ... In_ano-r3_pbe_phi_b_scf_12_re.cube
Format         ... Gaussian-Cube
Resolution     ... 120 120 120
Boundaries     ...    -7.000000     7.000000 (x direction)
                      -7.000000     7.000000 (y direction)
                      -7.000000     7.000000 (z direction)
Entering PlotGrid3d with Plottype =1
choosing x-range =    -7.000000 ..     7.000000
choosing y-range =    -7.000000 ..     7.000000
choosing z-range =    -7.000000 ..     7.000000


           ************************************************************
           *        Program running with 32 parallel MPI-processes    *
           *              working on a common directory               *
           ************************************************************

GBW-File       ... In_ano-r3_pbe.gbw
PlotType       ... MO-PLOT
MO/Operator    ... 13 1
Output file    ... In_ano-r3_pbe_phi_b_scf_13_re.cube
Format         ... Gaussian-Cube
Resolution     ... 120 120 120
Boundaries     ...    -7.000000     7.000000 (x direction)
                      -7.000000     7.000000 (y direction)
                      -7.000000     7.000000 (z direction)
Entering PlotGrid3d with Plottype =1
choosing x-range =    -7.000000 ..     7.000000
choosing y-range =    -7.000000 ..     7.000000
choosing z-range =    -7.000000 ..     7.000000


           ************************************************************
           *        Program running with 32 parallel MPI-processes    *
           *              working on a common directory               *
           ************************************************************

GBW-File       ... In_ano-r3_pbe.gbw
PlotType       ... MO-PLOT
MO/Operator    ... 14 1
Output file    ... In_ano-r3_pbe_phi_b_scf_14_re.cube
Format         ... Gaussian-Cube
Resolution     ... 120 120 120
Boundaries     ...    -7.000000     7.000000 (x direction)
                      -7.000000     7.000000 (y direction)
                      -7.000000     7.000000 (z direction)
Entering PlotGrid3d with Plottype =1
choosing x-range =    -7.000000 ..     7.000000
choosing y-range =    -7.000000 ..     7.000000
choosing z-range =    -7.000000 ..     7.000000


           ************************************************************
           *        Program running with 32 parallel MPI-processes    *
           *              working on a common directory               *
           ************************************************************

GBW-File       ... In_ano-r3_pbe.gbw
PlotType       ... MO-PLOT
MO/Operator    ... 15 1
Output file    ... In_ano-r3_pbe_phi_b_scf_15_re.cube
Format         ... Gaussian-Cube
Resolution     ... 120 120 120
Boundaries     ...    -7.000000     7.000000 (x direction)
                      -7.000000     7.000000 (y direction)
                      -7.000000     7.000000 (z direction)
Entering PlotGrid3d with Plottype =1
choosing x-range =    -7.000000 ..     7.000000
choosing y-range =    -7.000000 ..     7.000000
choosing z-range =    -7.000000 ..     7.000000


           ************************************************************
           *        Program running with 32 parallel MPI-processes    *
           *              working on a common directory               *
           ************************************************************

GBW-File       ... In_ano-r3_pbe.gbw
PlotType       ... MO-PLOT
MO/Operator    ... 16 1
Output file    ... In_ano-r3_pbe_phi_b_scf_16_re.cube
Format         ... Gaussian-Cube
Resolution     ... 120 120 120
Boundaries     ...    -7.000000     7.000000 (x direction)
                      -7.000000     7.000000 (y direction)
                      -7.000000     7.000000 (z direction)
Entering PlotGrid3d with Plottype =1
choosing x-range =    -7.000000 ..     7.000000
choosing y-range =    -7.000000 ..     7.000000
choosing z-range =    -7.000000 ..     7.000000


           ************************************************************
           *        Program running with 32 parallel MPI-processes    *
           *              working on a common directory               *
           ************************************************************

GBW-File       ... In_ano-r3_pbe.gbw
PlotType       ... MO-PLOT
MO/Operator    ... 17 1
Output file    ... In_ano-r3_pbe_phi_b_scf_17_re.cube
Format         ... Gaussian-Cube
Resolution     ... 120 120 120
Boundaries     ...    -7.000000     7.000000 (x direction)
                      -7.000000     7.000000 (y direction)
                      -7.000000     7.000000 (z direction)
Entering PlotGrid3d with Plottype =1
choosing x-range =    -7.000000 ..     7.000000
choosing y-range =    -7.000000 ..     7.000000
choosing z-range =    -7.000000 ..     7.000000


           ************************************************************
           *        Program running with 32 parallel MPI-processes    *
           *              working on a common directory               *
           ************************************************************

GBW-File       ... In_ano-r3_pbe.gbw
PlotType       ... MO-PLOT
MO/Operator    ... 18 1
Output file    ... In_ano-r3_pbe_phi_b_scf_18_re.cube
Format         ... Gaussian-Cube
Resolution     ... 120 120 120
Boundaries     ...    -7.000000     7.000000 (x direction)
                      -7.000000     7.000000 (y direction)
                      -7.000000     7.000000 (z direction)
Entering PlotGrid3d with Plottype =1
choosing x-range =    -7.000000 ..     7.000000
choosing y-range =    -7.000000 ..     7.000000
choosing z-range =    -7.000000 ..     7.000000


           ************************************************************
           *        Program running with 32 parallel MPI-processes    *
           *              working on a common directory               *
           ************************************************************

GBW-File       ... In_ano-r3_pbe.gbw
PlotType       ... MO-PLOT
MO/Operator    ... 19 1
Output file    ... In_ano-r3_pbe_phi_b_scf_19_re.cube
Format         ... Gaussian-Cube
Resolution     ... 120 120 120
Boundaries     ...    -7.000000     7.000000 (x direction)
                      -7.000000     7.000000 (y direction)
                      -7.000000     7.000000 (z direction)
Entering PlotGrid3d with Plottype =1
choosing x-range =    -7.000000 ..     7.000000
choosing y-range =    -7.000000 ..     7.000000
choosing z-range =    -7.000000 ..     7.000000


           ************************************************************
           *        Program running with 32 parallel MPI-processes    *
           *              working on a common directory               *
           ************************************************************

GBW-File       ... In_ano-r3_pbe.gbw
PlotType       ... MO-PLOT
MO/Operator    ... 20 1
Output file    ... In_ano-r3_pbe_phi_b_scf_20_re.cube
Format         ... Gaussian-Cube
Resolution     ... 120 120 120
Boundaries     ...    -7.000000     7.000000 (x direction)
                      -7.000000     7.000000 (y direction)
                      -7.000000     7.000000 (z direction)
Entering PlotGrid3d with Plottype =1
choosing x-range =    -7.000000 ..     7.000000
choosing y-range =    -7.000000 ..     7.000000
choosing z-range =    -7.000000 ..     7.000000


           ************************************************************
           *        Program running with 32 parallel MPI-processes    *
           *              working on a common directory               *
           ************************************************************

GBW-File       ... In_ano-r3_pbe.gbw
PlotType       ... MO-PLOT
MO/Operator    ... 21 1
Output file    ... In_ano-r3_pbe_phi_b_scf_21_re.cube
Format         ... Gaussian-Cube
Resolution     ... 120 120 120
Boundaries     ...    -7.000000     7.000000 (x direction)
                      -7.000000     7.000000 (y direction)
                      -7.000000     7.000000 (z direction)
Entering PlotGrid3d with Plottype =1
choosing x-range =    -7.000000 ..     7.000000
choosing y-range =    -7.000000 ..     7.000000
choosing z-range =    -7.000000 ..     7.000000


           ************************************************************
           *        Program running with 32 parallel MPI-processes    *
           *              working on a common directory               *
           ************************************************************

GBW-File       ... In_ano-r3_pbe.gbw
PlotType       ... MO-PLOT
MO/Operator    ... 22 1
Output file    ... In_ano-r3_pbe_phi_b_scf_22_re.cube
Format         ... Gaussian-Cube
Resolution     ... 120 120 120
Boundaries     ...    -7.000000     7.000000 (x direction)
                      -7.000000     7.000000 (y direction)
                      -7.000000     7.000000 (z direction)
Entering PlotGrid3d with Plottype =1
choosing x-range =    -7.000000 ..     7.000000
choosing y-range =    -7.000000 ..     7.000000
choosing z-range =    -7.000000 ..     7.000000


           ************************************************************
           *        Program running with 32 parallel MPI-processes    *
           *              working on a common directory               *
           ************************************************************

GBW-File       ... In_ano-r3_pbe.gbw
PlotType       ... MO-PLOT
MO/Operator    ... 23 1
Output file    ... In_ano-r3_pbe_phi_b_scf_23_re.cube
Format         ... Gaussian-Cube
Resolution     ... 120 120 120
Boundaries     ...    -7.000000     7.000000 (x direction)
                      -7.000000     7.000000 (y direction)
                      -7.000000     7.000000 (z direction)
Entering PlotGrid3d with Plottype =1

                            ***************************************
                            *     ORCA property calculations      *
                            ***************************************

                                    ---------------------
                                    Active property flags
                                    ---------------------
   (+) Dipole Moment


------------------------------------------------------------------------------
                       ORCA ELECTRIC PROPERTIES CALCULATION
------------------------------------------------------------------------------

Dipole Moment Calculation                       ... on
Quadrupole Moment Calculation                   ... off
Polarizability Calculation                      ... off
GBWName                                         ... In_ano-r3_pbe.gbw
Electron density                                ... In_ano-r3_pbe.scfp
The origin for moment calculation is the CENTER OF MASS  = ( 0.000000,  0.000000  0.000000)

-------------
DIPOLE MOMENT
-------------
                                X             Y             Z
Electronic contribution:      0.00000       0.00000      -0.00000
Nuclear contribution   :      0.00000       0.00000       0.00000
                        -----------------------------------------
Total Dipole Moment    :      0.00000       0.00000      -0.00000
                        -----------------------------------------
Magnitude (a.u.)       :      0.00000
Magnitude (Debye)      :      0.00000



--------------------
Rotational spectrum 
--------------------
 
Rotational constants in cm-1:     0.000000     0.000000     0.000000 
Rotational constants in MHz :     0.000000     0.000000     0.000000 

 Dipole components along the rotational axes: 
x,y,z [a.u.] :     0.000000     0.000000    -0.000000 
x,y,z [Debye]:     0.000000     0.000000    -0.000000 

 

Timings for individual modules:

Sum of individual times         ...     2916.569 sec (=  48.609 min)
GTO integral calculation        ...       48.510 sec (=   0.809 min)   1.7 %
SCF iterations                  ...     2690.379 sec (=  44.840 min)  92.2 %
Orbital/Density plot generation ...      177.680 sec (=   2.961 min)   6.1 %
                             ****ORCA TERMINATED NORMALLY****
TOTAL RUN TIME: 0 days 0 hours 48 minutes 45 seconds 615 msec
