
                                 *****************
                                 * O   R   C   A *
                                 *****************

                                            #,                                       
                                            ###                                      
                                            ####                                     
                                            #####                                    
                                            ######                                   
                                           ########,                                 
                                     ,,################,,,,,                         
                               ,,#################################,,                 
                          ,,##########################################,,             
                       ,#########################################, ''#####,          
                    ,#############################################,,   '####,        
                  ,##################################################,,,,####,       
                ,###########''''           ''''###############################       
              ,#####''   ,,,,##########,,,,          '''####'''          '####       
            ,##' ,,,,###########################,,,                        '##       
           ' ,,###''''                  '''############,,,                           
         ,,##''                                '''############,,,,        ,,,,,,###''
      ,#''                                            '''#######################'''  
     '                                                          ''''####''''         
             ,#######,   #######,   ,#######,      ##                                
            ,#'     '#,  ##    ##  ,#'     '#,    #''#        ######   ,####,        
            ##       ##  ##   ,#'  ##            #'  '#       #        #'  '#        
            ##       ##  #######   ##           ,######,      #####,   #    #        
            '#,     ,#'  ##    ##  '#,     ,#' ,#      #,         ##   #,  ,#        
             '#######'   ##     ##  '#######'  #'      '#     #####' # '####'        



                  #######################################################
                  #                        -***-                        #
                  #          Department of theory and spectroscopy      #
                  #    Directorship and core code : Frank Neese         #
                  #        Max Planck Institute fuer Kohlenforschung    #
                  #                Kaiser Wilhelm Platz 1               #
                  #                 D-45470 Muelheim/Ruhr               #
                  #                      Germany                        #
                  #                                                     #
                  #                  All rights reserved                #
                  #                        -***-                        #
                  #######################################################


                         Program Version 5.0.1 -  RELEASE  -


 With contributions from (in alphabetic order):
   Daniel Aravena         : Magnetic Suceptibility
   Michael Atanasov       : Ab Initio Ligand Field Theory (pilot matlab implementation)
   Alexander A. Auer      : GIAO ZORA, VPT2 properties, NMR spectrum
   Ute Becker             : Parallelization
   Giovanni Bistoni       : ED, misc. LED, open-shell LED, HFLD
   Martin Brehm           : Molecular dynamics
   Dmytro Bykov           : SCF Hessian
   Vijay G. Chilkuri      : MRCI spin determinant printing, contributions to CSF-ICE
   Dipayan Datta          : RHF DLPNO-CCSD density
   Achintya Kumar Dutta   : EOM-CC, STEOM-CC
   Dmitry Ganyushin       : Spin-Orbit,Spin-Spin,Magnetic field MRCI
   Miquel Garcia          : C-PCM and meta-GGA Hessian, CC/C-PCM, Gaussian charge scheme
   Yang Guo               : DLPNO-NEVPT2, F12-NEVPT2, CIM, IAO-localization
   Andreas Hansen         : Spin unrestricted coupled pair/coupled cluster methods
   Benjamin Helmich-Paris : MC-RPA, TRAH-SCF, COSX integrals
   Lee Huntington         : MR-EOM, pCC
   Robert Izsak           : Overlap fitted RIJCOSX, COSX-SCS-MP3, EOM
   Marcus Kettner         : VPT2
   Christian Kollmar      : KDIIS, OOCD, Brueckner-CCSD(T), CCSD density, CASPT2, CASPT2-K
   Simone Kossmann        : Meta GGA functionals, TD-DFT gradient, OOMP2, MP2 Hessian
   Martin Krupicka        : Initial AUTO-CI
   Lucas Lang             : DCDCAS
   Marvin Lechner         : AUTO-CI (C++ implementation), FIC-MRCC
   Dagmar Lenk            : GEPOL surface, SMD
   Dimitrios Liakos       : Extrapolation schemes; Compound Job, initial MDCI parallelization
   Dimitrios Manganas     : Further ROCIS development; embedding schemes
   Dimitrios Pantazis     : SARC Basis sets
   Anastasios Papadopoulos: AUTO-CI, single reference methods and gradients
   Taras Petrenko         : DFT Hessian,TD-DFT gradient, ASA, ECA, R-Raman, ABS, FL, XAS/XES, NRVS
   Peter Pinski           : DLPNO-MP2, DLPNO-MP2 Gradient
   Christoph Reimann      : Effective Core Potentials
   Marius Retegan         : Local ZFS, SOC
   Christoph Riplinger    : Optimizer, TS searches, QM/MM, DLPNO-CCSD(T), (RO)-DLPNO pert. Triples
   Tobias Risthaus        : Range-separated hybrids, TD-DFT gradient, RPA, STAB
   Michael Roemelt        : Original ROCIS implementation
   Masaaki Saitow         : Open-shell DLPNO-CCSD energy and density
   Barbara Sandhoefer     : DKH picture change effects
   Avijit Sen             : IP-ROCIS
   Kantharuban Sivalingam : CASSCF convergence, NEVPT2, FIC-MRCI
   Bernardo de Souza      : ESD, SOC TD-DFT
   Georgi Stoychev        : AutoAux, RI-MP2 NMR, DLPNO-MP2 response
   Willem Van den Heuvel  : Paramagnetic NMR
   Boris Wezisla          : Elementary symmetry handling
   Frank Wennmohs         : Technical directorship


 We gratefully acknowledge several colleagues who have allowed us to
 interface, adapt or use parts of their codes:
   Stefan Grimme, W. Hujo, H. Kruse, P. Pracht,  : VdW corrections, initial TS optimization,
                  C. Bannwarth, S. Ehlert          DFT functionals, gCP, sTDA/sTD-DF
   Ed Valeev, F. Pavosevic, A. Kumar             : LibInt (2-el integral package), F12 methods
   Garnet Chan, S. Sharma, J. Yang, R. Olivares  : DMRG
   Ulf Ekstrom                                   : XCFun DFT Library
   Mihaly Kallay                                 : mrcc  (arbitrary order and MRCC methods)
   Jiri Pittner, Ondrej Demel                    : Mk-CCSD
   Frank Weinhold                                : gennbo (NPA and NBO analysis)
   Christopher J. Cramer and Donald G. Truhlar   : smd solvation model
   Lars Goerigk                                  : TD-DFT with DH, B97 family of functionals
   V. Asgeirsson, H. Jonsson                     : NEB implementation
   FAccTs GmbH                                   : IRC, NEB, NEB-TS, DLPNO-Multilevel, CI-OPT
                                                   MM, QMMM, 2- and 3-layer-ONIOM, Crystal-QMMM,
                                                   LR-CPCM, SF, NACMEs, symmetry and pop. for TD-DFT,
                                                   nearIR, NL-DFT gradient (VV10), updates on ESD,
                                                   ML-optimized integration grids
   S Lehtola, MJT Oliveira, MAL Marques          : LibXC Library
   Liviu Ungur et al                             : ANISO software


 Your calculation uses the libint2 library for the computation of 2-el integrals
 For citations please refer to: http://libint.valeyev.net

 Your ORCA version has been built with support for libXC version: 5.1.0
 For citations please refer to: https://tddft.org/programs/libxc/

 This ORCA versions uses:
   CBLAS   interface :  Fast vector & matrix operations
   LAPACKE interface :  Fast linear algebra routines
   SCALAPACK package :  Parallel linear algebra routines
   Shared memory     :  Shared parallel matrices
   BLAS/LAPACK       :  OpenBLAS 0.3.15  USE64BITINT DYNAMIC_ARCH NO_AFFINITY Haswell SINGLE_THREADED
        Core in use  :  Haswell
   Copyright (c) 2011-2014, The OpenBLAS Project


SCAN-COORDS

Reading of a custom basis requested
Basis file         : /cluster/home/ambr/projects/zora/row5/calcs_gto/Mo_ano-r3.basis
READING GTO-BASIS: MOLYBDENUM
Basis successfully read

================================================================================

----- Orbital basis set information -----
================================================================================
                                        WARNINGS
                       Please study these warnings very carefully!
================================================================================


INFO   : the flag for use of the SHARK integral package has been found!

================================================================================
                                       INPUT FILE
================================================================================
NAME = Mo_ano-r3_pbe.inp
|  1> !uks pbe nori verytightscf soscf
|  2> 
|  3> %pal
|  4>   nprocs 32
|  5> end
|  6> %coords
|  7>   charge 0
|  8>   mult 7
|  9>   units bohrs
| 10>   coords
| 11>     Mo 0.0 0.0 0.0
| 12>   end
| 13> end
| 14> %basis
| 15>   gtoname "/cluster/home/ambr/projects/zora/row5/calcs_gto/Mo_ano-r3.basis"
| 16>   delECP Mo
| 17> end
| 18> %plots
| 19>   format gaussian_cube
| 20>   dim1 120
| 21>   dim2 120
| 22>   dim3 120
| 23>   MO("Mo_ano-r3_pbe_phi_a_scf_0_re.cube",0,0);
| 24>   MO("Mo_ano-r3_pbe_phi_a_scf_1_re.cube",1,0);
| 25>   MO("Mo_ano-r3_pbe_phi_a_scf_2_re.cube",2,0);
| 26>   MO("Mo_ano-r3_pbe_phi_a_scf_3_re.cube",3,0);
| 27>   MO("Mo_ano-r3_pbe_phi_a_scf_4_re.cube",4,0);
| 28>   MO("Mo_ano-r3_pbe_phi_a_scf_5_re.cube",5,0);
| 29>   MO("Mo_ano-r3_pbe_phi_a_scf_6_re.cube",6,0);
| 30>   MO("Mo_ano-r3_pbe_phi_a_scf_7_re.cube",7,0);
| 31>   MO("Mo_ano-r3_pbe_phi_a_scf_8_re.cube",8,0);
| 32>   MO("Mo_ano-r3_pbe_phi_a_scf_9_re.cube",9,0);
| 33>   MO("Mo_ano-r3_pbe_phi_a_scf_10_re.cube",10,0);
| 34>   MO("Mo_ano-r3_pbe_phi_a_scf_11_re.cube",11,0);
| 35>   MO("Mo_ano-r3_pbe_phi_a_scf_12_re.cube",12,0);
| 36>   MO("Mo_ano-r3_pbe_phi_a_scf_13_re.cube",13,0);
| 37>   MO("Mo_ano-r3_pbe_phi_a_scf_14_re.cube",14,0);
| 38>   MO("Mo_ano-r3_pbe_phi_a_scf_15_re.cube",15,0);
| 39>   MO("Mo_ano-r3_pbe_phi_a_scf_16_re.cube",16,0);
| 40>   MO("Mo_ano-r3_pbe_phi_a_scf_17_re.cube",17,0);
| 41>   MO("Mo_ano-r3_pbe_phi_a_scf_18_re.cube",18,0);
| 42>   MO("Mo_ano-r3_pbe_phi_a_scf_19_re.cube",19,0);
| 43>   MO("Mo_ano-r3_pbe_phi_a_scf_20_re.cube",20,0);
| 44>   MO("Mo_ano-r3_pbe_phi_a_scf_21_re.cube",21,0);
| 45>   MO("Mo_ano-r3_pbe_phi_a_scf_22_re.cube",22,0);
| 46>   MO("Mo_ano-r3_pbe_phi_a_scf_23_re.cube",23,0);
| 47>   MO("Mo_ano-r3_pbe_phi_b_scf_0_re.cube",0,1);
| 48>   MO("Mo_ano-r3_pbe_phi_b_scf_1_re.cube",1,1);
| 49>   MO("Mo_ano-r3_pbe_phi_b_scf_2_re.cube",2,1);
| 50>   MO("Mo_ano-r3_pbe_phi_b_scf_3_re.cube",3,1);
| 51>   MO("Mo_ano-r3_pbe_phi_b_scf_4_re.cube",4,1);
| 52>   MO("Mo_ano-r3_pbe_phi_b_scf_5_re.cube",5,1);
| 53>   MO("Mo_ano-r3_pbe_phi_b_scf_6_re.cube",6,1);
| 54>   MO("Mo_ano-r3_pbe_phi_b_scf_7_re.cube",7,1);
| 55>   MO("Mo_ano-r3_pbe_phi_b_scf_8_re.cube",8,1);
| 56>   MO("Mo_ano-r3_pbe_phi_b_scf_9_re.cube",9,1);
| 57>   MO("Mo_ano-r3_pbe_phi_b_scf_10_re.cube",10,1);
| 58>   MO("Mo_ano-r3_pbe_phi_b_scf_11_re.cube",11,1);
| 59>   MO("Mo_ano-r3_pbe_phi_b_scf_12_re.cube",12,1);
| 60>   MO("Mo_ano-r3_pbe_phi_b_scf_13_re.cube",13,1);
| 61>   MO("Mo_ano-r3_pbe_phi_b_scf_14_re.cube",14,1);
| 62>   MO("Mo_ano-r3_pbe_phi_b_scf_15_re.cube",15,1);
| 63>   MO("Mo_ano-r3_pbe_phi_b_scf_16_re.cube",16,1);
| 64>   MO("Mo_ano-r3_pbe_phi_b_scf_17_re.cube",17,1);
| 65> endd                         ****END OF INPUT****
================================================================================

                       ****************************
                       * Single Point Calculation *
                       ****************************

---------------------------------
CARTESIAN COORDINATES (ANGSTROEM)
---------------------------------
  Mo     0.000000    0.000000    0.000000

----------------------------
CARTESIAN COORDINATES (A.U.)
----------------------------
  NO LB      ZA    FRAG     MASS         X           Y           Z
   0 Mo   42.0000    0    95.940    0.000000    0.000000    0.000000

--------------------------------
INTERNAL COORDINATES (ANGSTROEM)
--------------------------------
 Mo     0   0   0     0.000000000000     0.00000000     0.00000000

---------------------------
INTERNAL COORDINATES (A.U.)
---------------------------
 Mo     0   0   0     0.000000000000     0.00000000     0.00000000

---------------------
BASIS SET INFORMATION
---------------------
There are 1 groups of distinct atoms

 Group   1 Type Mo  : 184s96p60d18f10g3h contracted to 8s6p5d3f2g1h pattern {2323232323232323/161616161616/1212121212/666/55/3}

Atom   0Mo   basis set group =>   1


           ************************************************************
           *        Program running with 32 parallel MPI-processes    *
           *              working on a common directory               *
           ************************************************************
------------------------------------------------------------------------------
                           ORCA GTO INTEGRAL CALCULATION
------------------------------------------------------------------------------
------------------------------------------------------------------------------
                   ___                                                        
                  /   \      - P O W E R E D   B Y -                         
                 /     \                                                     
                 |  |  |   _    _      __       _____    __    __             
                 |  |  |  | |  | |    /  \     |  _  \  |  |  /  |          
                  \  \/   | |  | |   /    \    | | | |  |  | /  /          
                 / \  \   | |__| |  /  /\  \   | |_| |  |  |/  /          
                |  |  |   |  __  | /  /__\  \  |    /   |      \           
                |  |  |   | |  | | |   __   |  |    \   |  |\   \          
                \     /   | |  | | |  |  |  |  | |\  \  |  | \   \       
                 \___/    |_|  |_| |__|  |__|  |_| \__\ |__|  \__/        
                                                                              
                      - O R C A' S   B I G   F R I E N D -                    
                                      &                                       
                       - I N T E G R A L  F E E D E R -                       
                                                                              
 v1 FN, 2020, v2 2021                                                         
------------------------------------------------------------------------------


Reading SHARK input file Mo_ano-r3_pbe.SHARKINP.tmp ... ok
----------------------
SHARK INTEGRAL PACKAGE
----------------------

Number of atoms                             ...      1
Number of basis functions                   ...    101
Number of shells                            ...     25
Maximum angular momentum                    ...      5
Integral batch strategy                     ... SHARK/LIBINT Hybrid
RI-J (if used) integral strategy            ... SPLIT-RIJ (Revised 2003 algorithm where possible)
Printlevel                                  ...      1
Contraction scheme used                     ... SEGMENTED contraction
Coulomb Range Separation                    ... NOT USED
Exchange Range Separation                   ... NOT USED
Finite Nucleus Model                        ... NOT USED
Auxiliary Coulomb fitting basis             ... NOT available
Auxiliary J/K fitting basis                 ... NOT available
Auxiliary Correlation fitting basis         ... NOT available
Auxiliary 'external' fitting basis          ... NOT available
Integral threshold                          ...     1.000000e-12
Primitive cut-off                           ...     1.000000e-14
Primitive pair pre-selection threshold      ...     1.000000e-14

Calculating pre-screening integrals         ... done ( 27.2 sec) Dimension = 25
Organizing shell pair data                  ... done (  0.5 sec)
Shell pair information
Total number of shell pairs                 ...       325
Shell pairs after pre-screening             ...       325
Total number of primitive shell pairs       ...     72148
Primitive shell pairs kept                  ...     72147
          la=0 lb=0:     36 shell pairs
          la=1 lb=0:     48 shell pairs
          la=1 lb=1:     21 shell pairs
          la=2 lb=0:     40 shell pairs
          la=2 lb=1:     30 shell pairs
          la=2 lb=2:     15 shell pairs
          la=3 lb=0:     24 shell pairs
          la=3 lb=1:     18 shell pairs
          la=3 lb=2:     15 shell pairs
          la=3 lb=3:      6 shell pairs
          la=4 lb=0:     16 shell pairs
          la=4 lb=1:     12 shell pairs
          la=4 lb=2:     10 shell pairs
          la=4 lb=3:      6 shell pairs
          la=4 lb=4:      3 shell pairs
          la=5 lb=0:      8 shell pairs
          la=5 lb=1:      6 shell pairs
          la=5 lb=2:      5 shell pairs
          la=5 lb=3:      3 shell pairs
          la=5 lb=4:      2 shell pairs
          la=5 lb=5:      1 shell pairs

Calculating one electron integrals          ... done (  0.6 sec)
Calculating Nuclear repulsion               ... done (  0.0 sec) ENN=      0.000000000000 Eh

SHARK setup successfully completed in  28.8 seconds

Maximum memory used throughout the entire GTOINT-calculation: 386.5 MB


           ************************************************************
           *        Program running with 32 parallel MPI-processes    *
           *              working on a common directory               *
           ************************************************************
-------------------------------------------------------------------------------
                                 ORCA SCF
-------------------------------------------------------------------------------

------------
SCF SETTINGS
------------
Hamiltonian:
 Density Functional     Method          .... DFT(GTOs)
 Exchange Functional    Exchange        .... PBE
   PBE kappa parameter   XKappa         ....  0.804000
   PBE mue parameter    XMuePBE         ....  0.219520
 Correlation Functional Correlation     .... PBE
   PBE beta parameter  CBetaPBE         ....  0.066725
 LDA part of GGA corr.  LDAOpt          .... PW91-LDA
 Gradients option       PostSCFGGA      .... off
   Density functional embedding theory  .... OFF
   NL short-range parameter             ....  6.400000


General Settings:
 Integral files         IntName         .... Mo_ano-r3_pbe
 Hartree-Fock type      HFTyp           .... UHF
 Total Charge           Charge          ....    0
 Multiplicity           Mult            ....    7
 Number of Electrons    NEL             ....   42
 Basis Dimension        Dim             ....  101
 Nuclear Repulsion      ENuc            ....      0.0000000000 Eh

Convergence Acceleration:
 DIIS                   CNVDIIS         .... on
   Start iteration      DIISMaxIt       ....    12
   Startup error        DIISStart       ....  0.200000
   # of expansion vecs  DIISMaxEq       ....     5
   Bias factor          DIISBfac        ....   1.050
   Max. coefficient     DIISMaxC        ....  10.000
 Trust-Rad. Augm. Hess. CNVTRAH         .... auto
   Auto Start mean grad. ratio tolernc. ....  1.125000
   Auto Start start iteration           ....    20
   Auto Start num. interpolation iter.  ....    10
   Max. Number of Micro iterations      ....    16
   Max. Number of Macro iterations      .... Maxiter - #DIIS iter
   Number of Davidson start vectors     ....     2
   Converg. threshold I  (grad. norm)   ....   2.000e-06
   Converg. threshold II (energy diff.) ....   1.000e-09
   Grad. Scal. Fac. for Micro threshold ....   0.100
   Minimum threshold for Micro iter.    ....   0.010
   NR start threshold (gradient norm)   ....   0.001
   Initial trust radius                 ....   0.400
   Minimum AH scaling param. (alpha)    ....   1.000
   Maximum AH scaling param. (alpha)    .... 1000.000
   Orbital update algorithm             .... Taylor
   White noise on init. David. guess    .... on
   Maximum white noise                  ....   0.010
   Quad. conv. algorithm                .... NR
 SOSCF                  CNVSOSCF        .... on
   Start iteration      SOSCFMaxIt      ....   150
   Startup grad/error   SOSCFStart      ....  0.003300
 Level Shifting         CNVShift        .... on
   Level shift para.    LevelShift      ....    0.2500
   Turn off err/grad.   ShiftErr        ....    0.0010
 Zerner damping         CNVZerner       .... off
 Static damping         CNVDamp         .... on
   Fraction old density DampFac         ....    0.7000
   Max. Damping (<1)    DampMax         ....    0.9800
   Min. Damping (>=0)   DampMin         ....    0.0000
   Turn off err/grad.   DampErr         ....    0.1000
 Fernandez-Rico         CNVRico         .... off

SCF Procedure:
 Maximum # iterations   MaxIter         ....   125
 SCF integral mode      SCFMode         .... Direct
   Integral package                     .... SHARK and LIBINT hybrid scheme
 Reset frequency        DirectResetFreq ....    20
 Integral Threshold     Thresh          ....  1.000e-12 Eh
 Primitive CutOff       TCut            ....  1.000e-14 Eh

Convergence Tolerance:
 Convergence Check Mode ConvCheckMode   .... Total+1el-Energy
 Convergence forced     ConvForced      .... 0
 Energy Change          TolE            ....  1.000e-09 Eh
 1-El. energy change                    ....  1.000e-06 Eh
 Orbital Gradient       TolG            ....  2.000e-06
 Orbital Rotation angle TolX            ....  2.000e-06
 DIIS Error             TolErr          ....  1.000e-08


Diagonalization of the overlap matrix:
Smallest eigenvalue                        ... 1.000e+00
Time for diagonalization                   ...    0.107 sec
Threshold for overlap eigenvalues          ... 1.000e-08
Number of eigenvalues below threshold      ... 0
Time for construction of square roots      ...    0.055 sec
Total time needed                          ...    0.164 sec

Time for model grid setup =    2.151 sec

------------------------------
INITIAL GUESS: MODEL POTENTIAL
------------------------------
Loading Hartree-Fock densities                     ... done
Calculating cut-offs                               ... done
Initializing the effective Hamiltonian             ... done
Setting up the integral package (SHARK)            ... done
Starting the Coulomb interaction                   ... done (   2.5 sec)
Reading the grid                                   ... done
Mapping shells                                     ... done
Starting the XC term evaluation                    ... done (   0.2 sec)
  promolecular density results
     # of electrons  =     42.000646467
     EX              =   -119.184480489
     EC              =     -2.117270469
     EX+EC           =   -121.301750958
Transforming the Hamiltonian                       ... done (   0.2 sec)
Diagonalizing the Hamiltonian                      ... done (   0.0 sec)
Back transforming the eigenvectors                 ... done (   0.0 sec)
Now organizing SCF variables                       ... done
                      ------------------
                      INITIAL GUESS DONE (   5.4 sec)
                      ------------------
-------------------
DFT GRID GENERATION
-------------------

General Integration Accuracy     IntAcc      ... 4.388
Radial Grid Type                 RadialGrid  ... OptM3 with GC (2021)
Angular Grid (max. ang.)         AngularGrid ... 4 (Lebedev-302)
Angular grid pruning method      GridPruning ... 4 (adaptive)
Weight generation scheme         WeightScheme... Becke
Basis function cutoff            BFCut       ... 1.0000e-12
Integration weight cutoff        WCut        ... 1.0000e-14
Angular grids for H and He will be reduced by one unit
Partially contracted basis set               ... off
Rotationally invariant grid construction     ... off

Total number of grid points                  ...    27544
Total number of batches                      ...      431
Average number of points per batch           ...       63
Average number of grid points per atom       ...    27544
Time for grid setup =    0.741 sec

--------------
SCF ITERATIONS
--------------
ITER       Energy         Delta-E        Max-DP      RMS-DP      [F,P]     Damp
               ***  Starting incremental Fock matrix formation  ***
  0  -3926.9714843970   0.000000000000 0.01956630  0.00035683  0.2211990 0.7000
  1  -3926.9789497060  -0.007465309035 0.01623517  0.00031336  0.1549665 0.7000
                               ***Turning on DIIS***
  2  -3926.9826214512  -0.003671745231 0.01148708  0.00020351  0.1084233 0.7000
  3  -3926.9846299152  -0.002008463941 0.02348850  0.00031655  0.0756997 0.0000
  4  -3926.9889682963  -0.004338381142 0.00246073  0.00006954  0.0116401 0.0000
  5  -3926.9890831284  -0.000114832056 0.00181887  0.00003278  0.0055880 0.0000
                      *** Initiating the SOSCF procedure ***
                           *** Shutting down DIIS ***
                      *** Re-Reading the Fockian *** 
                      *** Removing any level shift *** 
ITER      Energy       Delta-E        Grad      Rot      Max-DP    RMS-DP
  6  -3926.98913825  -0.0000551189  0.000218  0.000218  0.000673  0.000014
               *** Restarting incremental Fock matrix formation ***
  7  -3926.98913868  -0.0000004352  0.000193  0.000453  0.000564  0.000010
  8  -3926.98913827   0.0000004149  0.000283  0.000249  0.000320  0.000006
  9  -3926.98913906  -0.0000007880  0.000012  0.000013  0.000013  0.000000
 10  -3926.98913906  -0.0000000004  0.000005  0.000004  0.000003  0.000000
                  ***Gradient check signals convergence***
              ***Rediagonalizing the Fockian in SOSCF/NRSCF***

               *****************************************************
               *                     SUCCESS                       *
               *           SCF CONVERGED AFTER  11 CYCLES          *
               *****************************************************


----------------
TOTAL SCF ENERGY
----------------

Total Energy       :        -3926.98913906 Eh         -106858.80707 eV

Components:
Nuclear Repulsion  :            0.00000000 Eh               0.00000 eV
Electronic Energy  :        -3926.98913906 Eh         -106858.80707 eV
One Electron Energy:        -5452.80175614 Eh         -148378.27919 eV
Two Electron Energy:         1525.81261708 Eh           41519.47212 eV

Virial components:
Potential Energy   :        -8346.78342137 Eh         -227127.52384 eV
Kinetic Energy     :         4419.79428232 Eh          120268.71677 eV
Virial Ratio       :            1.88850043


DFT components:
N(Alpha)           :       23.999999997718 electrons
N(Beta)            :       18.000000000785 electrons
N(Total)           :       41.999999998503 electrons
E(X)               :     -121.696654403360 Eh       
E(C)               :       -2.072925567287 Eh       
E(XC)              :     -123.769579970647 Eh       
DFET-embed. en.    :        0.000000000000 Eh       

---------------
SCF CONVERGENCE
---------------

  Last Energy change         ...   -6.0027e-11  Tolerance :   1.0000e-09
  Last MAX-Density change    ...    8.7758e-08  Tolerance :   1.0000e-08
  Last RMS-Density change    ...    8.2732e-10  Tolerance :   1.0000e-09
  Last Orbital Gradient      ...    6.2472e-08  Tolerance :   2.0000e-06
  Last Orbital Rotation      ...    9.0599e-08  Tolerance :   2.0000e-06

             **** THE GBW FILE WAS UPDATED (Mo_ano-r3_pbe.gbw) ****
             **** DENSITY Mo_ano-r3_pbe.scfp WAS UPDATED ****
             **** ENERGY FILE WAS UPDATED (Mo_ano-r3_pbe.en.tmp) ****
----------------------
UHF SPIN CONTAMINATION
----------------------

Warning: in a DFT calculation there is little theoretical justification to 
         calculate <S**2> as in Hartree-Fock theory. We will do it anyways
         but you should keep in mind that the values have only limited relevance

Expectation value of <S**2>     :    12.000479
Ideal value S*(S+1) for S=3.0   :    12.000000
Deviation                       :     0.000479

             **** THE GBW FILE WAS UPDATED (Mo_ano-r3_pbe.gbw) ****
             **** DENSITY Mo_ano-r3_pbe.scfp WAS UPDATED ****
----------------
ORBITAL ENERGIES
----------------
                 SPIN UP ORBITALS
  NO   OCC          E(Eh)            E(eV) 
   0   1.0000    -687.153114    -18698.3868 
   1   1.0000     -94.912056     -2582.6883 
   2   1.0000     -90.173861     -2453.7555 
   3   1.0000     -90.173861     -2453.7555 
   4   1.0000     -90.173861     -2453.7555 
   5   1.0000     -15.963366      -434.3853 
   6   1.0000     -13.665423      -371.8551 
   7   1.0000     -13.665423      -371.8551 
   8   1.0000     -13.665423      -371.8551 
   9   1.0000      -8.261771      -224.8142 
  10   1.0000      -8.261771      -224.8142 
  11   1.0000      -8.261771      -224.8142 
  12   1.0000      -8.261771      -224.8142 
  13   1.0000      -8.261771      -224.8142 
  14   1.0000      -2.134862       -58.0926 
  15   1.0000      -1.413589       -38.4657 
  16   1.0000      -1.413589       -38.4657 
  17   1.0000      -1.413589       -38.4657 
  18   1.0000      -0.183033        -4.9806 
  19   1.0000      -0.183033        -4.9806 
  20   1.0000      -0.183033        -4.9806 
  21   1.0000      -0.183033        -4.9806 
  22   1.0000      -0.183033        -4.9806 
  23   1.0000      -0.147323        -4.0089 
  24   0.0000       0.001166         0.0317 
  25   0.0000       0.001166         0.0317 
  26   0.0000       0.001166         0.0317 
  27   0.0000       0.004836         0.1316 
  28   0.0000       0.064165         1.7460 
  29   0.0000       0.064165         1.7460 
  30   0.0000       0.064165         1.7460 
  31   0.0000       0.064165         1.7460 
  32   0.0000       0.064165         1.7460 
  33   0.0000       0.258315         7.0291 
  34   0.0000       0.441663        12.0183 
  35   0.0000       0.441663        12.0183 
  36   0.0000       0.441663        12.0183 
  37   0.0000       0.441663        12.0183 
  38   0.0000       0.441663        12.0183 
  39   0.0000       0.479201        13.0397 
  40   0.0000       0.479201        13.0397 
  41   0.0000       0.479201        13.0397 
  42   0.0000       0.479201        13.0397 
  43   0.0000       0.479201        13.0397 
  44   0.0000       0.479201        13.0397 
  45   0.0000       0.479201        13.0397 
  46   0.0000       0.896970        24.4078 
  47   0.0000       0.896970        24.4078 
  48   0.0000       0.896970        24.4078 
  49   0.0000       1.489985        40.5445 
  50   0.0000       1.489985        40.5445 
  51   0.0000       1.489985        40.5445 
  52   0.0000       1.489985        40.5445 
  53   0.0000       1.489985        40.5445 
  54   0.0000       1.489985        40.5445 
  55   0.0000       1.489985        40.5445 
  56   0.0000       1.722165        46.8625 
  57   0.0000       1.722165        46.8625 
  58   0.0000       1.722165        46.8625 
  59   0.0000       1.722165        46.8625 
  60   0.0000       1.722165        46.8625 
  61   0.0000       1.722165        46.8625 
  62   0.0000       1.722165        46.8625 
  63   0.0000       1.722165        46.8625 
  64   0.0000       1.722165        46.8625 
  65   0.0000       2.138593        58.1941 
  66   0.0000       2.138593        58.1941 
  67   0.0000       2.138593        58.1941 
  68   0.0000       2.138593        58.1941 
  69   0.0000       2.138593        58.1941 
  70   0.0000       2.579849        70.2013 
  71   0.0000       4.043662       110.0336 
  72   0.0000       4.043662       110.0336 
  73   0.0000       4.043662       110.0336 
  74   0.0000       4.043662       110.0336 
  75   0.0000       4.043662       110.0336 
  76   0.0000       4.043662       110.0336 
  77   0.0000       4.043662       110.0336 
  78   0.0000       5.066893       137.8772 
  79   0.0000       5.066893       137.8772 
  80   0.0000       5.066893       137.8772 
  81   0.0000       5.386279       146.5681 
  82   0.0000       5.386279       146.5681 
  83   0.0000       5.386279       146.5681 
  84   0.0000       5.386279       146.5681 
  85   0.0000       5.386279       146.5681 
  86   0.0000       5.386279       146.5681 
  87   0.0000       5.386279       146.5681 
  88   0.0000       5.386279       146.5681 
  89   0.0000       5.386279       146.5681 
  90   0.0000       5.472546       148.9155 
  91   0.0000       5.472546       148.9155 
  92   0.0000       5.472546       148.9155 
  93   0.0000       5.472546       148.9155 
  94   0.0000       5.472546       148.9155 
  95   0.0000       5.472546       148.9155 
  96   0.0000       5.472546       148.9155 
  97   0.0000       5.472546       148.9155 
  98   0.0000       5.472546       148.9155 
  99   0.0000       5.472546       148.9155 
 100   0.0000       5.472546       148.9155 

                 SPIN DOWN ORBITALS
  NO   OCC          E(Eh)            E(eV) 
   0   1.0000    -687.152877    -18698.3804 
   1   1.0000     -94.894440     -2582.2090 
   2   1.0000     -90.160878     -2453.4022 
   3   1.0000     -90.160878     -2453.4022 
   4   1.0000     -90.160878     -2453.4022 
   5   1.0000     -15.952798      -434.0977 
   6   1.0000     -13.654210      -371.5499 
   7   1.0000     -13.654210      -371.5499 
   8   1.0000     -13.654210      -371.5499 
   9   1.0000      -8.244944      -224.3563 
  10   1.0000      -8.244944      -224.3563 
  11   1.0000      -8.244944      -224.3563 
  12   1.0000      -8.244944      -224.3563 
  13   1.0000      -8.244944      -224.3563 
  14   1.0000      -2.027456       -55.1699 
  15   1.0000      -1.300364       -35.3847 
  16   1.0000      -1.300364       -35.3847 
  17   1.0000      -1.300364       -35.3847 
  18   0.0000      -0.060244        -1.6393 
  19   0.0000      -0.060244        -1.6393 
  20   0.0000      -0.060244        -1.6393 
  21   0.0000      -0.060244        -1.6393 
  22   0.0000      -0.060244        -1.6393 
  23   0.0000      -0.049973        -1.3598 
  24   0.0000       0.041110         1.1187 
  25   0.0000       0.103100         2.8055 
  26   0.0000       0.103100         2.8055 
  27   0.0000       0.103100         2.8055 
  28   0.0000       0.127872         3.4796 
  29   0.0000       0.127872         3.4796 
  30   0.0000       0.127872         3.4796 
  31   0.0000       0.127872         3.4796 
  32   0.0000       0.127872         3.4796 
  33   0.0000       0.346795         9.4368 
  34   0.0000       0.537207        14.6181 
  35   0.0000       0.537207        14.6181 
  36   0.0000       0.537207        14.6181 
  37   0.0000       0.537207        14.6181 
  38   0.0000       0.537207        14.6181 
  39   0.0000       0.586411        15.9571 
  40   0.0000       0.586411        15.9571 
  41   0.0000       0.586411        15.9571 
  42   0.0000       0.586411        15.9571 
  43   0.0000       0.586411        15.9571 
  44   0.0000       0.586411        15.9571 
  45   0.0000       0.586411        15.9571 
  46   0.0000       1.010506        27.4973 
  47   0.0000       1.010506        27.4973 
  48   0.0000       1.010506        27.4973 
  49   0.0000       1.624011        44.1916 
  50   0.0000       1.624011        44.1916 
  51   0.0000       1.624011        44.1916 
  52   0.0000       1.624011        44.1916 
  53   0.0000       1.624011        44.1916 
  54   0.0000       1.624011        44.1916 
  55   0.0000       1.624011        44.1916 
  56   0.0000       1.847267        50.2667 
  57   0.0000       1.847267        50.2667 
  58   0.0000       1.847267        50.2667 
  59   0.0000       1.847267        50.2667 
  60   0.0000       1.847267        50.2667 
  61   0.0000       1.847267        50.2667 
  62   0.0000       1.847267        50.2667 
  63   0.0000       1.847267        50.2667 
  64   0.0000       1.847267        50.2667 
  65   0.0000       2.233318        60.7717 
  66   0.0000       2.233318        60.7717 
  67   0.0000       2.233318        60.7717 
  68   0.0000       2.233318        60.7717 
  69   0.0000       2.233318        60.7717 
  70   0.0000       2.670358        72.6641 
  71   0.0000       4.142845       112.7325 
  72   0.0000       4.142845       112.7325 
  73   0.0000       4.142845       112.7325 
  74   0.0000       4.142845       112.7325 
  75   0.0000       4.142845       112.7325 
  76   0.0000       4.142845       112.7325 
  77   0.0000       4.142845       112.7325 
  78   0.0000       5.143149       139.9522 
  79   0.0000       5.143149       139.9522 
  80   0.0000       5.143149       139.9522 
  81   0.0000       5.504214       149.7773 
  82   0.0000       5.504214       149.7773 
  83   0.0000       5.504214       149.7773 
  84   0.0000       5.504214       149.7773 
  85   0.0000       5.504214       149.7773 
  86   0.0000       5.504214       149.7773 
  87   0.0000       5.504214       149.7773 
  88   0.0000       5.504214       149.7773 
  89   0.0000       5.504214       149.7773 
  90   0.0000       5.612287       152.7181 
  91   0.0000       5.612287       152.7181 
  92   0.0000       5.612287       152.7181 
  93   0.0000       5.612287       152.7181 
  94   0.0000       5.612287       152.7181 
  95   0.0000       5.612287       152.7181 
  96   0.0000       5.612287       152.7181 
  97   0.0000       5.612287       152.7181 
  98   0.0000       5.612287       152.7181 
  99   0.0000       5.612287       152.7181 
 100   0.0000       5.612287       152.7181 

                    ********************************
                    * MULLIKEN POPULATION ANALYSIS *
                    ********************************

--------------------------------------------
MULLIKEN ATOMIC CHARGES AND SPIN POPULATIONS
--------------------------------------------
   0 Mo:    0.000000    6.000000
Sum of atomic charges         :    0.0000000
Sum of atomic spin populations:    6.0000000

-----------------------------------------------------
MULLIKEN REDUCED ORBITAL CHARGES AND SPIN POPULATIONS
-----------------------------------------------------
CHARGE
  0 Mos       :     9.000000  s :     9.000000
      pz      :     6.000000  p :    18.000000
      px      :     6.000000
      py      :     6.000000
      dz2     :     3.000000  d :    15.000000
      dxz     :     3.000000
      dyz     :     3.000000
      dx2y2   :     3.000000
      dxy     :     3.000000
      f0      :     0.000000  f :     0.000000
      f+1     :     0.000000
      f-1     :     0.000000
      f+2     :     0.000000
      f-2     :     0.000000
      f+3     :     0.000000
      f-3     :     0.000000
      g0      :     0.000000  g :     0.000000
      g+1     :     0.000000
      g-1     :     0.000000
      g+2     :     0.000000
      g-2     :     0.000000
      g+3     :     0.000000
      g-3     :     0.000000
      g+4     :     0.000000
      g-4     :     0.000000
      h0      :     0.000000  h :     0.000000
      h+1     :     0.000000
      h-1     :     0.000000
      h+2     :     0.000000
      h-2     :     0.000000
      h+3     :     0.000000
      h-3     :     0.000000
      h+4     :     0.000000
      h-4     :     0.000000
      h+5     :     0.000000
      h-5     :     0.000000

SPIN
  0 Mos       :     1.000000  s :     1.000000
      pz      :     0.000000  p :     0.000000
      px      :     0.000000
      py      :     0.000000
      dz2     :     1.000000  d :     5.000000
      dxz     :     1.000000
      dyz     :     1.000000
      dx2y2   :     1.000000
      dxy     :     1.000000
      f0      :     0.000000  f :     0.000000
      f+1     :     0.000000
      f-1     :     0.000000
      f+2     :     0.000000
      f-2     :     0.000000
      f+3     :     0.000000
      f-3     :     0.000000
      g0      :     0.000000  g :     0.000000
      g+1     :     0.000000
      g-1     :     0.000000
      g+2     :     0.000000
      g-2     :     0.000000
      g+3     :     0.000000
      g-3     :     0.000000
      g+4     :     0.000000
      g-4     :     0.000000
      h0      :     0.000000  h :     0.000000
      h+1     :     0.000000
      h-1     :     0.000000
      h+2     :     0.000000
      h-2     :     0.000000
      h+3     :     0.000000
      h-3     :     0.000000
      h+4     :     0.000000
      h-4     :     0.000000
      h+5     :     0.000000
      h-5     :     0.000000


                     *******************************
                     * LOEWDIN POPULATION ANALYSIS *
                     *******************************

-------------------------------------------
LOEWDIN ATOMIC CHARGES AND SPIN POPULATIONS
-------------------------------------------
   0 Mo:   -0.000000    6.000000

----------------------------------------------------
LOEWDIN REDUCED ORBITAL CHARGES AND SPIN POPULATIONS
----------------------------------------------------
CHARGE
  0 Mos       :     9.000000  s :     9.000000
      pz      :     6.000000  p :    18.000000
      px      :     6.000000
      py      :     6.000000
      dz2     :     3.000000  d :    15.000000
      dxz     :     3.000000
      dyz     :     3.000000
      dx2y2   :     3.000000
      dxy     :     3.000000
      f0      :     0.000000  f :     0.000000
      f+1     :     0.000000
      f-1     :     0.000000
      f+2     :     0.000000
      f-2     :     0.000000
      f+3     :     0.000000
      f-3     :     0.000000
      g0      :     0.000000  g :     0.000000
      g+1     :     0.000000
      g-1     :     0.000000
      g+2     :     0.000000
      g-2     :     0.000000
      g+3     :     0.000000
      g-3     :     0.000000
      g+4     :     0.000000
      g-4     :     0.000000
      h0      :     0.000000  h :     0.000000
      h+1     :     0.000000
      h-1     :     0.000000
      h+2     :     0.000000
      h-2     :     0.000000
      h+3     :     0.000000
      h-3     :     0.000000
      h+4     :     0.000000
      h-4     :     0.000000
      h+5     :     0.000000
      h-5     :     0.000000

SPIN
  0 Mos       :     1.000000  s :     1.000000
      pz      :     0.000000  p :     0.000000
      px      :     0.000000
      py      :     0.000000
      dz2     :     1.000000  d :     5.000000
      dxz     :     1.000000
      dyz     :     1.000000
      dx2y2   :     1.000000
      dxy     :     1.000000
      f0      :     0.000000  f :     0.000000
      f+1     :     0.000000
      f-1     :     0.000000
      f+2     :     0.000000
      f-2     :     0.000000
      f+3     :     0.000000
      f-3     :     0.000000
      g0      :     0.000000  g :     0.000000
      g+1     :     0.000000
      g-1     :     0.000000
      g+2     :     0.000000
      g-2     :     0.000000
      g+3     :     0.000000
      g-3     :     0.000000
      g+4     :     0.000000
      g-4     :     0.000000
      h0      :     0.000000  h :     0.000000
      h+1     :     0.000000
      h-1     :     0.000000
      h+2     :     0.000000
      h-2     :     0.000000
      h+3     :     0.000000
      h-3     :     0.000000
      h+4     :     0.000000
      h-4     :     0.000000
      h+5     :     0.000000
      h-5     :     0.000000


                      *****************************
                      * MAYER POPULATION ANALYSIS *
                      *****************************

  NA   - Mulliken gross atomic population
  ZA   - Total nuclear charge
  QA   - Mulliken gross atomic charge
  VA   - Mayer's total valence
  BVA  - Mayer's bonded valence
  FA   - Mayer's free valence

  ATOM       NA         ZA         QA         VA         BVA        FA
  0 Mo    42.0000    42.0000    -0.0000     6.0010     0.0000     6.0010

  Mayer bond orders larger than 0.100000


-------
TIMINGS
-------

Total SCF time: 0 days 0 hours 14 min 25 sec 

Total time                  ....     865.226 sec
Sum of individual times     ....     863.266 sec  ( 99.8%)

Fock matrix formation       ....     855.272 sec  ( 98.8%)
  XC integration            ....       4.151 sec  (  0.5% of F)
    Basis function eval.    ....       0.088 sec  (  2.1% of XC)
    Density eval.           ....       0.095 sec  (  2.3% of XC)
    XC-Functional eval.     ....       0.037 sec  (  0.9% of XC)
    XC-Potential eval.      ....       0.066 sec  (  1.6% of XC)
Diagonalization             ....       0.658 sec  (  0.1%)
Density matrix formation    ....       0.034 sec  (  0.0%)
Population analysis         ....       0.151 sec  (  0.0%)
Initial guess               ....       3.257 sec  (  0.4%)
Orbital Transformation      ....       0.000 sec  (  0.0%)
Orbital Orthonormalization  ....       0.000 sec  (  0.0%)
DIIS solution               ....       0.894 sec  (  0.1%)
SOSCF solution              ....       0.110 sec  (  0.0%)
Grid generation             ....       2.891 sec  (  0.3%)

Maximum memory used throughout the entire SCF-calculation: 264.1 MB

-------------------------   --------------------
FINAL SINGLE POINT ENERGY     -3926.989139055939
-------------------------   --------------------

MakePlots. Basename = [Mo_ano-r3_pbe]

---------------
PLOT GENERATION
---------------
choosing x-range =    -7.000000 ..     7.000000
choosing y-range =    -7.000000 ..     7.000000
choosing z-range =    -7.000000 ..     7.000000


           ************************************************************
           *        Program running with 32 parallel MPI-processes    *
           *              working on a common directory               *
           ************************************************************

GBW-File       ... Mo_ano-r3_pbe.gbw
PlotType       ... MO-PLOT
MO/Operator    ... 0 0
Output file    ... Mo_ano-r3_pbe_phi_a_scf_0_re.cube
Format         ... Gaussian-Cube
Resolution     ... 120 120 120
Boundaries     ...    -7.000000     7.000000 (x direction)
                      -7.000000     7.000000 (y direction)
                      -7.000000     7.000000 (z direction)
Entering PlotGrid3d with Plottype =1
choosing x-range =    -7.000000 ..     7.000000
choosing y-range =    -7.000000 ..     7.000000
choosing z-range =    -7.000000 ..     7.000000


           ************************************************************
           *        Program running with 32 parallel MPI-processes    *
           *              working on a common directory               *
           ************************************************************

GBW-File       ... Mo_ano-r3_pbe.gbw
PlotType       ... MO-PLOT
MO/Operator    ... 1 0
Output file    ... Mo_ano-r3_pbe_phi_a_scf_1_re.cube
Format         ... Gaussian-Cube
Resolution     ... 120 120 120
Boundaries     ...    -7.000000     7.000000 (x direction)
                      -7.000000     7.000000 (y direction)
                      -7.000000     7.000000 (z direction)
Entering PlotGrid3d with Plottype =1
choosing x-range =    -7.000000 ..     7.000000
choosing y-range =    -7.000000 ..     7.000000
choosing z-range =    -7.000000 ..     7.000000


           ************************************************************
           *        Program running with 32 parallel MPI-processes    *
           *              working on a common directory               *
           ************************************************************

GBW-File       ... Mo_ano-r3_pbe.gbw
PlotType       ... MO-PLOT
MO/Operator    ... 2 0
Output file    ... Mo_ano-r3_pbe_phi_a_scf_2_re.cube
Format         ... Gaussian-Cube
Resolution     ... 120 120 120
Boundaries     ...    -7.000000     7.000000 (x direction)
                      -7.000000     7.000000 (y direction)
                      -7.000000     7.000000 (z direction)
Entering PlotGrid3d with Plottype =1
choosing x-range =    -7.000000 ..     7.000000
choosing y-range =    -7.000000 ..     7.000000
choosing z-range =    -7.000000 ..     7.000000


           ************************************************************
           *        Program running with 32 parallel MPI-processes    *
           *              working on a common directory               *
           ************************************************************

GBW-File       ... Mo_ano-r3_pbe.gbw
PlotType       ... MO-PLOT
MO/Operator    ... 3 0
Output file    ... Mo_ano-r3_pbe_phi_a_scf_3_re.cube
Format         ... Gaussian-Cube
Resolution     ... 120 120 120
Boundaries     ...    -7.000000     7.000000 (x direction)
                      -7.000000     7.000000 (y direction)
                      -7.000000     7.000000 (z direction)
Entering PlotGrid3d with Plottype =1
choosing x-range =    -7.000000 ..     7.000000
choosing y-range =    -7.000000 ..     7.000000
choosing z-range =    -7.000000 ..     7.000000


           ************************************************************
           *        Program running with 32 parallel MPI-processes    *
           *              working on a common directory               *
           ************************************************************

GBW-File       ... Mo_ano-r3_pbe.gbw
PlotType       ... MO-PLOT
MO/Operator    ... 4 0
Output file    ... Mo_ano-r3_pbe_phi_a_scf_4_re.cube
Format         ... Gaussian-Cube
Resolution     ... 120 120 120
Boundaries     ...    -7.000000     7.000000 (x direction)
                      -7.000000     7.000000 (y direction)
                      -7.000000     7.000000 (z direction)
Entering PlotGrid3d with Plottype =1
choosing x-range =    -7.000000 ..     7.000000
choosing y-range =    -7.000000 ..     7.000000
choosing z-range =    -7.000000 ..     7.000000


           ************************************************************
           *        Program running with 32 parallel MPI-processes    *
           *              working on a common directory               *
           ************************************************************

GBW-File       ... Mo_ano-r3_pbe.gbw
PlotType       ... MO-PLOT
MO/Operator    ... 5 0
Output file    ... Mo_ano-r3_pbe_phi_a_scf_5_re.cube
Format         ... Gaussian-Cube
Resolution     ... 120 120 120
Boundaries     ...    -7.000000     7.000000 (x direction)
                      -7.000000     7.000000 (y direction)
                      -7.000000     7.000000 (z direction)
Entering PlotGrid3d with Plottype =1
choosing x-range =    -7.000000 ..     7.000000
choosing y-range =    -7.000000 ..     7.000000
choosing z-range =    -7.000000 ..     7.000000


           ************************************************************
           *        Program running with 32 parallel MPI-processes    *
           *              working on a common directory               *
           ************************************************************

GBW-File       ... Mo_ano-r3_pbe.gbw
PlotType       ... MO-PLOT
MO/Operator    ... 6 0
Output file    ... Mo_ano-r3_pbe_phi_a_scf_6_re.cube
Format         ... Gaussian-Cube
Resolution     ... 120 120 120
Boundaries     ...    -7.000000     7.000000 (x direction)
                      -7.000000     7.000000 (y direction)
                      -7.000000     7.000000 (z direction)
Entering PlotGrid3d with Plottype =1
choosing x-range =    -7.000000 ..     7.000000
choosing y-range =    -7.000000 ..     7.000000
choosing z-range =    -7.000000 ..     7.000000


           ************************************************************
           *        Program running with 32 parallel MPI-processes    *
           *              working on a common directory               *
           ************************************************************

GBW-File       ... Mo_ano-r3_pbe.gbw
PlotType       ... MO-PLOT
MO/Operator    ... 7 0
Output file    ... Mo_ano-r3_pbe_phi_a_scf_7_re.cube
Format         ... Gaussian-Cube
Resolution     ... 120 120 120
Boundaries     ...    -7.000000     7.000000 (x direction)
                      -7.000000     7.000000 (y direction)
                      -7.000000     7.000000 (z direction)
Entering PlotGrid3d with Plottype =1
choosing x-range =    -7.000000 ..     7.000000
choosing y-range =    -7.000000 ..     7.000000
choosing z-range =    -7.000000 ..     7.000000


           ************************************************************
           *        Program running with 32 parallel MPI-processes    *
           *              working on a common directory               *
           ************************************************************

GBW-File       ... Mo_ano-r3_pbe.gbw
PlotType       ... MO-PLOT
MO/Operator    ... 8 0
Output file    ... Mo_ano-r3_pbe_phi_a_scf_8_re.cube
Format         ... Gaussian-Cube
Resolution     ... 120 120 120
Boundaries     ...    -7.000000     7.000000 (x direction)
                      -7.000000     7.000000 (y direction)
                      -7.000000     7.000000 (z direction)
Entering PlotGrid3d with Plottype =1
choosing x-range =    -7.000000 ..     7.000000
choosing y-range =    -7.000000 ..     7.000000
choosing z-range =    -7.000000 ..     7.000000


           ************************************************************
           *        Program running with 32 parallel MPI-processes    *
           *              working on a common directory               *
           ************************************************************

GBW-File       ... Mo_ano-r3_pbe.gbw
PlotType       ... MO-PLOT
MO/Operator    ... 9 0
Output file    ... Mo_ano-r3_pbe_phi_a_scf_9_re.cube
Format         ... Gaussian-Cube
Resolution     ... 120 120 120
Boundaries     ...    -7.000000     7.000000 (x direction)
                      -7.000000     7.000000 (y direction)
                      -7.000000     7.000000 (z direction)
Entering PlotGrid3d with Plottype =1
choosing x-range =    -7.000000 ..     7.000000
choosing y-range =    -7.000000 ..     7.000000
choosing z-range =    -7.000000 ..     7.000000


           ************************************************************
           *        Program running with 32 parallel MPI-processes    *
           *              working on a common directory               *
           ************************************************************

GBW-File       ... Mo_ano-r3_pbe.gbw
PlotType       ... MO-PLOT
MO/Operator    ... 10 0
Output file    ... Mo_ano-r3_pbe_phi_a_scf_10_re.cube
Format         ... Gaussian-Cube
Resolution     ... 120 120 120
Boundaries     ...    -7.000000     7.000000 (x direction)
                      -7.000000     7.000000 (y direction)
                      -7.000000     7.000000 (z direction)
Entering PlotGrid3d with Plottype =1
choosing x-range =    -7.000000 ..     7.000000
choosing y-range =    -7.000000 ..     7.000000
choosing z-range =    -7.000000 ..     7.000000


           ************************************************************
           *        Program running with 32 parallel MPI-processes    *
           *              working on a common directory               *
           ************************************************************

GBW-File       ... Mo_ano-r3_pbe.gbw
PlotType       ... MO-PLOT
MO/Operator    ... 11 0
Output file    ... Mo_ano-r3_pbe_phi_a_scf_11_re.cube
Format         ... Gaussian-Cube
Resolution     ... 120 120 120
Boundaries     ...    -7.000000     7.000000 (x direction)
                      -7.000000     7.000000 (y direction)
                      -7.000000     7.000000 (z direction)
Entering PlotGrid3d with Plottype =1
choosing x-range =    -7.000000 ..     7.000000
choosing y-range =    -7.000000 ..     7.000000
choosing z-range =    -7.000000 ..     7.000000


           ************************************************************
           *        Program running with 32 parallel MPI-processes    *
           *              working on a common directory               *
           ************************************************************

GBW-File       ... Mo_ano-r3_pbe.gbw
PlotType       ... MO-PLOT
MO/Operator    ... 12 0
Output file    ... Mo_ano-r3_pbe_phi_a_scf_12_re.cube
Format         ... Gaussian-Cube
Resolution     ... 120 120 120
Boundaries     ...    -7.000000     7.000000 (x direction)
                      -7.000000     7.000000 (y direction)
                      -7.000000     7.000000 (z direction)
Entering PlotGrid3d with Plottype =1
choosing x-range =    -7.000000 ..     7.000000
choosing y-range =    -7.000000 ..     7.000000
choosing z-range =    -7.000000 ..     7.000000


           ************************************************************
           *        Program running with 32 parallel MPI-processes    *
           *              working on a common directory               *
           ************************************************************

GBW-File       ... Mo_ano-r3_pbe.gbw
PlotType       ... MO-PLOT
MO/Operator    ... 13 0
Output file    ... Mo_ano-r3_pbe_phi_a_scf_13_re.cube
Format         ... Gaussian-Cube
Resolution     ... 120 120 120
Boundaries     ...    -7.000000     7.000000 (x direction)
                      -7.000000     7.000000 (y direction)
                      -7.000000     7.000000 (z direction)
Entering PlotGrid3d with Plottype =1
choosing x-range =    -7.000000 ..     7.000000
choosing y-range =    -7.000000 ..     7.000000
choosing z-range =    -7.000000 ..     7.000000


           ************************************************************
           *        Program running with 32 parallel MPI-processes    *
           *              working on a common directory               *
           ************************************************************

GBW-File       ... Mo_ano-r3_pbe.gbw
PlotType       ... MO-PLOT
MO/Operator    ... 14 0
Output file    ... Mo_ano-r3_pbe_phi_a_scf_14_re.cube
Format         ... Gaussian-Cube
Resolution     ... 120 120 120
Boundaries     ...    -7.000000     7.000000 (x direction)
                      -7.000000     7.000000 (y direction)
                      -7.000000     7.000000 (z direction)
Entering PlotGrid3d with Plottype =1
choosing x-range =    -7.000000 ..     7.000000
choosing y-range =    -7.000000 ..     7.000000
choosing z-range =    -7.000000 ..     7.000000


           ************************************************************
           *        Program running with 32 parallel MPI-processes    *
           *              working on a common directory               *
           ************************************************************

GBW-File       ... Mo_ano-r3_pbe.gbw
PlotType       ... MO-PLOT
MO/Operator    ... 15 0
Output file    ... Mo_ano-r3_pbe_phi_a_scf_15_re.cube
Format         ... Gaussian-Cube
Resolution     ... 120 120 120
Boundaries     ...    -7.000000     7.000000 (x direction)
                      -7.000000     7.000000 (y direction)
                      -7.000000     7.000000 (z direction)
Entering PlotGrid3d with Plottype =1
choosing x-range =    -7.000000 ..     7.000000
choosing y-range =    -7.000000 ..     7.000000
choosing z-range =    -7.000000 ..     7.000000


           ************************************************************
           *        Program running with 32 parallel MPI-processes    *
           *              working on a common directory               *
           ************************************************************

GBW-File       ... Mo_ano-r3_pbe.gbw
PlotType       ... MO-PLOT
MO/Operator    ... 16 0
Output file    ... Mo_ano-r3_pbe_phi_a_scf_16_re.cube
Format         ... Gaussian-Cube
Resolution     ... 120 120 120
Boundaries     ...    -7.000000     7.000000 (x direction)
                      -7.000000     7.000000 (y direction)
                      -7.000000     7.000000 (z direction)
Entering PlotGrid3d with Plottype =1
choosing x-range =    -7.000000 ..     7.000000
choosing y-range =    -7.000000 ..     7.000000
choosing z-range =    -7.000000 ..     7.000000


           ************************************************************
           *        Program running with 32 parallel MPI-processes    *
           *              working on a common directory               *
           ************************************************************

GBW-File       ... Mo_ano-r3_pbe.gbw
PlotType       ... MO-PLOT
MO/Operator    ... 17 0
Output file    ... Mo_ano-r3_pbe_phi_a_scf_17_re.cube
Format         ... Gaussian-Cube
Resolution     ... 120 120 120
Boundaries     ...    -7.000000     7.000000 (x direction)
                      -7.000000     7.000000 (y direction)
                      -7.000000     7.000000 (z direction)
Entering PlotGrid3d with Plottype =1
choosing x-range =    -7.000000 ..     7.000000
choosing y-range =    -7.000000 ..     7.000000
choosing z-range =    -7.000000 ..     7.000000


           ************************************************************
           *        Program running with 32 parallel MPI-processes    *
           *              working on a common directory               *
           ************************************************************

GBW-File       ... Mo_ano-r3_pbe.gbw
PlotType       ... MO-PLOT
MO/Operator    ... 18 0
Output file    ... Mo_ano-r3_pbe_phi_a_scf_18_re.cube
Format         ... Gaussian-Cube
Resolution     ... 120 120 120
Boundaries     ...    -7.000000     7.000000 (x direction)
                      -7.000000     7.000000 (y direction)
                      -7.000000     7.000000 (z direction)
Entering PlotGrid3d with Plottype =1
choosing x-range =    -7.000000 ..     7.000000
choosing y-range =    -7.000000 ..     7.000000
choosing z-range =    -7.000000 ..     7.000000


           ************************************************************
           *        Program running with 32 parallel MPI-processes    *
           *              working on a common directory               *
           ************************************************************

GBW-File       ... Mo_ano-r3_pbe.gbw
PlotType       ... MO-PLOT
MO/Operator    ... 19 0
Output file    ... Mo_ano-r3_pbe_phi_a_scf_19_re.cube
Format         ... Gaussian-Cube
Resolution     ... 120 120 120
Boundaries     ...    -7.000000     7.000000 (x direction)
                      -7.000000     7.000000 (y direction)
                      -7.000000     7.000000 (z direction)
Entering PlotGrid3d with Plottype =1
choosing x-range =    -7.000000 ..     7.000000
choosing y-range =    -7.000000 ..     7.000000
choosing z-range =    -7.000000 ..     7.000000


           ************************************************************
           *        Program running with 32 parallel MPI-processes    *
           *              working on a common directory               *
           ************************************************************

GBW-File       ... Mo_ano-r3_pbe.gbw
PlotType       ... MO-PLOT
MO/Operator    ... 20 0
Output file    ... Mo_ano-r3_pbe_phi_a_scf_20_re.cube
Format         ... Gaussian-Cube
Resolution     ... 120 120 120
Boundaries     ...    -7.000000     7.000000 (x direction)
                      -7.000000     7.000000 (y direction)
                      -7.000000     7.000000 (z direction)
Entering PlotGrid3d with Plottype =1
choosing x-range =    -7.000000 ..     7.000000
choosing y-range =    -7.000000 ..     7.000000
choosing z-range =    -7.000000 ..     7.000000


           ************************************************************
           *        Program running with 32 parallel MPI-processes    *
           *              working on a common directory               *
           ************************************************************

GBW-File       ... Mo_ano-r3_pbe.gbw
PlotType       ... MO-PLOT
MO/Operator    ... 21 0
Output file    ... Mo_ano-r3_pbe_phi_a_scf_21_re.cube
Format         ... Gaussian-Cube
Resolution     ... 120 120 120
Boundaries     ...    -7.000000     7.000000 (x direction)
                      -7.000000     7.000000 (y direction)
                      -7.000000     7.000000 (z direction)
Entering PlotGrid3d with Plottype =1
choosing x-range =    -7.000000 ..     7.000000
choosing y-range =    -7.000000 ..     7.000000
choosing z-range =    -7.000000 ..     7.000000


           ************************************************************
           *        Program running with 32 parallel MPI-processes    *
           *              working on a common directory               *
           ************************************************************

GBW-File       ... Mo_ano-r3_pbe.gbw
PlotType       ... MO-PLOT
MO/Operator    ... 22 0
Output file    ... Mo_ano-r3_pbe_phi_a_scf_22_re.cube
Format         ... Gaussian-Cube
Resolution     ... 120 120 120
Boundaries     ...    -7.000000     7.000000 (x direction)
                      -7.000000     7.000000 (y direction)
                      -7.000000     7.000000 (z direction)
Entering PlotGrid3d with Plottype =1
choosing x-range =    -7.000000 ..     7.000000
choosing y-range =    -7.000000 ..     7.000000
choosing z-range =    -7.000000 ..     7.000000


           ************************************************************
           *        Program running with 32 parallel MPI-processes    *
           *              working on a common directory               *
           ************************************************************

GBW-File       ... Mo_ano-r3_pbe.gbw
PlotType       ... MO-PLOT
MO/Operator    ... 23 0
Output file    ... Mo_ano-r3_pbe_phi_a_scf_23_re.cube
Format         ... Gaussian-Cube
Resolution     ... 120 120 120
Boundaries     ...    -7.000000     7.000000 (x direction)
                      -7.000000     7.000000 (y direction)
                      -7.000000     7.000000 (z direction)
Entering PlotGrid3d with Plottype =1
choosing x-range =    -7.000000 ..     7.000000
choosing y-range =    -7.000000 ..     7.000000
choosing z-range =    -7.000000 ..     7.000000


           ************************************************************
           *        Program running with 32 parallel MPI-processes    *
           *              working on a common directory               *
           ************************************************************

GBW-File       ... Mo_ano-r3_pbe.gbw
PlotType       ... MO-PLOT
MO/Operator    ... 0 1
Output file    ... Mo_ano-r3_pbe_phi_b_scf_0_re.cube
Format         ... Gaussian-Cube
Resolution     ... 120 120 120
Boundaries     ...    -7.000000     7.000000 (x direction)
                      -7.000000     7.000000 (y direction)
                      -7.000000     7.000000 (z direction)
Entering PlotGrid3d with Plottype =1
choosing x-range =    -7.000000 ..     7.000000
choosing y-range =    -7.000000 ..     7.000000
choosing z-range =    -7.000000 ..     7.000000


           ************************************************************
           *        Program running with 32 parallel MPI-processes    *
           *              working on a common directory               *
           ************************************************************

GBW-File       ... Mo_ano-r3_pbe.gbw
PlotType       ... MO-PLOT
MO/Operator    ... 1 1
Output file    ... Mo_ano-r3_pbe_phi_b_scf_1_re.cube
Format         ... Gaussian-Cube
Resolution     ... 120 120 120
Boundaries     ...    -7.000000     7.000000 (x direction)
                      -7.000000     7.000000 (y direction)
                      -7.000000     7.000000 (z direction)
Entering PlotGrid3d with Plottype =1
choosing x-range =    -7.000000 ..     7.000000
choosing y-range =    -7.000000 ..     7.000000
choosing z-range =    -7.000000 ..     7.000000


           ************************************************************
           *        Program running with 32 parallel MPI-processes    *
           *              working on a common directory               *
           ************************************************************

GBW-File       ... Mo_ano-r3_pbe.gbw
PlotType       ... MO-PLOT
MO/Operator    ... 2 1
Output file    ... Mo_ano-r3_pbe_phi_b_scf_2_re.cube
Format         ... Gaussian-Cube
Resolution     ... 120 120 120
Boundaries     ...    -7.000000     7.000000 (x direction)
                      -7.000000     7.000000 (y direction)
                      -7.000000     7.000000 (z direction)
Entering PlotGrid3d with Plottype =1
choosing x-range =    -7.000000 ..     7.000000
choosing y-range =    -7.000000 ..     7.000000
choosing z-range =    -7.000000 ..     7.000000


           ************************************************************
           *        Program running with 32 parallel MPI-processes    *
           *              working on a common directory               *
           ************************************************************

GBW-File       ... Mo_ano-r3_pbe.gbw
PlotType       ... MO-PLOT
MO/Operator    ... 3 1
Output file    ... Mo_ano-r3_pbe_phi_b_scf_3_re.cube
Format         ... Gaussian-Cube
Resolution     ... 120 120 120
Boundaries     ...    -7.000000     7.000000 (x direction)
                      -7.000000     7.000000 (y direction)
                      -7.000000     7.000000 (z direction)
Entering PlotGrid3d with Plottype =1
choosing x-range =    -7.000000 ..     7.000000
choosing y-range =    -7.000000 ..     7.000000
choosing z-range =    -7.000000 ..     7.000000


           ************************************************************
           *        Program running with 32 parallel MPI-processes    *
           *              working on a common directory               *
           ************************************************************

GBW-File       ... Mo_ano-r3_pbe.gbw
PlotType       ... MO-PLOT
MO/Operator    ... 4 1
Output file    ... Mo_ano-r3_pbe_phi_b_scf_4_re.cube
Format         ... Gaussian-Cube
Resolution     ... 120 120 120
Boundaries     ...    -7.000000     7.000000 (x direction)
                      -7.000000     7.000000 (y direction)
                      -7.000000     7.000000 (z direction)
Entering PlotGrid3d with Plottype =1
choosing x-range =    -7.000000 ..     7.000000
choosing y-range =    -7.000000 ..     7.000000
choosing z-range =    -7.000000 ..     7.000000


           ************************************************************
           *        Program running with 32 parallel MPI-processes    *
           *              working on a common directory               *
           ************************************************************

GBW-File       ... Mo_ano-r3_pbe.gbw
PlotType       ... MO-PLOT
MO/Operator    ... 5 1
Output file    ... Mo_ano-r3_pbe_phi_b_scf_5_re.cube
Format         ... Gaussian-Cube
Resolution     ... 120 120 120
Boundaries     ...    -7.000000     7.000000 (x direction)
                      -7.000000     7.000000 (y direction)
                      -7.000000     7.000000 (z direction)
Entering PlotGrid3d with Plottype =1
choosing x-range =    -7.000000 ..     7.000000
choosing y-range =    -7.000000 ..     7.000000
choosing z-range =    -7.000000 ..     7.000000


           ************************************************************
           *        Program running with 32 parallel MPI-processes    *
           *              working on a common directory               *
           ************************************************************

GBW-File       ... Mo_ano-r3_pbe.gbw
PlotType       ... MO-PLOT
MO/Operator    ... 6 1
Output file    ... Mo_ano-r3_pbe_phi_b_scf_6_re.cube
Format         ... Gaussian-Cube
Resolution     ... 120 120 120
Boundaries     ...    -7.000000     7.000000 (x direction)
                      -7.000000     7.000000 (y direction)
                      -7.000000     7.000000 (z direction)
Entering PlotGrid3d with Plottype =1
choosing x-range =    -7.000000 ..     7.000000
choosing y-range =    -7.000000 ..     7.000000
choosing z-range =    -7.000000 ..     7.000000


           ************************************************************
           *        Program running with 32 parallel MPI-processes    *
           *              working on a common directory               *
           ************************************************************

GBW-File       ... Mo_ano-r3_pbe.gbw
PlotType       ... MO-PLOT
MO/Operator    ... 7 1
Output file    ... Mo_ano-r3_pbe_phi_b_scf_7_re.cube
Format         ... Gaussian-Cube
Resolution     ... 120 120 120
Boundaries     ...    -7.000000     7.000000 (x direction)
                      -7.000000     7.000000 (y direction)
                      -7.000000     7.000000 (z direction)
Entering PlotGrid3d with Plottype =1
choosing x-range =    -7.000000 ..     7.000000
choosing y-range =    -7.000000 ..     7.000000
choosing z-range =    -7.000000 ..     7.000000


           ************************************************************
           *        Program running with 32 parallel MPI-processes    *
           *              working on a common directory               *
           ************************************************************

GBW-File       ... Mo_ano-r3_pbe.gbw
PlotType       ... MO-PLOT
MO/Operator    ... 8 1
Output file    ... Mo_ano-r3_pbe_phi_b_scf_8_re.cube
Format         ... Gaussian-Cube
Resolution     ... 120 120 120
Boundaries     ...    -7.000000     7.000000 (x direction)
                      -7.000000     7.000000 (y direction)
                      -7.000000     7.000000 (z direction)
Entering PlotGrid3d with Plottype =1
choosing x-range =    -7.000000 ..     7.000000
choosing y-range =    -7.000000 ..     7.000000
choosing z-range =    -7.000000 ..     7.000000


           ************************************************************
           *        Program running with 32 parallel MPI-processes    *
           *              working on a common directory               *
           ************************************************************

GBW-File       ... Mo_ano-r3_pbe.gbw
PlotType       ... MO-PLOT
MO/Operator    ... 9 1
Output file    ... Mo_ano-r3_pbe_phi_b_scf_9_re.cube
Format         ... Gaussian-Cube
Resolution     ... 120 120 120
Boundaries     ...    -7.000000     7.000000 (x direction)
                      -7.000000     7.000000 (y direction)
                      -7.000000     7.000000 (z direction)
Entering PlotGrid3d with Plottype =1
choosing x-range =    -7.000000 ..     7.000000
choosing y-range =    -7.000000 ..     7.000000
choosing z-range =    -7.000000 ..     7.000000


           ************************************************************
           *        Program running with 32 parallel MPI-processes    *
           *              working on a common directory               *
           ************************************************************

GBW-File       ... Mo_ano-r3_pbe.gbw
PlotType       ... MO-PLOT
MO/Operator    ... 10 1
Output file    ... Mo_ano-r3_pbe_phi_b_scf_10_re.cube
Format         ... Gaussian-Cube
Resolution     ... 120 120 120
Boundaries     ...    -7.000000     7.000000 (x direction)
                      -7.000000     7.000000 (y direction)
                      -7.000000     7.000000 (z direction)
Entering PlotGrid3d with Plottype =1
choosing x-range =    -7.000000 ..     7.000000
choosing y-range =    -7.000000 ..     7.000000
choosing z-range =    -7.000000 ..     7.000000


           ************************************************************
           *        Program running with 32 parallel MPI-processes    *
           *              working on a common directory               *
           ************************************************************

GBW-File       ... Mo_ano-r3_pbe.gbw
PlotType       ... MO-PLOT
MO/Operator    ... 11 1
Output file    ... Mo_ano-r3_pbe_phi_b_scf_11_re.cube
Format         ... Gaussian-Cube
Resolution     ... 120 120 120
Boundaries     ...    -7.000000     7.000000 (x direction)
                      -7.000000     7.000000 (y direction)
                      -7.000000     7.000000 (z direction)
Entering PlotGrid3d with Plottype =1
choosing x-range =    -7.000000 ..     7.000000
choosing y-range =    -7.000000 ..     7.000000
choosing z-range =    -7.000000 ..     7.000000


           ************************************************************
           *        Program running with 32 parallel MPI-processes    *
           *              working on a common directory               *
           ************************************************************

GBW-File       ... Mo_ano-r3_pbe.gbw
PlotType       ... MO-PLOT
MO/Operator    ... 12 1
Output file    ... Mo_ano-r3_pbe_phi_b_scf_12_re.cube
Format         ... Gaussian-Cube
Resolution     ... 120 120 120
Boundaries     ...    -7.000000     7.000000 (x direction)
                      -7.000000     7.000000 (y direction)
                      -7.000000     7.000000 (z direction)
Entering PlotGrid3d with Plottype =1
choosing x-range =    -7.000000 ..     7.000000
choosing y-range =    -7.000000 ..     7.000000
choosing z-range =    -7.000000 ..     7.000000


           ************************************************************
           *        Program running with 32 parallel MPI-processes    *
           *              working on a common directory               *
           ************************************************************

GBW-File       ... Mo_ano-r3_pbe.gbw
PlotType       ... MO-PLOT
MO/Operator    ... 13 1
Output file    ... Mo_ano-r3_pbe_phi_b_scf_13_re.cube
Format         ... Gaussian-Cube
Resolution     ... 120 120 120
Boundaries     ...    -7.000000     7.000000 (x direction)
                      -7.000000     7.000000 (y direction)
                      -7.000000     7.000000 (z direction)
Entering PlotGrid3d with Plottype =1
choosing x-range =    -7.000000 ..     7.000000
choosing y-range =    -7.000000 ..     7.000000
choosing z-range =    -7.000000 ..     7.000000


           ************************************************************
           *        Program running with 32 parallel MPI-processes    *
           *              working on a common directory               *
           ************************************************************

GBW-File       ... Mo_ano-r3_pbe.gbw
PlotType       ... MO-PLOT
MO/Operator    ... 14 1
Output file    ... Mo_ano-r3_pbe_phi_b_scf_14_re.cube
Format         ... Gaussian-Cube
Resolution     ... 120 120 120
Boundaries     ...    -7.000000     7.000000 (x direction)
                      -7.000000     7.000000 (y direction)
                      -7.000000     7.000000 (z direction)
Entering PlotGrid3d with Plottype =1
choosing x-range =    -7.000000 ..     7.000000
choosing y-range =    -7.000000 ..     7.000000
choosing z-range =    -7.000000 ..     7.000000


           ************************************************************
           *        Program running with 32 parallel MPI-processes    *
           *              working on a common directory               *
           ************************************************************

GBW-File       ... Mo_ano-r3_pbe.gbw
PlotType       ... MO-PLOT
MO/Operator    ... 15 1
Output file    ... Mo_ano-r3_pbe_phi_b_scf_15_re.cube
Format         ... Gaussian-Cube
Resolution     ... 120 120 120
Boundaries     ...    -7.000000     7.000000 (x direction)
                      -7.000000     7.000000 (y direction)
                      -7.000000     7.000000 (z direction)
Entering PlotGrid3d with Plottype =1
choosing x-range =    -7.000000 ..     7.000000
choosing y-range =    -7.000000 ..     7.000000
choosing z-range =    -7.000000 ..     7.000000


           ************************************************************
           *        Program running with 32 parallel MPI-processes    *
           *              working on a common directory               *
           ************************************************************

GBW-File       ... Mo_ano-r3_pbe.gbw
PlotType       ... MO-PLOT
MO/Operator    ... 16 1
Output file    ... Mo_ano-r3_pbe_phi_b_scf_16_re.cube
Format         ... Gaussian-Cube
Resolution     ... 120 120 120
Boundaries     ...    -7.000000     7.000000 (x direction)
                      -7.000000     7.000000 (y direction)
                      -7.000000     7.000000 (z direction)
Entering PlotGrid3d with Plottype =1
choosing x-range =    -7.000000 ..     7.000000
choosing y-range =    -7.000000 ..     7.000000
choosing z-range =    -7.000000 ..     7.000000


           ************************************************************
           *        Program running with 32 parallel MPI-processes    *
           *              working on a common directory               *
           ************************************************************

GBW-File       ... Mo_ano-r3_pbe.gbw
PlotType       ... MO-PLOT
MO/Operator    ... 17 1
Output file    ... Mo_ano-r3_pbe_phi_b_scf_17_re.cube
Format         ... Gaussian-Cube
Resolution     ... 120 120 120
Boundaries     ...    -7.000000     7.000000 (x direction)
                      -7.000000     7.000000 (y direction)
                      -7.000000     7.000000 (z direction)
Entering PlotGrid3d with Plottype =1

                            ***************************************
                            *     ORCA property calculations      *
                            ***************************************

                                    ---------------------
                                    Active property flags
                                    ---------------------
   (+) Dipole Moment


------------------------------------------------------------------------------
                       ORCA ELECTRIC PROPERTIES CALCULATION
------------------------------------------------------------------------------

Dipole Moment Calculation                       ... on
Quadrupole Moment Calculation                   ... off
Polarizability Calculation                      ... off
GBWName                                         ... Mo_ano-r3_pbe.gbw
Electron density                                ... Mo_ano-r3_pbe.scfp
The origin for moment calculation is the CENTER OF MASS  = ( 0.000000,  0.000000  0.000000)

-------------
DIPOLE MOMENT
-------------
                                X             Y             Z
Electronic contribution:      0.00000       0.00000      -0.00000
Nuclear contribution   :      0.00000       0.00000       0.00000
                        -----------------------------------------
Total Dipole Moment    :      0.00000       0.00000      -0.00000
                        -----------------------------------------
Magnitude (a.u.)       :      0.00000
Magnitude (Debye)      :      0.00000



--------------------
Rotational spectrum 
--------------------
 
Rotational constants in cm-1:     0.000000     0.000000     0.000000 
Rotational constants in MHz :     0.000000     0.000000     0.000000 

 Dipole components along the rotational axes: 
x,y,z [a.u.] :     0.000000     0.000000    -0.000000 
x,y,z [Debye]:     0.000000     0.000000    -0.000000 

 

Timings for individual modules:

Sum of individual times         ...     1050.782 sec (=  17.513 min)
GTO integral calculation        ...       40.367 sec (=   0.673 min)   3.8 %
SCF iterations                  ...      868.048 sec (=  14.467 min)  82.6 %
Orbital/Density plot generation ...      142.368 sec (=   2.373 min)  13.5 %
                             ****ORCA TERMINATED NORMALLY****
TOTAL RUN TIME: 0 days 0 hours 17 minutes 39 seconds 721 msec
