
                                 *****************
                                 * O   R   C   A *
                                 *****************

                                            #,                                       
                                            ###                                      
                                            ####                                     
                                            #####                                    
                                            ######                                   
                                           ########,                                 
                                     ,,################,,,,,                         
                               ,,#################################,,                 
                          ,,##########################################,,             
                       ,#########################################, ''#####,          
                    ,#############################################,,   '####,        
                  ,##################################################,,,,####,       
                ,###########''''           ''''###############################       
              ,#####''   ,,,,##########,,,,          '''####'''          '####       
            ,##' ,,,,###########################,,,                        '##       
           ' ,,###''''                  '''############,,,                           
         ,,##''                                '''############,,,,        ,,,,,,###''
      ,#''                                            '''#######################'''  
     '                                                          ''''####''''         
             ,#######,   #######,   ,#######,      ##                                
            ,#'     '#,  ##    ##  ,#'     '#,    #''#        ######   ,####,        
            ##       ##  ##   ,#'  ##            #'  '#       #        #'  '#        
            ##       ##  #######   ##           ,######,      #####,   #    #        
            '#,     ,#'  ##    ##  '#,     ,#' ,#      #,         ##   #,  ,#        
             '#######'   ##     ##  '#######'  #'      '#     #####' # '####'        



                  #######################################################
                  #                        -***-                        #
                  #          Department of theory and spectroscopy      #
                  #    Directorship and core code : Frank Neese         #
                  #        Max Planck Institute fuer Kohlenforschung    #
                  #                Kaiser Wilhelm Platz 1               #
                  #                 D-45470 Muelheim/Ruhr               #
                  #                      Germany                        #
                  #                                                     #
                  #                  All rights reserved                #
                  #                        -***-                        #
                  #######################################################


                         Program Version 5.0.1 -  RELEASE  -


 With contributions from (in alphabetic order):
   Daniel Aravena         : Magnetic Suceptibility
   Michael Atanasov       : Ab Initio Ligand Field Theory (pilot matlab implementation)
   Alexander A. Auer      : GIAO ZORA, VPT2 properties, NMR spectrum
   Ute Becker             : Parallelization
   Giovanni Bistoni       : ED, misc. LED, open-shell LED, HFLD
   Martin Brehm           : Molecular dynamics
   Dmytro Bykov           : SCF Hessian
   Vijay G. Chilkuri      : MRCI spin determinant printing, contributions to CSF-ICE
   Dipayan Datta          : RHF DLPNO-CCSD density
   Achintya Kumar Dutta   : EOM-CC, STEOM-CC
   Dmitry Ganyushin       : Spin-Orbit,Spin-Spin,Magnetic field MRCI
   Miquel Garcia          : C-PCM and meta-GGA Hessian, CC/C-PCM, Gaussian charge scheme
   Yang Guo               : DLPNO-NEVPT2, F12-NEVPT2, CIM, IAO-localization
   Andreas Hansen         : Spin unrestricted coupled pair/coupled cluster methods
   Benjamin Helmich-Paris : MC-RPA, TRAH-SCF, COSX integrals
   Lee Huntington         : MR-EOM, pCC
   Robert Izsak           : Overlap fitted RIJCOSX, COSX-SCS-MP3, EOM
   Marcus Kettner         : VPT2
   Christian Kollmar      : KDIIS, OOCD, Brueckner-CCSD(T), CCSD density, CASPT2, CASPT2-K
   Simone Kossmann        : Meta GGA functionals, TD-DFT gradient, OOMP2, MP2 Hessian
   Martin Krupicka        : Initial AUTO-CI
   Lucas Lang             : DCDCAS
   Marvin Lechner         : AUTO-CI (C++ implementation), FIC-MRCC
   Dagmar Lenk            : GEPOL surface, SMD
   Dimitrios Liakos       : Extrapolation schemes; Compound Job, initial MDCI parallelization
   Dimitrios Manganas     : Further ROCIS development; embedding schemes
   Dimitrios Pantazis     : SARC Basis sets
   Anastasios Papadopoulos: AUTO-CI, single reference methods and gradients
   Taras Petrenko         : DFT Hessian,TD-DFT gradient, ASA, ECA, R-Raman, ABS, FL, XAS/XES, NRVS
   Peter Pinski           : DLPNO-MP2, DLPNO-MP2 Gradient
   Christoph Reimann      : Effective Core Potentials
   Marius Retegan         : Local ZFS, SOC
   Christoph Riplinger    : Optimizer, TS searches, QM/MM, DLPNO-CCSD(T), (RO)-DLPNO pert. Triples
   Tobias Risthaus        : Range-separated hybrids, TD-DFT gradient, RPA, STAB
   Michael Roemelt        : Original ROCIS implementation
   Masaaki Saitow         : Open-shell DLPNO-CCSD energy and density
   Barbara Sandhoefer     : DKH picture change effects
   Avijit Sen             : IP-ROCIS
   Kantharuban Sivalingam : CASSCF convergence, NEVPT2, FIC-MRCI
   Bernardo de Souza      : ESD, SOC TD-DFT
   Georgi Stoychev        : AutoAux, RI-MP2 NMR, DLPNO-MP2 response
   Willem Van den Heuvel  : Paramagnetic NMR
   Boris Wezisla          : Elementary symmetry handling
   Frank Wennmohs         : Technical directorship


 We gratefully acknowledge several colleagues who have allowed us to
 interface, adapt or use parts of their codes:
   Stefan Grimme, W. Hujo, H. Kruse, P. Pracht,  : VdW corrections, initial TS optimization,
                  C. Bannwarth, S. Ehlert          DFT functionals, gCP, sTDA/sTD-DF
   Ed Valeev, F. Pavosevic, A. Kumar             : LibInt (2-el integral package), F12 methods
   Garnet Chan, S. Sharma, J. Yang, R. Olivares  : DMRG
   Ulf Ekstrom                                   : XCFun DFT Library
   Mihaly Kallay                                 : mrcc  (arbitrary order and MRCC methods)
   Jiri Pittner, Ondrej Demel                    : Mk-CCSD
   Frank Weinhold                                : gennbo (NPA and NBO analysis)
   Christopher J. Cramer and Donald G. Truhlar   : smd solvation model
   Lars Goerigk                                  : TD-DFT with DH, B97 family of functionals
   V. Asgeirsson, H. Jonsson                     : NEB implementation
   FAccTs GmbH                                   : IRC, NEB, NEB-TS, DLPNO-Multilevel, CI-OPT
                                                   MM, QMMM, 2- and 3-layer-ONIOM, Crystal-QMMM,
                                                   LR-CPCM, SF, NACMEs, symmetry and pop. for TD-DFT,
                                                   nearIR, NL-DFT gradient (VV10), updates on ESD,
                                                   ML-optimized integration grids
   S Lehtola, MJT Oliveira, MAL Marques          : LibXC Library
   Liviu Ungur et al                             : ANISO software


 Your calculation uses the libint2 library for the computation of 2-el integrals
 For citations please refer to: http://libint.valeyev.net

 Your ORCA version has been built with support for libXC version: 5.1.0
 For citations please refer to: https://tddft.org/programs/libxc/

 This ORCA versions uses:
   CBLAS   interface :  Fast vector & matrix operations
   LAPACKE interface :  Fast linear algebra routines
   SCALAPACK package :  Parallel linear algebra routines
   Shared memory     :  Shared parallel matrices
   BLAS/LAPACK       :  OpenBLAS 0.3.15  USE64BITINT DYNAMIC_ARCH NO_AFFINITY Haswell SINGLE_THREADED
        Core in use  :  Haswell
   Copyright (c) 2011-2014, The OpenBLAS Project


SCAN-COORDS

Reading of a custom basis requested
Basis file         : /cluster/home/ambr/projects/zora/row5/calcs_gto/Rh_ano-r3.basis
READING GTO-BASIS: RHODIUM
Basis successfully read

================================================================================

----- Orbital basis set information -----
================================================================================
                                        WARNINGS
                       Please study these warnings very carefully!
================================================================================


INFO   : the flag for use of the SHARK integral package has been found!

================================================================================
                                       INPUT FILE
================================================================================
NAME = Rh_ano-r3_pbe.inp
|  1> !uks pbe nori verytightscf soscf notrah
|  2> 
|  3> %pal
|  4>   nprocs 32
|  5> end
|  6> %coords
|  7>   charge 0
|  8>   mult 4
|  9>   units bohrs
| 10>   coords
| 11>     Rh 0.0 0.0 0.0
| 12>   end
| 13> end
| 14> %basis
| 15>   gtoname "/cluster/home/ambr/projects/zora/row5/calcs_gto/Rh_ano-r3.basis"
| 16>   delECP Rh
| 17> end
| 18> %plots
| 19>   format gaussian_cube
| 20>   dim1 120
| 21>   dim2 120
| 22>   dim3 120
| 23>   MO("Rh_ano-r3_pbe_phi_a_scf_0_re.cube",0,0);
| 24>   MO("Rh_ano-r3_pbe_phi_a_scf_1_re.cube",1,0);
| 25>   MO("Rh_ano-r3_pbe_phi_a_scf_2_re.cube",2,0);
| 26>   MO("Rh_ano-r3_pbe_phi_a_scf_3_re.cube",3,0);
| 27>   MO("Rh_ano-r3_pbe_phi_a_scf_4_re.cube",4,0);
| 28>   MO("Rh_ano-r3_pbe_phi_a_scf_5_re.cube",5,0);
| 29>   MO("Rh_ano-r3_pbe_phi_a_scf_6_re.cube",6,0);
| 30>   MO("Rh_ano-r3_pbe_phi_a_scf_7_re.cube",7,0);
| 31>   MO("Rh_ano-r3_pbe_phi_a_scf_8_re.cube",8,0);
| 32>   MO("Rh_ano-r3_pbe_phi_a_scf_9_re.cube",9,0);
| 33>   MO("Rh_ano-r3_pbe_phi_a_scf_10_re.cube",10,0);
| 34>   MO("Rh_ano-r3_pbe_phi_a_scf_11_re.cube",11,0);
| 35>   MO("Rh_ano-r3_pbe_phi_a_scf_12_re.cube",12,0);
| 36>   MO("Rh_ano-r3_pbe_phi_a_scf_13_re.cube",13,0);
| 37>   MO("Rh_ano-r3_pbe_phi_a_scf_14_re.cube",14,0);
| 38>   MO("Rh_ano-r3_pbe_phi_a_scf_15_re.cube",15,0);
| 39>   MO("Rh_ano-r3_pbe_phi_a_scf_16_re.cube",16,0);
| 40>   MO("Rh_ano-r3_pbe_phi_a_scf_17_re.cube",17,0);
| 41>   MO("Rh_ano-r3_pbe_phi_a_scf_18_re.cube",18,0);
| 42>   MO("Rh_ano-r3_pbe_phi_a_scf_19_re.cube",19,0);
| 43>   MO("Rh_ano-r3_pbe_phi_a_scf_20_re.cube",20,0);
| 44>   MO("Rh_ano-r3_pbe_phi_a_scf_21_re.cube",21,0);
| 45>   MO("Rh_ano-r3_pbe_phi_a_scf_22_re.cube",22,0);
| 46>   MO("Rh_ano-r3_pbe_phi_a_scf_23_re.cube",23,0);
| 47>   MO("Rh_ano-r3_pbe_phi_b_scf_0_re.cube",0,1);
| 48>   MO("Rh_ano-r3_pbe_phi_b_scf_1_re.cube",1,1);
| 49>   MO("Rh_ano-r3_pbe_phi_b_scf_2_re.cube",2,1);
| 50>   MO("Rh_ano-r3_pbe_phi_b_scf_3_re.cube",3,1);
| 51>   MO("Rh_ano-r3_pbe_phi_b_scf_4_re.cube",4,1);
| 52>   MO("Rh_ano-r3_pbe_phi_b_scf_5_re.cube",5,1);
| 53>   MO("Rh_ano-r3_pbe_phi_b_scf_6_re.cube",6,1);
| 54>   MO("Rh_ano-r3_pbe_phi_b_scf_7_re.cube",7,1);
| 55>   MO("Rh_ano-r3_pbe_phi_b_scf_8_re.cube",8,1);
| 56>   MO("Rh_ano-r3_pbe_phi_b_scf_9_re.cube",9,1);
| 57>   MO("Rh_ano-r3_pbe_phi_b_scf_10_re.cube",10,1);
| 58>   MO("Rh_ano-r3_pbe_phi_b_scf_11_re.cube",11,1);
| 59>   MO("Rh_ano-r3_pbe_phi_b_scf_12_re.cube",12,1);
| 60>   MO("Rh_ano-r3_pbe_phi_b_scf_13_re.cube",13,1);
| 61>   MO("Rh_ano-r3_pbe_phi_b_scf_14_re.cube",14,1);
| 62>   MO("Rh_ano-r3_pbe_phi_b_scf_15_re.cube",15,1);
| 63>   MO("Rh_ano-r3_pbe_phi_b_scf_16_re.cube",16,1);
| 64>   MO("Rh_ano-r3_pbe_phi_b_scf_17_re.cube",17,1);
| 65>   MO("Rh_ano-r3_pbe_phi_b_scf_18_re.cube",18,1);
| 66>   MO("Rh_ano-r3_pbe_phi_b_scf_19_re.cube",19,1);
| 67>   MO("Rh_ano-r3_pbe_phi_b_scf_20_re.cube",20,1);
| 68> end
| 69> 
| 70>                          ****END OF INPUT****
================================================================================

                       ****************************
                       * Single Point Calculation *
                       ****************************

---------------------------------
CARTESIAN COORDINATES (ANGSTROEM)
---------------------------------
  Rh     0.000000    0.000000    0.000000

----------------------------
CARTESIAN COORDINATES (A.U.)
----------------------------
  NO LB      ZA    FRAG     MASS         X           Y           Z
   0 Rh   45.0000    0   102.910    0.000000    0.000000    0.000000

--------------------------------
INTERNAL COORDINATES (ANGSTROEM)
--------------------------------
 Rh     0   0   0     0.000000000000     0.00000000     0.00000000

---------------------------
INTERNAL COORDINATES (A.U.)
---------------------------
 Rh     0   0   0     0.000000000000     0.00000000     0.00000000

---------------------
BASIS SET INFORMATION
---------------------
There are 1 groups of distinct atoms

 Group   1 Type Rh  : 184s96p60d24f10g3h contracted to 8s6p5d4f2g1h pattern {2323232323232323/161616161616/1212121212/6666/55/3}

Atom   0Rh   basis set group =>   1

Checking for AutoStart:
The File: Rh_ano-r3_pbe.gbw exists
Trying to determine its content:
     ... Fine, the file contains calculation information
     ... Fine, the calculation information was read
     ... Fine, the file contains a basis set
     ... Fine, the basis set was read
     ... Fine, the file contains a geometry
     ... Fine, the geometry was read
     ... Fine, the file contains a set of orbitals
     ... Fine, the orbitals can be read
     => possible old guess file was deleted
     => GBW file was renamed to GES file
     => GES file is set as startup file
     => Guess is set to MORead
     ... now leaving AutoStart



           ************************************************************
           *        Program running with 32 parallel MPI-processes    *
           *              working on a common directory               *
           ************************************************************
------------------------------------------------------------------------------
                           ORCA GTO INTEGRAL CALCULATION
------------------------------------------------------------------------------
------------------------------------------------------------------------------
                   ___                                                        
                  /   \      - P O W E R E D   B Y -                         
                 /     \                                                     
                 |  |  |   _    _      __       _____    __    __             
                 |  |  |  | |  | |    /  \     |  _  \  |  |  /  |          
                  \  \/   | |  | |   /    \    | | | |  |  | /  /          
                 / \  \   | |__| |  /  /\  \   | |_| |  |  |/  /          
                |  |  |   |  __  | /  /__\  \  |    /   |      \           
                |  |  |   | |  | | |   __   |  |    \   |  |\   \          
                \     /   | |  | | |  |  |  |  | |\  \  |  | \   \       
                 \___/    |_|  |_| |__|  |__|  |_| \__\ |__|  \__/        
                                                                              
                      - O R C A' S   B I G   F R I E N D -                    
                                      &                                       
                       - I N T E G R A L  F E E D E R -                       
                                                                              
 v1 FN, 2020, v2 2021                                                         
------------------------------------------------------------------------------


Reading SHARK input file Rh_ano-r3_pbe.SHARKINP.tmp ... ok
----------------------
SHARK INTEGRAL PACKAGE
----------------------

Number of atoms                             ...      1
Number of basis functions                   ...    108
Number of shells                            ...     26
Maximum angular momentum                    ...      5
Integral batch strategy                     ... SHARK/LIBINT Hybrid
RI-J (if used) integral strategy            ... SPLIT-RIJ (Revised 2003 algorithm where possible)
Printlevel                                  ...      1
Contraction scheme used                     ... SEGMENTED contraction
Coulomb Range Separation                    ... NOT USED
Exchange Range Separation                   ... NOT USED
Finite Nucleus Model                        ... NOT USED
Auxiliary Coulomb fitting basis             ... NOT available
Auxiliary J/K fitting basis                 ... NOT available
Auxiliary Correlation fitting basis         ... NOT available
Auxiliary 'external' fitting basis          ... NOT available
Integral threshold                          ...     1.000000e-12
Primitive cut-off                           ...     1.000000e-14
Primitive pair pre-selection threshold      ...     1.000000e-14

Calculating pre-screening integrals         ... done ( 27.1 sec) Dimension = 26
Organizing shell pair data                  ... done (  0.5 sec)
Shell pair information
Total number of shell pairs                 ...       351
Shell pairs after pre-screening             ...       351
Total number of primitive shell pairs       ...     74410
Primitive shell pairs kept                  ...     74410
          la=0 lb=0:     36 shell pairs
          la=1 lb=0:     48 shell pairs
          la=1 lb=1:     21 shell pairs
          la=2 lb=0:     40 shell pairs
          la=2 lb=1:     30 shell pairs
          la=2 lb=2:     15 shell pairs
          la=3 lb=0:     32 shell pairs
          la=3 lb=1:     24 shell pairs
          la=3 lb=2:     20 shell pairs
          la=3 lb=3:     10 shell pairs
          la=4 lb=0:     16 shell pairs
          la=4 lb=1:     12 shell pairs
          la=4 lb=2:     10 shell pairs
          la=4 lb=3:      8 shell pairs
          la=4 lb=4:      3 shell pairs
          la=5 lb=0:      8 shell pairs
          la=5 lb=1:      6 shell pairs
          la=5 lb=2:      5 shell pairs
          la=5 lb=3:      4 shell pairs
          la=5 lb=4:      2 shell pairs
          la=5 lb=5:      1 shell pairs

Calculating one electron integrals          ... done (  0.2 sec)
Calculating Nuclear repulsion               ... done (  0.0 sec) ENN=      0.000000000000 Eh

SHARK setup successfully completed in  28.2 seconds

Maximum memory used throughout the entire GTOINT-calculation: 386.5 MB


           ************************************************************
           *        Program running with 32 parallel MPI-processes    *
           *              working on a common directory               *
           ************************************************************
-------------------------------------------------------------------------------
                                 ORCA SCF
-------------------------------------------------------------------------------

------------
SCF SETTINGS
------------
Hamiltonian:
 Density Functional     Method          .... DFT(GTOs)
 Exchange Functional    Exchange        .... PBE
   PBE kappa parameter   XKappa         ....  0.804000
   PBE mue parameter    XMuePBE         ....  0.219520
 Correlation Functional Correlation     .... PBE
   PBE beta parameter  CBetaPBE         ....  0.066725
 LDA part of GGA corr.  LDAOpt          .... PW91-LDA
 Gradients option       PostSCFGGA      .... off
   Density functional embedding theory  .... OFF
   NL short-range parameter             ....  6.400000


General Settings:
 Integral files         IntName         .... Rh_ano-r3_pbe
 Hartree-Fock type      HFTyp           .... UHF
 Total Charge           Charge          ....    0
 Multiplicity           Mult            ....    4
 Number of Electrons    NEL             ....   45
 Basis Dimension        Dim             ....  108
 Nuclear Repulsion      ENuc            ....      0.0000000000 Eh

Convergence Acceleration:
 DIIS                   CNVDIIS         .... on
   Start iteration      DIISMaxIt       ....    12
   Startup error        DIISStart       ....  0.200000
   # of expansion vecs  DIISMaxEq       ....     5
   Bias factor          DIISBfac        ....   1.050
   Max. coefficient     DIISMaxC        ....  10.000
 Trust-Rad. Augm. Hess. CNVTRAH         .... off
 SOSCF                  CNVSOSCF        .... on
   Start iteration      SOSCFMaxIt      ....   150
   Startup grad/error   SOSCFStart      ....  0.003300
 Level Shifting         CNVShift        .... on
   Level shift para.    LevelShift      ....    0.2500
   Turn off err/grad.   ShiftErr        ....    0.0010
 Zerner damping         CNVZerner       .... off
 Static damping         CNVDamp         .... on
   Fraction old density DampFac         ....    0.7000
   Max. Damping (<1)    DampMax         ....    0.9800
   Min. Damping (>=0)   DampMin         ....    0.0000
   Turn off err/grad.   DampErr         ....    0.1000
 Fernandez-Rico         CNVRico         .... off

SCF Procedure:
 Maximum # iterations   MaxIter         ....   125
 SCF integral mode      SCFMode         .... Direct
   Integral package                     .... SHARK and LIBINT hybrid scheme
 Reset frequency        DirectResetFreq ....    20
 Integral Threshold     Thresh          ....  1.000e-12 Eh
 Primitive CutOff       TCut            ....  1.000e-14 Eh

Convergence Tolerance:
 Convergence Check Mode ConvCheckMode   .... Total+1el-Energy
 Convergence forced     ConvForced      .... 0
 Energy Change          TolE            ....  1.000e-09 Eh
 1-El. energy change                    ....  1.000e-06 Eh
 Orbital Gradient       TolG            ....  2.000e-06
 Orbital Rotation angle TolX            ....  2.000e-06
 DIIS Error             TolErr          ....  1.000e-08


Diagonalization of the overlap matrix:
Smallest eigenvalue                        ... 1.000e+00
Time for diagonalization                   ...    0.015 sec
Threshold for overlap eigenvalues          ... 1.000e-08
Number of eigenvalues below threshold      ... 0
Time for construction of square roots      ...    0.042 sec
Total time needed                          ...    0.059 sec

---------------------
INITIAL GUESS: MOREAD
---------------------
Guess MOs are being read from file: Rh_ano-r3_pbe.ges
Input Geometry matches current geometry (good)
Atom 0: N(Shells)= 26 and 70 - projection required
Input basis set needs projection
NBasis(read)= 180
NBasis(calc)= 108
Basis set overlap was calculated
Using GuessMode=FMatrix for the initial guess
C*T matrix was formed
Effective Fockian was calculated
Effective Fockian was diagonalized
Initial density was built
C*T matrix was formed
Effective Fockian was calculated
Effective Fockian was diagonalized
Initial density was built
                      ------------------
                      INITIAL GUESS DONE (   0.1 sec)
                      ------------------
-------------------
DFT GRID GENERATION
-------------------

General Integration Accuracy     IntAcc      ... 4.388
Radial Grid Type                 RadialGrid  ... OptM3 with GC (2021)
Angular Grid (max. ang.)         AngularGrid ... 4 (Lebedev-302)
Angular grid pruning method      GridPruning ... 4 (adaptive)
Weight generation scheme         WeightScheme... Becke
Basis function cutoff            BFCut       ... 1.0000e-12
Integration weight cutoff        WCut        ... 1.0000e-14
Angular grids for H and He will be reduced by one unit
Partially contracted basis set               ... off
Rotationally invariant grid construction     ... off

Total number of grid points                  ...    27544
Total number of batches                      ...      431
Average number of points per batch           ...       63
Average number of grid points per atom       ...    27544
Time for grid setup =    1.215 sec

--------------
SCF ITERATIONS
--------------
ITER       Energy         Delta-E        Max-DP      RMS-DP      [F,P]     Damp
               ***  Starting incremental Fock matrix formation  ***
  0  -4612.1954039163   0.000000000000 0.00397885  0.00008471  0.3417942 0.7000
                      *** Initiating the SOSCF procedure ***
                      *** Re-Reading the Fockian *** 
                      *** Removing any level shift *** 
ITER      Energy       Delta-E        Grad      Rot      Max-DP    RMS-DP
  1  -4612.19728756  -0.0018836436  0.002625  0.002625  0.008027  0.000178
               *** Restarting incremental Fock matrix formation ***
  2  -4612.20066692  -0.0033793572  0.007384  0.012120  0.012049  0.000243
  3  -4612.19999484   0.0006720799  0.012097  0.007268  0.007258  0.000149
  4  -4612.20106375  -0.0010689107  0.001267  0.000366  0.000353  0.000004
  5  -4612.20106530  -0.0000015537  0.000503  0.000148  0.000137  0.000002
  6  -4612.20106563  -0.0000003330  0.000004  0.000013  0.000011  0.000000
  7  -4612.20106563  -0.0000000001  0.000001  0.000005  0.000005  0.000000
                  ***Gradient check signals convergence***
              ***Rediagonalizing the Fockian in SOSCF/NRSCF***

               *****************************************************
               *                     SUCCESS                       *
               *           SCF CONVERGED AFTER   8 CYCLES          *
               *****************************************************


----------------
TOTAL SCF ENERGY
----------------

Total Energy       :        -4612.20106563 Eh         -125504.37151 eV

Components:
Nuclear Repulsion  :            0.00000000 Eh               0.00000 eV
Electronic Energy  :        -4612.20106563 Eh         -125504.37151 eV
One Electron Energy:        -6407.26813007 Eh         -174350.62963 eV
Two Electron Energy:         1795.06706443 Eh           48846.25812 eV

Virial components:
Potential Energy   :        -9884.58754567 Eh         -268973.30146 eV
Kinetic Energy     :         5272.38648004 Eh          143468.92994 eV
Virial Ratio       :            1.87478433


DFT components:
N(Alpha)           :       23.999999999482 electrons
N(Beta)            :       20.999999999288 electrons
N(Total)           :       44.999999998770 electrons
E(X)               :     -136.181690385938 Eh       
E(C)               :       -2.305024540039 Eh       
E(XC)              :     -138.486714925978 Eh       
DFET-embed. en.    :        0.000000000000 Eh       

---------------
SCF CONVERGENCE
---------------

  Last Energy change         ...   -1.2733e-11  Tolerance :   1.0000e-09
  Last MAX-Density change    ...    1.1724e-05  Tolerance :   1.0000e-08
  Last RMS-Density change    ...    1.2451e-07  Tolerance :   1.0000e-09
  Last Orbital Gradient      ...    2.6954e-07  Tolerance :   2.0000e-06
  Last Orbital Rotation      ...    1.2016e-05  Tolerance :   2.0000e-06

             **** THE GBW FILE WAS UPDATED (Rh_ano-r3_pbe.gbw) ****
             **** DENSITY Rh_ano-r3_pbe.scfp WAS UPDATED ****
             **** ENERGY FILE WAS UPDATED (Rh_ano-r3_pbe.en.tmp) ****
----------------------
UHF SPIN CONTAMINATION
----------------------

Warning: in a DFT calculation there is little theoretical justification to 
         calculate <S**2> as in Hartree-Fock theory. We will do it anyways
         but you should keep in mind that the values have only limited relevance

Expectation value of <S**2>     :     3.750673
Ideal value S*(S+1) for S=1.5   :     3.750000
Deviation                       :     0.000673

             **** THE GBW FILE WAS UPDATED (Rh_ano-r3_pbe.gbw) ****
             **** DENSITY Rh_ano-r3_pbe.scfp WAS UPDATED ****
----------------
ORBITAL ENERGIES
----------------
                 SPIN UP ORBITALS
  NO   OCC          E(Eh)            E(eV) 
   0   1.0000    -788.710707    -21461.9094 
   1   1.0000    -111.454154     -3032.8217 
   2   1.0000    -107.663475     -2929.6721 
   3   1.0000    -107.663474     -2929.6721 
   4   1.0000    -107.663474     -2929.6721 
   5   1.0000     -19.659673      -534.9669 
   6   1.0000     -17.385104      -473.0727 
   7   1.0000     -17.385103      -473.0727 
   8   1.0000     -17.385102      -473.0727 
   9   1.0000     -11.282138      -307.0026 
  10   1.0000     -11.282138      -307.0026 
  11   1.0000     -11.271720      -306.7191 
  12   1.0000     -11.271719      -306.7191 
  13   1.0000     -11.271719      -306.7191 
  14   1.0000      -2.633110       -71.6506 
  15   1.0000      -1.821846       -49.5749 
  16   1.0000      -1.821841       -49.5748 
  17   1.0000      -1.821838       -49.5747 
  18   1.0000      -0.280336        -7.6283 
  19   1.0000      -0.280336        -7.6283 
  20   1.0000      -0.249074        -6.7777 
  21   1.0000      -0.249072        -6.7776 
  22   1.0000      -0.249071        -6.7776 
  23   1.0000      -0.147119        -4.0033 
  24   0.0000       0.046365         1.2616 
  25   0.0000       0.046368         1.2617 
  26   0.0000       0.046369         1.2618 
  27   0.0000       0.108839         2.9617 
  28   0.0000       0.289296         7.8721 
  29   0.0000       0.289296         7.8721 
  30   0.0000       0.295708         8.0466 
  31   0.0000       0.295709         8.0467 
  32   0.0000       0.295710         8.0467 
  33   0.0000       0.552711        15.0400 
  34   0.0000       0.552711        15.0400 
  35   0.0000       0.552712        15.0401 
  36   0.0000       0.555221        15.1083 
  37   0.0000       0.555222        15.1084 
  38   0.0000       0.555225        15.1084 
  39   0.0000       0.559162        15.2156 
  40   0.0000       1.146420        31.1957 
  41   0.0000       1.300215        35.3807 
  42   0.0000       1.300220        35.3808 
  43   0.0000       1.300222        35.3808 
  44   0.0000       1.454572        39.5809 
  45   0.0000       1.454573        39.5809 
  46   0.0000       1.454575        39.5810 
  47   0.0000       1.467012        39.9194 
  48   0.0000       1.467014        39.9195 
  49   0.0000       1.467019        39.9196 
  50   0.0000       1.483362        40.3643 
  51   0.0000       1.721082        46.8330 
  52   0.0000       1.721082        46.8330 
  53   0.0000       1.742052        47.4036 
  54   0.0000       1.742054        47.4037 
  55   0.0000       1.742055        47.4037 
  56   0.0000       2.313461        62.9525 
  57   0.0000       2.317800        63.0705 
  58   0.0000       2.317800        63.0705 
  59   0.0000       2.317800        63.0706 
  60   0.0000       2.321746        63.1779 
  61   0.0000       2.321746        63.1779 
  62   0.0000       2.332930        63.4822 
  63   0.0000       2.332932        63.4823 
  64   0.0000       2.332934        63.4823 
  65   0.0000       3.549843        96.5961 
  66   0.0000       3.549844        96.5962 
  67   0.0000       3.549846        96.5962 
  68   0.0000       3.565051        97.0100 
  69   0.0000       3.565053        97.0100 
  70   0.0000       3.565058        97.0102 
  71   0.0000       3.584524        97.5399 
  72   0.0000       6.292385       171.2245 
  73   0.0000       6.292385       171.2245 
  74   0.0000       6.315142       171.8437 
  75   0.0000       6.315143       171.8438 
  76   0.0000       6.315144       171.8438 
  77   0.0000       6.539382       177.9456 
  78   0.0000       6.539383       177.9457 
  79   0.0000       6.539383       177.9457 
  80   0.0000       6.546455       178.1381 
  81   0.0000       6.546456       178.1381 
  82   0.0000       6.546457       178.1382 
  83   0.0000       6.564991       178.6425 
  84   0.0000       6.564991       178.6425 
  85   0.0000       6.568492       178.7377 
  86   0.0000       6.568495       178.7378 
  87   0.0000       6.568496       178.7379 
  88   0.0000       6.738607       183.3668 
  89   0.0000       6.784745       184.6223 
  90   0.0000       6.791173       184.7972 
  91   0.0000       6.791174       184.7972 
  92   0.0000       6.791174       184.7972 
  93   0.0000       6.798517       184.9971 
  94   0.0000       6.798517       184.9971 
  95   0.0000       6.820199       185.5870 
  96   0.0000       6.820201       185.5871 
  97   0.0000       6.820203       185.5871 
  98   0.0000       6.951003       189.1464 
  99   0.0000       6.951007       189.1465 
 100   0.0000       6.951009       189.1466 
 101   0.0000       8.232753       224.0246 
 102   0.0000       8.232754       224.0246 
 103   0.0000       8.232757       224.0247 
 104   0.0000       8.248185       224.4445 
 105   0.0000       8.248187       224.4446 
 106   0.0000       8.248192       224.4447 
 107   0.0000       8.267877       224.9804 

                 SPIN DOWN ORBITALS
  NO   OCC          E(Eh)            E(eV) 
   0   1.0000    -788.709879    -21461.8869 
   1   1.0000    -111.443011     -3032.5185 
   2   1.0000    -107.655103     -2929.4443 
   3   1.0000    -107.655103     -2929.4443 
   4   1.0000    -107.655102     -2929.4443 
   5   1.0000     -19.652971      -534.7845 
   6   1.0000     -17.378068      -472.8813 
   7   1.0000     -17.378067      -472.8812 
   8   1.0000     -17.378066      -472.8812 
   9   1.0000     -11.266159      -306.5678 
  10   1.0000     -11.266158      -306.5677 
  11   1.0000     -11.266157      -306.5677 
  12   1.0000     -11.264616      -306.5258 
  13   1.0000     -11.264616      -306.5258 
  14   1.0000      -2.578750       -70.1714 
  15   1.0000      -1.766466       -48.0680 
  16   1.0000      -1.766464       -48.0679 
  17   1.0000      -1.766462       -48.0679 
  18   1.0000      -0.216058        -5.8792 
  19   1.0000      -0.216056        -5.8792 
  20   1.0000      -0.216055        -5.8791 
  21   0.0000      -0.186411        -5.0725 
  22   0.0000      -0.186400        -5.0722 
  23   0.0000      -0.106245        -2.8911 
  24   0.0000       0.089344         2.4312 
  25   0.0000       0.089366         2.4318 
  26   0.0000       0.089400         2.4327 
  27   0.0000       0.147173         4.0048 
  28   0.0000       0.325624         8.8607 
  29   0.0000       0.325626         8.8607 
  30   0.0000       0.325628         8.8608 
  31   0.0000       0.339902         9.2492 
  32   0.0000       0.339988         9.2516 
  33   0.0000       0.585728        15.9385 
  34   0.0000       0.594192        16.1688 
  35   0.0000       0.594199        16.1690 
  36   0.0000       0.594201        16.1690 
  37   0.0000       0.603354        16.4181 
  38   0.0000       0.603449        16.4207 
  39   0.0000       0.603537        16.4231 
  40   0.0000       1.193658        32.4811 
  41   0.0000       1.350558        36.7506 
  42   0.0000       1.350568        36.7508 
  43   0.0000       1.350584        36.7513 
  44   0.0000       1.498846        40.7857 
  45   0.0000       1.514146        41.2020 
  46   0.0000       1.514147        41.2020 
  47   0.0000       1.514149        41.2021 
  48   0.0000       1.533279        41.7227 
  49   0.0000       1.533309        41.7234 
  50   0.0000       1.533343        41.7244 
  51   0.0000       1.774985        48.2998 
  52   0.0000       1.774985        48.2998 
  53   0.0000       1.774986        48.2998 
  54   0.0000       1.799219        48.9593 
  55   0.0000       1.799246        48.9600 
  56   0.0000       2.366611        64.3988 
  57   0.0000       2.366612        64.3988 
  58   0.0000       2.366617        64.3989 
  59   0.0000       2.383785        64.8661 
  60   0.0000       2.383815        64.8669 
  61   0.0000       2.387719        64.9731 
  62   0.0000       2.387735        64.9736 
  63   0.0000       2.387739        64.9737 
  64   0.0000       2.401071        65.3365 
  65   0.0000       3.598015        97.9070 
  66   0.0000       3.611690        98.2791 
  67   0.0000       3.611690        98.2791 
  68   0.0000       3.611692        98.2791 
  69   0.0000       3.627364        98.7056 
  70   0.0000       3.627383        98.7061 
  71   0.0000       3.627399        98.7065 
  72   0.0000       6.336983       172.4381 
  73   0.0000       6.336985       172.4381 
  74   0.0000       6.336987       172.4382 
  75   0.0000       6.354469       172.9139 
  76   0.0000       6.354475       172.9141 
  77   0.0000       6.603567       179.6922 
  78   0.0000       6.603573       179.6923 
  79   0.0000       6.603591       179.6928 
  80   0.0000       6.604063       179.7057 
  81   0.0000       6.604073       179.7060 
  82   0.0000       6.621400       180.1774 
  83   0.0000       6.621406       180.1776 
  84   0.0000       6.621425       180.1781 
  85   0.0000       6.633462       180.5057 
  86   0.0000       6.633473       180.5060 
  87   0.0000       6.633475       180.5060 
  88   0.0000       6.775052       184.3585 
  89   0.0000       6.845919       186.2869 
  90   0.0000       6.845924       186.2871 
  91   0.0000       6.845931       186.2872 
  92   0.0000       6.861116       186.7005 
  93   0.0000       6.861117       186.7005 
  94   0.0000       6.863405       186.7628 
  95   0.0000       6.863407       186.7628 
  96   0.0000       6.863421       186.7632 
  97   0.0000       6.879849       187.2102 
  98   0.0000       6.987322       190.1347 
  99   0.0000       6.987323       190.1347 
 100   0.0000       6.987329       190.1349 
 101   0.0000       8.276870       225.2251 
 102   0.0000       8.289578       225.5709 
 103   0.0000       8.289579       225.5709 
 104   0.0000       8.289587       225.5711 
 105   0.0000       8.304847       225.9864 
 106   0.0000       8.304858       225.9867 
 107   0.0000       8.304860       225.9867 

                    ********************************
                    * MULLIKEN POPULATION ANALYSIS *
                    ********************************

--------------------------------------------
MULLIKEN ATOMIC CHARGES AND SPIN POPULATIONS
--------------------------------------------
   0 Rh:    0.000000    3.000000
Sum of atomic charges         :    0.0000000
Sum of atomic spin populations:    3.0000000

-----------------------------------------------------
MULLIKEN REDUCED ORBITAL CHARGES AND SPIN POPULATIONS
-----------------------------------------------------
CHARGE
  0 Rhs       :     8.999958  s :     8.999958
      pz      :     5.999922  p :    17.999765
      px      :     5.999922
      py      :     5.999922
      dz2     :     3.309383  d :    17.999904
      dxz     :     3.793633
      dyz     :     3.793755
      dx2y2   :     3.112651
      dxy     :     3.990482
      f0      :     0.000044  f :     0.000197
      f+1     :     0.000028
      f-1     :     0.000028
      f+2     :     0.000025
      f-2     :     0.000003
      f+3     :     0.000035
      f-3     :     0.000035
      g0      :     0.000011  g :     0.000138
      g+1     :     0.000020
      g-1     :     0.000020
      g+2     :     0.000010
      g-2     :     0.000015
      g+3     :     0.000015
      g-3     :     0.000015
      g+4     :     0.000028
      g-4     :     0.000003
      h0      :     0.000005  h :     0.000037
      h+1     :     0.000005
      h-1     :     0.000005
      h+2     :     0.000004
      h-2     :     0.000002
      h+3     :     0.000001
      h-3     :     0.000001
      h+4     :     0.000004
      h-4     :     0.000001
      h+5     :     0.000005
      h-5     :     0.000005

SPIN
  0 Rhs       :     0.999986  s :     0.999986
      pz      :    -0.000013  p :    -0.000040
      px      :    -0.000013
      py      :    -0.000013
      dz2     :     0.690575  d :     1.999945
      dxz     :     0.206344
      dyz     :     0.206222
      dx2y2   :     0.887299
      dxy     :     0.009504
      f0      :     0.000008  f :     0.000035
      f+1     :     0.000005
      f-1     :     0.000005
      f+2     :     0.000004
      f-2     :     0.000001
      f+3     :     0.000006
      f-3     :     0.000006
      g0      :     0.000005  g :     0.000069
      g+1     :     0.000011
      g-1     :     0.000011
      g+2     :     0.000009
      g-2     :     0.000003
      g+3     :     0.000006
      g-3     :     0.000006
      g+4     :     0.000017
      g-4     :     0.000001
      h0      :     0.000001  h :     0.000005
      h+1     :     0.000001
      h-1     :     0.000001
      h+2     :     0.000000
      h-2     :     0.000000
      h+3     :     0.000000
      h-3     :     0.000000
      h+4     :     0.000000
      h-4     :     0.000000
      h+5     :     0.000001
      h-5     :     0.000001


                     *******************************
                     * LOEWDIN POPULATION ANALYSIS *
                     *******************************

-------------------------------------------
LOEWDIN ATOMIC CHARGES AND SPIN POPULATIONS
-------------------------------------------
   0 Rh:   -0.000000    3.000000

----------------------------------------------------
LOEWDIN REDUCED ORBITAL CHARGES AND SPIN POPULATIONS
----------------------------------------------------
CHARGE
  0 Rhs       :     8.999958  s :     8.999958
      pz      :     5.999922  p :    17.999765
      px      :     5.999922
      py      :     5.999922
      dz2     :     3.309383  d :    17.999904
      dxz     :     3.793633
      dyz     :     3.793755
      dx2y2   :     3.112651
      dxy     :     3.990482
      f0      :     0.000044  f :     0.000197
      f+1     :     0.000028
      f-1     :     0.000028
      f+2     :     0.000025
      f-2     :     0.000003
      f+3     :     0.000035
      f-3     :     0.000035
      g0      :     0.000011  g :     0.000138
      g+1     :     0.000020
      g-1     :     0.000020
      g+2     :     0.000010
      g-2     :     0.000015
      g+3     :     0.000015
      g-3     :     0.000015
      g+4     :     0.000028
      g-4     :     0.000003
      h0      :     0.000005  h :     0.000037
      h+1     :     0.000005
      h-1     :     0.000005
      h+2     :     0.000004
      h-2     :     0.000002
      h+3     :     0.000001
      h-3     :     0.000001
      h+4     :     0.000004
      h-4     :     0.000001
      h+5     :     0.000005
      h-5     :     0.000005

SPIN
  0 Rhs       :     0.999986  s :     0.999986
      pz      :    -0.000013  p :    -0.000040
      px      :    -0.000013
      py      :    -0.000013
      dz2     :     0.690575  d :     1.999945
      dxz     :     0.206344
      dyz     :     0.206222
      dx2y2   :     0.887299
      dxy     :     0.009504
      f0      :     0.000008  f :     0.000035
      f+1     :     0.000005
      f-1     :     0.000005
      f+2     :     0.000004
      f-2     :     0.000001
      f+3     :     0.000006
      f-3     :     0.000006
      g0      :     0.000005  g :     0.000069
      g+1     :     0.000011
      g-1     :     0.000011
      g+2     :     0.000009
      g-2     :     0.000003
      g+3     :     0.000006
      g-3     :     0.000006
      g+4     :     0.000017
      g-4     :     0.000001
      h0      :     0.000001  h :     0.000005
      h+1     :     0.000001
      h-1     :     0.000001
      h+2     :     0.000000
      h-2     :     0.000000
      h+3     :     0.000000
      h-3     :     0.000000
      h+4     :     0.000000
      h-4     :     0.000000
      h+5     :     0.000001
      h-5     :     0.000001


                      *****************************
                      * MAYER POPULATION ANALYSIS *
                      *****************************

  NA   - Mulliken gross atomic population
  ZA   - Total nuclear charge
  QA   - Mulliken gross atomic charge
  VA   - Mayer's total valence
  BVA  - Mayer's bonded valence
  FA   - Mayer's free valence

  ATOM       NA         ZA         QA         VA         BVA        FA
  0 Rh    45.0000    45.0000    -0.0000     3.0013     0.0000     3.0013

  Mayer bond orders larger than 0.100000


-------
TIMINGS
-------

Total SCF time: 0 days 0 hours 33 min 35 sec 

Total time                  ....    2015.760 sec
Sum of individual times     ....    2013.609 sec  ( 99.9%)

Fock matrix formation       ....    2010.222 sec  ( 99.7%)
  XC integration            ....       3.697 sec  (  0.2% of F)
    Basis function eval.    ....       0.561 sec  ( 15.2% of XC)
    Density eval.           ....       0.328 sec  (  8.9% of XC)
    XC-Functional eval.     ....       0.679 sec  ( 18.4% of XC)
    XC-Potential eval.      ....       0.117 sec  (  3.2% of XC)
Diagonalization             ....       0.049 sec  (  0.0%)
Density matrix formation    ....       0.018 sec  (  0.0%)
Population analysis         ....       0.144 sec  (  0.0%)
Initial guess               ....       0.117 sec  (  0.0%)
Orbital Transformation      ....       0.000 sec  (  0.0%)
Orbital Orthonormalization  ....       0.000 sec  (  0.0%)
DIIS solution               ....       0.276 sec  (  0.0%)
SOSCF solution              ....       1.569 sec  (  0.1%)
Grid generation             ....       1.215 sec  (  0.1%)

Maximum memory used throughout the entire SCF-calculation: 265.7 MB

-------------------------   --------------------
FINAL SINGLE POINT ENERGY     -4612.201065634627
-------------------------   --------------------

MakePlots. Basename = [Rh_ano-r3_pbe]

---------------
PLOT GENERATION
---------------
choosing x-range =    -7.000000 ..     7.000000
choosing y-range =    -7.000000 ..     7.000000
choosing z-range =    -7.000000 ..     7.000000


           ************************************************************
           *        Program running with 32 parallel MPI-processes    *
           *              working on a common directory               *
           ************************************************************

GBW-File       ... Rh_ano-r3_pbe.gbw
PlotType       ... MO-PLOT
MO/Operator    ... 0 0
Output file    ... Rh_ano-r3_pbe_phi_a_scf_0_re.cube
Format         ... Gaussian-Cube
Resolution     ... 120 120 120
Boundaries     ...    -7.000000     7.000000 (x direction)
                      -7.000000     7.000000 (y direction)
                      -7.000000     7.000000 (z direction)
Entering PlotGrid3d with Plottype =1
choosing x-range =    -7.000000 ..     7.000000
choosing y-range =    -7.000000 ..     7.000000
choosing z-range =    -7.000000 ..     7.000000


           ************************************************************
           *        Program running with 32 parallel MPI-processes    *
           *              working on a common directory               *
           ************************************************************

GBW-File       ... Rh_ano-r3_pbe.gbw
PlotType       ... MO-PLOT
MO/Operator    ... 1 0
Output file    ... Rh_ano-r3_pbe_phi_a_scf_1_re.cube
Format         ... Gaussian-Cube
Resolution     ... 120 120 120
Boundaries     ...    -7.000000     7.000000 (x direction)
                      -7.000000     7.000000 (y direction)
                      -7.000000     7.000000 (z direction)
Entering PlotGrid3d with Plottype =1
choosing x-range =    -7.000000 ..     7.000000
choosing y-range =    -7.000000 ..     7.000000
choosing z-range =    -7.000000 ..     7.000000


           ************************************************************
           *        Program running with 32 parallel MPI-processes    *
           *              working on a common directory               *
           ************************************************************

GBW-File       ... Rh_ano-r3_pbe.gbw
PlotType       ... MO-PLOT
MO/Operator    ... 2 0
Output file    ... Rh_ano-r3_pbe_phi_a_scf_2_re.cube
Format         ... Gaussian-Cube
Resolution     ... 120 120 120
Boundaries     ...    -7.000000     7.000000 (x direction)
                      -7.000000     7.000000 (y direction)
                      -7.000000     7.000000 (z direction)
Entering PlotGrid3d with Plottype =1
choosing x-range =    -7.000000 ..     7.000000
choosing y-range =    -7.000000 ..     7.000000
choosing z-range =    -7.000000 ..     7.000000


           ************************************************************
           *        Program running with 32 parallel MPI-processes    *
           *              working on a common directory               *
           ************************************************************

GBW-File       ... Rh_ano-r3_pbe.gbw
PlotType       ... MO-PLOT
MO/Operator    ... 3 0
Output file    ... Rh_ano-r3_pbe_phi_a_scf_3_re.cube
Format         ... Gaussian-Cube
Resolution     ... 120 120 120
Boundaries     ...    -7.000000     7.000000 (x direction)
                      -7.000000     7.000000 (y direction)
                      -7.000000     7.000000 (z direction)
Entering PlotGrid3d with Plottype =1
choosing x-range =    -7.000000 ..     7.000000
choosing y-range =    -7.000000 ..     7.000000
choosing z-range =    -7.000000 ..     7.000000


           ************************************************************
           *        Program running with 32 parallel MPI-processes    *
           *              working on a common directory               *
           ************************************************************

GBW-File       ... Rh_ano-r3_pbe.gbw
PlotType       ... MO-PLOT
MO/Operator    ... 4 0
Output file    ... Rh_ano-r3_pbe_phi_a_scf_4_re.cube
Format         ... Gaussian-Cube
Resolution     ... 120 120 120
Boundaries     ...    -7.000000     7.000000 (x direction)
                      -7.000000     7.000000 (y direction)
                      -7.000000     7.000000 (z direction)
Entering PlotGrid3d with Plottype =1
choosing x-range =    -7.000000 ..     7.000000
choosing y-range =    -7.000000 ..     7.000000
choosing z-range =    -7.000000 ..     7.000000


           ************************************************************
           *        Program running with 32 parallel MPI-processes    *
           *              working on a common directory               *
           ************************************************************

GBW-File       ... Rh_ano-r3_pbe.gbw
PlotType       ... MO-PLOT
MO/Operator    ... 5 0
Output file    ... Rh_ano-r3_pbe_phi_a_scf_5_re.cube
Format         ... Gaussian-Cube
Resolution     ... 120 120 120
Boundaries     ...    -7.000000     7.000000 (x direction)
                      -7.000000     7.000000 (y direction)
                      -7.000000     7.000000 (z direction)
Entering PlotGrid3d with Plottype =1
choosing x-range =    -7.000000 ..     7.000000
choosing y-range =    -7.000000 ..     7.000000
choosing z-range =    -7.000000 ..     7.000000


           ************************************************************
           *        Program running with 32 parallel MPI-processes    *
           *              working on a common directory               *
           ************************************************************

GBW-File       ... Rh_ano-r3_pbe.gbw
PlotType       ... MO-PLOT
MO/Operator    ... 6 0
Output file    ... Rh_ano-r3_pbe_phi_a_scf_6_re.cube
Format         ... Gaussian-Cube
Resolution     ... 120 120 120
Boundaries     ...    -7.000000     7.000000 (x direction)
                      -7.000000     7.000000 (y direction)
                      -7.000000     7.000000 (z direction)
Entering PlotGrid3d with Plottype =1
choosing x-range =    -7.000000 ..     7.000000
choosing y-range =    -7.000000 ..     7.000000
choosing z-range =    -7.000000 ..     7.000000


           ************************************************************
           *        Program running with 32 parallel MPI-processes    *
           *              working on a common directory               *
           ************************************************************

GBW-File       ... Rh_ano-r3_pbe.gbw
PlotType       ... MO-PLOT
MO/Operator    ... 7 0
Output file    ... Rh_ano-r3_pbe_phi_a_scf_7_re.cube
Format         ... Gaussian-Cube
Resolution     ... 120 120 120
Boundaries     ...    -7.000000     7.000000 (x direction)
                      -7.000000     7.000000 (y direction)
                      -7.000000     7.000000 (z direction)
Entering PlotGrid3d with Plottype =1
choosing x-range =    -7.000000 ..     7.000000
choosing y-range =    -7.000000 ..     7.000000
choosing z-range =    -7.000000 ..     7.000000


           ************************************************************
           *        Program running with 32 parallel MPI-processes    *
           *              working on a common directory               *
           ************************************************************

GBW-File       ... Rh_ano-r3_pbe.gbw
PlotType       ... MO-PLOT
MO/Operator    ... 8 0
Output file    ... Rh_ano-r3_pbe_phi_a_scf_8_re.cube
Format         ... Gaussian-Cube
Resolution     ... 120 120 120
Boundaries     ...    -7.000000     7.000000 (x direction)
                      -7.000000     7.000000 (y direction)
                      -7.000000     7.000000 (z direction)
Entering PlotGrid3d with Plottype =1
choosing x-range =    -7.000000 ..     7.000000
choosing y-range =    -7.000000 ..     7.000000
choosing z-range =    -7.000000 ..     7.000000


           ************************************************************
           *        Program running with 32 parallel MPI-processes    *
           *              working on a common directory               *
           ************************************************************

GBW-File       ... Rh_ano-r3_pbe.gbw
PlotType       ... MO-PLOT
MO/Operator    ... 9 0
Output file    ... Rh_ano-r3_pbe_phi_a_scf_9_re.cube
Format         ... Gaussian-Cube
Resolution     ... 120 120 120
Boundaries     ...    -7.000000     7.000000 (x direction)
                      -7.000000     7.000000 (y direction)
                      -7.000000     7.000000 (z direction)
Entering PlotGrid3d with Plottype =1
choosing x-range =    -7.000000 ..     7.000000
choosing y-range =    -7.000000 ..     7.000000
choosing z-range =    -7.000000 ..     7.000000


           ************************************************************
           *        Program running with 32 parallel MPI-processes    *
           *              working on a common directory               *
           ************************************************************

GBW-File       ... Rh_ano-r3_pbe.gbw
PlotType       ... MO-PLOT
MO/Operator    ... 10 0
Output file    ... Rh_ano-r3_pbe_phi_a_scf_10_re.cube
Format         ... Gaussian-Cube
Resolution     ... 120 120 120
Boundaries     ...    -7.000000     7.000000 (x direction)
                      -7.000000     7.000000 (y direction)
                      -7.000000     7.000000 (z direction)
Entering PlotGrid3d with Plottype =1
choosing x-range =    -7.000000 ..     7.000000
choosing y-range =    -7.000000 ..     7.000000
choosing z-range =    -7.000000 ..     7.000000


           ************************************************************
           *        Program running with 32 parallel MPI-processes    *
           *              working on a common directory               *
           ************************************************************

GBW-File       ... Rh_ano-r3_pbe.gbw
PlotType       ... MO-PLOT
MO/Operator    ... 11 0
Output file    ... Rh_ano-r3_pbe_phi_a_scf_11_re.cube
Format         ... Gaussian-Cube
Resolution     ... 120 120 120
Boundaries     ...    -7.000000     7.000000 (x direction)
                      -7.000000     7.000000 (y direction)
                      -7.000000     7.000000 (z direction)
Entering PlotGrid3d with Plottype =1
choosing x-range =    -7.000000 ..     7.000000
choosing y-range =    -7.000000 ..     7.000000
choosing z-range =    -7.000000 ..     7.000000


           ************************************************************
           *        Program running with 32 parallel MPI-processes    *
           *              working on a common directory               *
           ************************************************************

GBW-File       ... Rh_ano-r3_pbe.gbw
PlotType       ... MO-PLOT
MO/Operator    ... 12 0
Output file    ... Rh_ano-r3_pbe_phi_a_scf_12_re.cube
Format         ... Gaussian-Cube
Resolution     ... 120 120 120
Boundaries     ...    -7.000000     7.000000 (x direction)
                      -7.000000     7.000000 (y direction)
                      -7.000000     7.000000 (z direction)
Entering PlotGrid3d with Plottype =1
choosing x-range =    -7.000000 ..     7.000000
choosing y-range =    -7.000000 ..     7.000000
choosing z-range =    -7.000000 ..     7.000000


           ************************************************************
           *        Program running with 32 parallel MPI-processes    *
           *              working on a common directory               *
           ************************************************************

GBW-File       ... Rh_ano-r3_pbe.gbw
PlotType       ... MO-PLOT
MO/Operator    ... 13 0
Output file    ... Rh_ano-r3_pbe_phi_a_scf_13_re.cube
Format         ... Gaussian-Cube
Resolution     ... 120 120 120
Boundaries     ...    -7.000000     7.000000 (x direction)
                      -7.000000     7.000000 (y direction)
                      -7.000000     7.000000 (z direction)
Entering PlotGrid3d with Plottype =1
choosing x-range =    -7.000000 ..     7.000000
choosing y-range =    -7.000000 ..     7.000000
choosing z-range =    -7.000000 ..     7.000000


           ************************************************************
           *        Program running with 32 parallel MPI-processes    *
           *              working on a common directory               *
           ************************************************************

GBW-File       ... Rh_ano-r3_pbe.gbw
PlotType       ... MO-PLOT
MO/Operator    ... 14 0
Output file    ... Rh_ano-r3_pbe_phi_a_scf_14_re.cube
Format         ... Gaussian-Cube
Resolution     ... 120 120 120
Boundaries     ...    -7.000000     7.000000 (x direction)
                      -7.000000     7.000000 (y direction)
                      -7.000000     7.000000 (z direction)
Entering PlotGrid3d with Plottype =1
choosing x-range =    -7.000000 ..     7.000000
choosing y-range =    -7.000000 ..     7.000000
choosing z-range =    -7.000000 ..     7.000000


           ************************************************************
           *        Program running with 32 parallel MPI-processes    *
           *              working on a common directory               *
           ************************************************************

GBW-File       ... Rh_ano-r3_pbe.gbw
PlotType       ... MO-PLOT
MO/Operator    ... 15 0
Output file    ... Rh_ano-r3_pbe_phi_a_scf_15_re.cube
Format         ... Gaussian-Cube
Resolution     ... 120 120 120
Boundaries     ...    -7.000000     7.000000 (x direction)
                      -7.000000     7.000000 (y direction)
                      -7.000000     7.000000 (z direction)
Entering PlotGrid3d with Plottype =1
choosing x-range =    -7.000000 ..     7.000000
choosing y-range =    -7.000000 ..     7.000000
choosing z-range =    -7.000000 ..     7.000000


           ************************************************************
           *        Program running with 32 parallel MPI-processes    *
           *              working on a common directory               *
           ************************************************************

GBW-File       ... Rh_ano-r3_pbe.gbw
PlotType       ... MO-PLOT
MO/Operator    ... 16 0
Output file    ... Rh_ano-r3_pbe_phi_a_scf_16_re.cube
Format         ... Gaussian-Cube
Resolution     ... 120 120 120
Boundaries     ...    -7.000000     7.000000 (x direction)
                      -7.000000     7.000000 (y direction)
                      -7.000000     7.000000 (z direction)
Entering PlotGrid3d with Plottype =1
choosing x-range =    -7.000000 ..     7.000000
choosing y-range =    -7.000000 ..     7.000000
choosing z-range =    -7.000000 ..     7.000000


           ************************************************************
           *        Program running with 32 parallel MPI-processes    *
           *              working on a common directory               *
           ************************************************************

GBW-File       ... Rh_ano-r3_pbe.gbw
PlotType       ... MO-PLOT
MO/Operator    ... 17 0
Output file    ... Rh_ano-r3_pbe_phi_a_scf_17_re.cube
Format         ... Gaussian-Cube
Resolution     ... 120 120 120
Boundaries     ...    -7.000000     7.000000 (x direction)
                      -7.000000     7.000000 (y direction)
                      -7.000000     7.000000 (z direction)
Entering PlotGrid3d with Plottype =1
choosing x-range =    -7.000000 ..     7.000000
choosing y-range =    -7.000000 ..     7.000000
choosing z-range =    -7.000000 ..     7.000000


           ************************************************************
           *        Program running with 32 parallel MPI-processes    *
           *              working on a common directory               *
           ************************************************************

GBW-File       ... Rh_ano-r3_pbe.gbw
PlotType       ... MO-PLOT
MO/Operator    ... 18 0
Output file    ... Rh_ano-r3_pbe_phi_a_scf_18_re.cube
Format         ... Gaussian-Cube
Resolution     ... 120 120 120
Boundaries     ...    -7.000000     7.000000 (x direction)
                      -7.000000     7.000000 (y direction)
                      -7.000000     7.000000 (z direction)
Entering PlotGrid3d with Plottype =1
choosing x-range =    -7.000000 ..     7.000000
choosing y-range =    -7.000000 ..     7.000000
choosing z-range =    -7.000000 ..     7.000000


           ************************************************************
           *        Program running with 32 parallel MPI-processes    *
           *              working on a common directory               *
           ************************************************************

GBW-File       ... Rh_ano-r3_pbe.gbw
PlotType       ... MO-PLOT
MO/Operator    ... 19 0
Output file    ... Rh_ano-r3_pbe_phi_a_scf_19_re.cube
Format         ... Gaussian-Cube
Resolution     ... 120 120 120
Boundaries     ...    -7.000000     7.000000 (x direction)
                      -7.000000     7.000000 (y direction)
                      -7.000000     7.000000 (z direction)
Entering PlotGrid3d with Plottype =1
choosing x-range =    -7.000000 ..     7.000000
choosing y-range =    -7.000000 ..     7.000000
choosing z-range =    -7.000000 ..     7.000000


           ************************************************************
           *        Program running with 32 parallel MPI-processes    *
           *              working on a common directory               *
           ************************************************************

GBW-File       ... Rh_ano-r3_pbe.gbw
PlotType       ... MO-PLOT
MO/Operator    ... 20 0
Output file    ... Rh_ano-r3_pbe_phi_a_scf_20_re.cube
Format         ... Gaussian-Cube
Resolution     ... 120 120 120
Boundaries     ...    -7.000000     7.000000 (x direction)
                      -7.000000     7.000000 (y direction)
                      -7.000000     7.000000 (z direction)
Entering PlotGrid3d with Plottype =1
choosing x-range =    -7.000000 ..     7.000000
choosing y-range =    -7.000000 ..     7.000000
choosing z-range =    -7.000000 ..     7.000000


           ************************************************************
           *        Program running with 32 parallel MPI-processes    *
           *              working on a common directory               *
           ************************************************************

GBW-File       ... Rh_ano-r3_pbe.gbw
PlotType       ... MO-PLOT
MO/Operator    ... 21 0
Output file    ... Rh_ano-r3_pbe_phi_a_scf_21_re.cube
Format         ... Gaussian-Cube
Resolution     ... 120 120 120
Boundaries     ...    -7.000000     7.000000 (x direction)
                      -7.000000     7.000000 (y direction)
                      -7.000000     7.000000 (z direction)
Entering PlotGrid3d with Plottype =1
choosing x-range =    -7.000000 ..     7.000000
choosing y-range =    -7.000000 ..     7.000000
choosing z-range =    -7.000000 ..     7.000000


           ************************************************************
           *        Program running with 32 parallel MPI-processes    *
           *              working on a common directory               *
           ************************************************************

GBW-File       ... Rh_ano-r3_pbe.gbw
PlotType       ... MO-PLOT
MO/Operator    ... 22 0
Output file    ... Rh_ano-r3_pbe_phi_a_scf_22_re.cube
Format         ... Gaussian-Cube
Resolution     ... 120 120 120
Boundaries     ...    -7.000000     7.000000 (x direction)
                      -7.000000     7.000000 (y direction)
                      -7.000000     7.000000 (z direction)
Entering PlotGrid3d with Plottype =1
choosing x-range =    -7.000000 ..     7.000000
choosing y-range =    -7.000000 ..     7.000000
choosing z-range =    -7.000000 ..     7.000000


           ************************************************************
           *        Program running with 32 parallel MPI-processes    *
           *              working on a common directory               *
           ************************************************************

GBW-File       ... Rh_ano-r3_pbe.gbw
PlotType       ... MO-PLOT
MO/Operator    ... 23 0
Output file    ... Rh_ano-r3_pbe_phi_a_scf_23_re.cube
Format         ... Gaussian-Cube
Resolution     ... 120 120 120
Boundaries     ...    -7.000000     7.000000 (x direction)
                      -7.000000     7.000000 (y direction)
                      -7.000000     7.000000 (z direction)
Entering PlotGrid3d with Plottype =1
choosing x-range =    -7.000000 ..     7.000000
choosing y-range =    -7.000000 ..     7.000000
choosing z-range =    -7.000000 ..     7.000000


           ************************************************************
           *        Program running with 32 parallel MPI-processes    *
           *              working on a common directory               *
           ************************************************************

GBW-File       ... Rh_ano-r3_pbe.gbw
PlotType       ... MO-PLOT
MO/Operator    ... 0 1
Output file    ... Rh_ano-r3_pbe_phi_b_scf_0_re.cube
Format         ... Gaussian-Cube
Resolution     ... 120 120 120
Boundaries     ...    -7.000000     7.000000 (x direction)
                      -7.000000     7.000000 (y direction)
                      -7.000000     7.000000 (z direction)
Entering PlotGrid3d with Plottype =1
choosing x-range =    -7.000000 ..     7.000000
choosing y-range =    -7.000000 ..     7.000000
choosing z-range =    -7.000000 ..     7.000000


           ************************************************************
           *        Program running with 32 parallel MPI-processes    *
           *              working on a common directory               *
           ************************************************************

GBW-File       ... Rh_ano-r3_pbe.gbw
PlotType       ... MO-PLOT
MO/Operator    ... 1 1
Output file    ... Rh_ano-r3_pbe_phi_b_scf_1_re.cube
Format         ... Gaussian-Cube
Resolution     ... 120 120 120
Boundaries     ...    -7.000000     7.000000 (x direction)
                      -7.000000     7.000000 (y direction)
                      -7.000000     7.000000 (z direction)
Entering PlotGrid3d with Plottype =1
choosing x-range =    -7.000000 ..     7.000000
choosing y-range =    -7.000000 ..     7.000000
choosing z-range =    -7.000000 ..     7.000000


           ************************************************************
           *        Program running with 32 parallel MPI-processes    *
           *              working on a common directory               *
           ************************************************************

GBW-File       ... Rh_ano-r3_pbe.gbw
PlotType       ... MO-PLOT
MO/Operator    ... 2 1
Output file    ... Rh_ano-r3_pbe_phi_b_scf_2_re.cube
Format         ... Gaussian-Cube
Resolution     ... 120 120 120
Boundaries     ...    -7.000000     7.000000 (x direction)
                      -7.000000     7.000000 (y direction)
                      -7.000000     7.000000 (z direction)
Entering PlotGrid3d with Plottype =1
choosing x-range =    -7.000000 ..     7.000000
choosing y-range =    -7.000000 ..     7.000000
choosing z-range =    -7.000000 ..     7.000000


           ************************************************************
           *        Program running with 32 parallel MPI-processes    *
           *              working on a common directory               *
           ************************************************************

GBW-File       ... Rh_ano-r3_pbe.gbw
PlotType       ... MO-PLOT
MO/Operator    ... 3 1
Output file    ... Rh_ano-r3_pbe_phi_b_scf_3_re.cube
Format         ... Gaussian-Cube
Resolution     ... 120 120 120
Boundaries     ...    -7.000000     7.000000 (x direction)
                      -7.000000     7.000000 (y direction)
                      -7.000000     7.000000 (z direction)
Entering PlotGrid3d with Plottype =1
choosing x-range =    -7.000000 ..     7.000000
choosing y-range =    -7.000000 ..     7.000000
choosing z-range =    -7.000000 ..     7.000000


           ************************************************************
           *        Program running with 32 parallel MPI-processes    *
           *              working on a common directory               *
           ************************************************************

GBW-File       ... Rh_ano-r3_pbe.gbw
PlotType       ... MO-PLOT
MO/Operator    ... 4 1
Output file    ... Rh_ano-r3_pbe_phi_b_scf_4_re.cube
Format         ... Gaussian-Cube
Resolution     ... 120 120 120
Boundaries     ...    -7.000000     7.000000 (x direction)
                      -7.000000     7.000000 (y direction)
                      -7.000000     7.000000 (z direction)
Entering PlotGrid3d with Plottype =1
choosing x-range =    -7.000000 ..     7.000000
choosing y-range =    -7.000000 ..     7.000000
choosing z-range =    -7.000000 ..     7.000000


           ************************************************************
           *        Program running with 32 parallel MPI-processes    *
           *              working on a common directory               *
           ************************************************************

GBW-File       ... Rh_ano-r3_pbe.gbw
PlotType       ... MO-PLOT
MO/Operator    ... 5 1
Output file    ... Rh_ano-r3_pbe_phi_b_scf_5_re.cube
Format         ... Gaussian-Cube
Resolution     ... 120 120 120
Boundaries     ...    -7.000000     7.000000 (x direction)
                      -7.000000     7.000000 (y direction)
                      -7.000000     7.000000 (z direction)
Entering PlotGrid3d with Plottype =1
choosing x-range =    -7.000000 ..     7.000000
choosing y-range =    -7.000000 ..     7.000000
choosing z-range =    -7.000000 ..     7.000000


           ************************************************************
           *        Program running with 32 parallel MPI-processes    *
           *              working on a common directory               *
           ************************************************************

GBW-File       ... Rh_ano-r3_pbe.gbw
PlotType       ... MO-PLOT
MO/Operator    ... 6 1
Output file    ... Rh_ano-r3_pbe_phi_b_scf_6_re.cube
Format         ... Gaussian-Cube
Resolution     ... 120 120 120
Boundaries     ...    -7.000000     7.000000 (x direction)
                      -7.000000     7.000000 (y direction)
                      -7.000000     7.000000 (z direction)
Entering PlotGrid3d with Plottype =1
choosing x-range =    -7.000000 ..     7.000000
choosing y-range =    -7.000000 ..     7.000000
choosing z-range =    -7.000000 ..     7.000000


           ************************************************************
           *        Program running with 32 parallel MPI-processes    *
           *              working on a common directory               *
           ************************************************************

GBW-File       ... Rh_ano-r3_pbe.gbw
PlotType       ... MO-PLOT
MO/Operator    ... 7 1
Output file    ... Rh_ano-r3_pbe_phi_b_scf_7_re.cube
Format         ... Gaussian-Cube
Resolution     ... 120 120 120
Boundaries     ...    -7.000000     7.000000 (x direction)
                      -7.000000     7.000000 (y direction)
                      -7.000000     7.000000 (z direction)
Entering PlotGrid3d with Plottype =1
choosing x-range =    -7.000000 ..     7.000000
choosing y-range =    -7.000000 ..     7.000000
choosing z-range =    -7.000000 ..     7.000000


           ************************************************************
           *        Program running with 32 parallel MPI-processes    *
           *              working on a common directory               *
           ************************************************************

GBW-File       ... Rh_ano-r3_pbe.gbw
PlotType       ... MO-PLOT
MO/Operator    ... 8 1
Output file    ... Rh_ano-r3_pbe_phi_b_scf_8_re.cube
Format         ... Gaussian-Cube
Resolution     ... 120 120 120
Boundaries     ...    -7.000000     7.000000 (x direction)
                      -7.000000     7.000000 (y direction)
                      -7.000000     7.000000 (z direction)
Entering PlotGrid3d with Plottype =1
choosing x-range =    -7.000000 ..     7.000000
choosing y-range =    -7.000000 ..     7.000000
choosing z-range =    -7.000000 ..     7.000000


           ************************************************************
           *        Program running with 32 parallel MPI-processes    *
           *              working on a common directory               *
           ************************************************************

GBW-File       ... Rh_ano-r3_pbe.gbw
PlotType       ... MO-PLOT
MO/Operator    ... 9 1
Output file    ... Rh_ano-r3_pbe_phi_b_scf_9_re.cube
Format         ... Gaussian-Cube
Resolution     ... 120 120 120
Boundaries     ...    -7.000000     7.000000 (x direction)
                      -7.000000     7.000000 (y direction)
                      -7.000000     7.000000 (z direction)
Entering PlotGrid3d with Plottype =1
choosing x-range =    -7.000000 ..     7.000000
choosing y-range =    -7.000000 ..     7.000000
choosing z-range =    -7.000000 ..     7.000000


           ************************************************************
           *        Program running with 32 parallel MPI-processes    *
           *              working on a common directory               *
           ************************************************************

GBW-File       ... Rh_ano-r3_pbe.gbw
PlotType       ... MO-PLOT
MO/Operator    ... 10 1
Output file    ... Rh_ano-r3_pbe_phi_b_scf_10_re.cube
Format         ... Gaussian-Cube
Resolution     ... 120 120 120
Boundaries     ...    -7.000000     7.000000 (x direction)
                      -7.000000     7.000000 (y direction)
                      -7.000000     7.000000 (z direction)
Entering PlotGrid3d with Plottype =1
choosing x-range =    -7.000000 ..     7.000000
choosing y-range =    -7.000000 ..     7.000000
choosing z-range =    -7.000000 ..     7.000000


           ************************************************************
           *        Program running with 32 parallel MPI-processes    *
           *              working on a common directory               *
           ************************************************************

GBW-File       ... Rh_ano-r3_pbe.gbw
PlotType       ... MO-PLOT
MO/Operator    ... 11 1
Output file    ... Rh_ano-r3_pbe_phi_b_scf_11_re.cube
Format         ... Gaussian-Cube
Resolution     ... 120 120 120
Boundaries     ...    -7.000000     7.000000 (x direction)
                      -7.000000     7.000000 (y direction)
                      -7.000000     7.000000 (z direction)
Entering PlotGrid3d with Plottype =1
choosing x-range =    -7.000000 ..     7.000000
choosing y-range =    -7.000000 ..     7.000000
choosing z-range =    -7.000000 ..     7.000000


           ************************************************************
           *        Program running with 32 parallel MPI-processes    *
           *              working on a common directory               *
           ************************************************************

GBW-File       ... Rh_ano-r3_pbe.gbw
PlotType       ... MO-PLOT
MO/Operator    ... 12 1
Output file    ... Rh_ano-r3_pbe_phi_b_scf_12_re.cube
Format         ... Gaussian-Cube
Resolution     ... 120 120 120
Boundaries     ...    -7.000000     7.000000 (x direction)
                      -7.000000     7.000000 (y direction)
                      -7.000000     7.000000 (z direction)
Entering PlotGrid3d with Plottype =1
choosing x-range =    -7.000000 ..     7.000000
choosing y-range =    -7.000000 ..     7.000000
choosing z-range =    -7.000000 ..     7.000000


           ************************************************************
           *        Program running with 32 parallel MPI-processes    *
           *              working on a common directory               *
           ************************************************************

GBW-File       ... Rh_ano-r3_pbe.gbw
PlotType       ... MO-PLOT
MO/Operator    ... 13 1
Output file    ... Rh_ano-r3_pbe_phi_b_scf_13_re.cube
Format         ... Gaussian-Cube
Resolution     ... 120 120 120
Boundaries     ...    -7.000000     7.000000 (x direction)
                      -7.000000     7.000000 (y direction)
                      -7.000000     7.000000 (z direction)
Entering PlotGrid3d with Plottype =1
choosing x-range =    -7.000000 ..     7.000000
choosing y-range =    -7.000000 ..     7.000000
choosing z-range =    -7.000000 ..     7.000000


           ************************************************************
           *        Program running with 32 parallel MPI-processes    *
           *              working on a common directory               *
           ************************************************************

GBW-File       ... Rh_ano-r3_pbe.gbw
PlotType       ... MO-PLOT
MO/Operator    ... 14 1
Output file    ... Rh_ano-r3_pbe_phi_b_scf_14_re.cube
Format         ... Gaussian-Cube
Resolution     ... 120 120 120
Boundaries     ...    -7.000000     7.000000 (x direction)
                      -7.000000     7.000000 (y direction)
                      -7.000000     7.000000 (z direction)
Entering PlotGrid3d with Plottype =1
choosing x-range =    -7.000000 ..     7.000000
choosing y-range =    -7.000000 ..     7.000000
choosing z-range =    -7.000000 ..     7.000000


           ************************************************************
           *        Program running with 32 parallel MPI-processes    *
           *              working on a common directory               *
           ************************************************************

GBW-File       ... Rh_ano-r3_pbe.gbw
PlotType       ... MO-PLOT
MO/Operator    ... 15 1
Output file    ... Rh_ano-r3_pbe_phi_b_scf_15_re.cube
Format         ... Gaussian-Cube
Resolution     ... 120 120 120
Boundaries     ...    -7.000000     7.000000 (x direction)
                      -7.000000     7.000000 (y direction)
                      -7.000000     7.000000 (z direction)
Entering PlotGrid3d with Plottype =1
choosing x-range =    -7.000000 ..     7.000000
choosing y-range =    -7.000000 ..     7.000000
choosing z-range =    -7.000000 ..     7.000000


           ************************************************************
           *        Program running with 32 parallel MPI-processes    *
           *              working on a common directory               *
           ************************************************************

GBW-File       ... Rh_ano-r3_pbe.gbw
PlotType       ... MO-PLOT
MO/Operator    ... 16 1
Output file    ... Rh_ano-r3_pbe_phi_b_scf_16_re.cube
Format         ... Gaussian-Cube
Resolution     ... 120 120 120
Boundaries     ...    -7.000000     7.000000 (x direction)
                      -7.000000     7.000000 (y direction)
                      -7.000000     7.000000 (z direction)
Entering PlotGrid3d with Plottype =1
choosing x-range =    -7.000000 ..     7.000000
choosing y-range =    -7.000000 ..     7.000000
choosing z-range =    -7.000000 ..     7.000000


           ************************************************************
           *        Program running with 32 parallel MPI-processes    *
           *              working on a common directory               *
           ************************************************************

GBW-File       ... Rh_ano-r3_pbe.gbw
PlotType       ... MO-PLOT
MO/Operator    ... 17 1
Output file    ... Rh_ano-r3_pbe_phi_b_scf_17_re.cube
Format         ... Gaussian-Cube
Resolution     ... 120 120 120
Boundaries     ...    -7.000000     7.000000 (x direction)
                      -7.000000     7.000000 (y direction)
                      -7.000000     7.000000 (z direction)
Entering PlotGrid3d with Plottype =1
choosing x-range =    -7.000000 ..     7.000000
choosing y-range =    -7.000000 ..     7.000000
choosing z-range =    -7.000000 ..     7.000000


           ************************************************************
           *        Program running with 32 parallel MPI-processes    *
           *              working on a common directory               *
           ************************************************************

GBW-File       ... Rh_ano-r3_pbe.gbw
PlotType       ... MO-PLOT
MO/Operator    ... 18 1
Output file    ... Rh_ano-r3_pbe_phi_b_scf_18_re.cube
Format         ... Gaussian-Cube
Resolution     ... 120 120 120
Boundaries     ...    -7.000000     7.000000 (x direction)
                      -7.000000     7.000000 (y direction)
                      -7.000000     7.000000 (z direction)
Entering PlotGrid3d with Plottype =1
choosing x-range =    -7.000000 ..     7.000000
choosing y-range =    -7.000000 ..     7.000000
choosing z-range =    -7.000000 ..     7.000000


           ************************************************************
           *        Program running with 32 parallel MPI-processes    *
           *              working on a common directory               *
           ************************************************************

GBW-File       ... Rh_ano-r3_pbe.gbw
PlotType       ... MO-PLOT
MO/Operator    ... 19 1
Output file    ... Rh_ano-r3_pbe_phi_b_scf_19_re.cube
Format         ... Gaussian-Cube
Resolution     ... 120 120 120
Boundaries     ...    -7.000000     7.000000 (x direction)
                      -7.000000     7.000000 (y direction)
                      -7.000000     7.000000 (z direction)
Entering PlotGrid3d with Plottype =1
choosing x-range =    -7.000000 ..     7.000000
choosing y-range =    -7.000000 ..     7.000000
choosing z-range =    -7.000000 ..     7.000000


           ************************************************************
           *        Program running with 32 parallel MPI-processes    *
           *              working on a common directory               *
           ************************************************************

GBW-File       ... Rh_ano-r3_pbe.gbw
PlotType       ... MO-PLOT
MO/Operator    ... 20 1
Output file    ... Rh_ano-r3_pbe_phi_b_scf_20_re.cube
Format         ... Gaussian-Cube
Resolution     ... 120 120 120
Boundaries     ...    -7.000000     7.000000 (x direction)
                      -7.000000     7.000000 (y direction)
                      -7.000000     7.000000 (z direction)
Entering PlotGrid3d with Plottype =1

                            ***************************************
                            *     ORCA property calculations      *
                            ***************************************

                                    ---------------------
                                    Active property flags
                                    ---------------------
   (+) Dipole Moment


------------------------------------------------------------------------------
                       ORCA ELECTRIC PROPERTIES CALCULATION
------------------------------------------------------------------------------

Dipole Moment Calculation                       ... on
Quadrupole Moment Calculation                   ... off
Polarizability Calculation                      ... off
GBWName                                         ... Rh_ano-r3_pbe.gbw
Electron density                                ... Rh_ano-r3_pbe.scfp
The origin for moment calculation is the CENTER OF MASS  = ( 0.000000,  0.000000  0.000000)

-------------
DIPOLE MOMENT
-------------
                                X             Y             Z
Electronic contribution:     -0.00000      -0.00000      -0.00000
Nuclear contribution   :      0.00000       0.00000       0.00000
                        -----------------------------------------
Total Dipole Moment    :     -0.00000      -0.00000      -0.00000
                        -----------------------------------------
Magnitude (a.u.)       :      0.00000
Magnitude (Debye)      :      0.00000



--------------------
Rotational spectrum 
--------------------
 
Rotational constants in cm-1:     0.000000     0.000000     0.000000 
Rotational constants in MHz :     0.000000     0.000000     0.000000 

 Dipole components along the rotational axes: 
x,y,z [a.u.] :    -0.000000    -0.000000    -0.000000 
x,y,z [Debye]:    -0.000000    -0.000000    -0.000000 

 

Timings for individual modules:

Sum of individual times         ...     2219.073 sec (=  36.985 min)
GTO integral calculation        ...       47.065 sec (=   0.784 min)   2.1 %
SCF iterations                  ...     2018.427 sec (=  33.640 min)  91.0 %
Orbital/Density plot generation ...      153.582 sec (=   2.560 min)   6.9 %
                             ****ORCA TERMINATED NORMALLY****
TOTAL RUN TIME: 0 days 0 hours 37 minutes 8 seconds 934 msec
