
                                 *****************
                                 * O   R   C   A *
                                 *****************

                                            #,                                       
                                            ###                                      
                                            ####                                     
                                            #####                                    
                                            ######                                   
                                           ########,                                 
                                     ,,################,,,,,                         
                               ,,#################################,,                 
                          ,,##########################################,,             
                       ,#########################################, ''#####,          
                    ,#############################################,,   '####,        
                  ,##################################################,,,,####,       
                ,###########''''           ''''###############################       
              ,#####''   ,,,,##########,,,,          '''####'''          '####       
            ,##' ,,,,###########################,,,                        '##       
           ' ,,###''''                  '''############,,,                           
         ,,##''                                '''############,,,,        ,,,,,,###''
      ,#''                                            '''#######################'''  
     '                                                          ''''####''''         
             ,#######,   #######,   ,#######,      ##                                
            ,#'     '#,  ##    ##  ,#'     '#,    #''#        ######   ,####,        
            ##       ##  ##   ,#'  ##            #'  '#       #        #'  '#        
            ##       ##  #######   ##           ,######,      #####,   #    #        
            '#,     ,#'  ##    ##  '#,     ,#' ,#      #,         ##   #,  ,#        
             '#######'   ##     ##  '#######'  #'      '#     #####' # '####'        



                  #######################################################
                  #                        -***-                        #
                  #          Department of theory and spectroscopy      #
                  #    Directorship and core code : Frank Neese         #
                  #        Max Planck Institute fuer Kohlenforschung    #
                  #                Kaiser Wilhelm Platz 1               #
                  #                 D-45470 Muelheim/Ruhr               #
                  #                      Germany                        #
                  #                                                     #
                  #                  All rights reserved                #
                  #                        -***-                        #
                  #######################################################


                         Program Version 5.0.1 -  RELEASE  -


 With contributions from (in alphabetic order):
   Daniel Aravena         : Magnetic Suceptibility
   Michael Atanasov       : Ab Initio Ligand Field Theory (pilot matlab implementation)
   Alexander A. Auer      : GIAO ZORA, VPT2 properties, NMR spectrum
   Ute Becker             : Parallelization
   Giovanni Bistoni       : ED, misc. LED, open-shell LED, HFLD
   Martin Brehm           : Molecular dynamics
   Dmytro Bykov           : SCF Hessian
   Vijay G. Chilkuri      : MRCI spin determinant printing, contributions to CSF-ICE
   Dipayan Datta          : RHF DLPNO-CCSD density
   Achintya Kumar Dutta   : EOM-CC, STEOM-CC
   Dmitry Ganyushin       : Spin-Orbit,Spin-Spin,Magnetic field MRCI
   Miquel Garcia          : C-PCM and meta-GGA Hessian, CC/C-PCM, Gaussian charge scheme
   Yang Guo               : DLPNO-NEVPT2, F12-NEVPT2, CIM, IAO-localization
   Andreas Hansen         : Spin unrestricted coupled pair/coupled cluster methods
   Benjamin Helmich-Paris : MC-RPA, TRAH-SCF, COSX integrals
   Lee Huntington         : MR-EOM, pCC
   Robert Izsak           : Overlap fitted RIJCOSX, COSX-SCS-MP3, EOM
   Marcus Kettner         : VPT2
   Christian Kollmar      : KDIIS, OOCD, Brueckner-CCSD(T), CCSD density, CASPT2, CASPT2-K
   Simone Kossmann        : Meta GGA functionals, TD-DFT gradient, OOMP2, MP2 Hessian
   Martin Krupicka        : Initial AUTO-CI
   Lucas Lang             : DCDCAS
   Marvin Lechner         : AUTO-CI (C++ implementation), FIC-MRCC
   Dagmar Lenk            : GEPOL surface, SMD
   Dimitrios Liakos       : Extrapolation schemes; Compound Job, initial MDCI parallelization
   Dimitrios Manganas     : Further ROCIS development; embedding schemes
   Dimitrios Pantazis     : SARC Basis sets
   Anastasios Papadopoulos: AUTO-CI, single reference methods and gradients
   Taras Petrenko         : DFT Hessian,TD-DFT gradient, ASA, ECA, R-Raman, ABS, FL, XAS/XES, NRVS
   Peter Pinski           : DLPNO-MP2, DLPNO-MP2 Gradient
   Christoph Reimann      : Effective Core Potentials
   Marius Retegan         : Local ZFS, SOC
   Christoph Riplinger    : Optimizer, TS searches, QM/MM, DLPNO-CCSD(T), (RO)-DLPNO pert. Triples
   Tobias Risthaus        : Range-separated hybrids, TD-DFT gradient, RPA, STAB
   Michael Roemelt        : Original ROCIS implementation
   Masaaki Saitow         : Open-shell DLPNO-CCSD energy and density
   Barbara Sandhoefer     : DKH picture change effects
   Avijit Sen             : IP-ROCIS
   Kantharuban Sivalingam : CASSCF convergence, NEVPT2, FIC-MRCI
   Bernardo de Souza      : ESD, SOC TD-DFT
   Georgi Stoychev        : AutoAux, RI-MP2 NMR, DLPNO-MP2 response
   Willem Van den Heuvel  : Paramagnetic NMR
   Boris Wezisla          : Elementary symmetry handling
   Frank Wennmohs         : Technical directorship


 We gratefully acknowledge several colleagues who have allowed us to
 interface, adapt or use parts of their codes:
   Stefan Grimme, W. Hujo, H. Kruse, P. Pracht,  : VdW corrections, initial TS optimization,
                  C. Bannwarth, S. Ehlert          DFT functionals, gCP, sTDA/sTD-DF
   Ed Valeev, F. Pavosevic, A. Kumar             : LibInt (2-el integral package), F12 methods
   Garnet Chan, S. Sharma, J. Yang, R. Olivares  : DMRG
   Ulf Ekstrom                                   : XCFun DFT Library
   Mihaly Kallay                                 : mrcc  (arbitrary order and MRCC methods)
   Jiri Pittner, Ondrej Demel                    : Mk-CCSD
   Frank Weinhold                                : gennbo (NPA and NBO analysis)
   Christopher J. Cramer and Donald G. Truhlar   : smd solvation model
   Lars Goerigk                                  : TD-DFT with DH, B97 family of functionals
   V. Asgeirsson, H. Jonsson                     : NEB implementation
   FAccTs GmbH                                   : IRC, NEB, NEB-TS, DLPNO-Multilevel, CI-OPT
                                                   MM, QMMM, 2- and 3-layer-ONIOM, Crystal-QMMM,
                                                   LR-CPCM, SF, NACMEs, symmetry and pop. for TD-DFT,
                                                   nearIR, NL-DFT gradient (VV10), updates on ESD,
                                                   ML-optimized integration grids
   S Lehtola, MJT Oliveira, MAL Marques          : LibXC Library
   Liviu Ungur et al                             : ANISO software


 Your calculation uses the libint2 library for the computation of 2-el integrals
 For citations please refer to: http://libint.valeyev.net

 Your ORCA version has been built with support for libXC version: 5.1.0
 For citations please refer to: https://tddft.org/programs/libxc/

 This ORCA versions uses:
   CBLAS   interface :  Fast vector & matrix operations
   LAPACKE interface :  Fast linear algebra routines
   SCALAPACK package :  Parallel linear algebra routines
   Shared memory     :  Shared parallel matrices
   BLAS/LAPACK       :  OpenBLAS 0.3.15  USE64BITINT DYNAMIC_ARCH NO_AFFINITY Haswell SINGLE_THREADED
        Core in use  :  Haswell
   Copyright (c) 2011-2014, The OpenBLAS Project


SCAN-COORDS

Reading of a custom basis requested
Basis file         : /cluster/home/ambr/projects/zora/row5/calcs_gto/Tc_ano-r3.basis
READING GTO-BASIS: TECHNETIUM
Basis successfully read

================================================================================

----- Orbital basis set information -----
================================================================================
                                        WARNINGS
                       Please study these warnings very carefully!
================================================================================


INFO   : the flag for use of the SHARK integral package has been found!

================================================================================
                                       INPUT FILE
================================================================================
NAME = Tc_ano-r3_pbe.inp
|  1> !uks pbe nori verytightscf soscf notrah
|  2> 
|  3> %pal
|  4>   nprocs 32
|  5> end
|  6> %coords
|  7>   charge 0
|  8>   mult 6
|  9>   units bohrs
| 10>   coords
| 11>     Tc 0.0 0.0 0.0
| 12>   end
| 13> end
| 14> %basis
| 15>   gtoname "/cluster/home/ambr/projects/zora/row5/calcs_gto/Tc_ano-r3.basis"
| 16>   delECP Tc
| 17> end
| 18> %plots
| 19>   format gaussian_cube
| 20>   dim1 120
| 21>   dim2 120
| 22>   dim3 120
| 23>   MO("Tc_ano-r3_pbe_phi_a_scf_0_re.cube",0,0);
| 24>   MO("Tc_ano-r3_pbe_phi_a_scf_1_re.cube",1,0);
| 25>   MO("Tc_ano-r3_pbe_phi_a_scf_2_re.cube",2,0);
| 26>   MO("Tc_ano-r3_pbe_phi_a_scf_3_re.cube",3,0);
| 27>   MO("Tc_ano-r3_pbe_phi_a_scf_4_re.cube",4,0);
| 28>   MO("Tc_ano-r3_pbe_phi_a_scf_5_re.cube",5,0);
| 29>   MO("Tc_ano-r3_pbe_phi_a_scf_6_re.cube",6,0);
| 30>   MO("Tc_ano-r3_pbe_phi_a_scf_7_re.cube",7,0);
| 31>   MO("Tc_ano-r3_pbe_phi_a_scf_8_re.cube",8,0);
| 32>   MO("Tc_ano-r3_pbe_phi_a_scf_9_re.cube",9,0);
| 33>   MO("Tc_ano-r3_pbe_phi_a_scf_10_re.cube",10,0);
| 34>   MO("Tc_ano-r3_pbe_phi_a_scf_11_re.cube",11,0);
| 35>   MO("Tc_ano-r3_pbe_phi_a_scf_12_re.cube",12,0);
| 36>   MO("Tc_ano-r3_pbe_phi_a_scf_13_re.cube",13,0);
| 37>   MO("Tc_ano-r3_pbe_phi_a_scf_14_re.cube",14,0);
| 38>   MO("Tc_ano-r3_pbe_phi_a_scf_15_re.cube",15,0);
| 39>   MO("Tc_ano-r3_pbe_phi_a_scf_16_re.cube",16,0);
| 40>   MO("Tc_ano-r3_pbe_phi_a_scf_17_re.cube",17,0);
| 41>   MO("Tc_ano-r3_pbe_phi_a_scf_18_re.cube",18,0);
| 42>   MO("Tc_ano-r3_pbe_phi_a_scf_19_re.cube",19,0);
| 43>   MO("Tc_ano-r3_pbe_phi_a_scf_20_re.cube",20,0);
| 44>   MO("Tc_ano-r3_pbe_phi_a_scf_21_re.cube",21,0);
| 45>   MO("Tc_ano-r3_pbe_phi_a_scf_22_re.cube",22,0);
| 46>   MO("Tc_ano-r3_pbe_phi_a_scf_23_re.cube",23,0);
| 47>   MO("Tc_ano-r3_pbe_phi_b_scf_0_re.cube",0,1);
| 48>   MO("Tc_ano-r3_pbe_phi_b_scf_1_re.cube",1,1);
| 49>   MO("Tc_ano-r3_pbe_phi_b_scf_2_re.cube",2,1);
| 50>   MO("Tc_ano-r3_pbe_phi_b_scf_3_re.cube",3,1);
| 51>   MO("Tc_ano-r3_pbe_phi_b_scf_4_re.cube",4,1);
| 52>   MO("Tc_ano-r3_pbe_phi_b_scf_5_re.cube",5,1);
| 53>   MO("Tc_ano-r3_pbe_phi_b_scf_6_re.cube",6,1);
| 54>   MO("Tc_ano-r3_pbe_phi_b_scf_7_re.cube",7,1);
| 55>   MO("Tc_ano-r3_pbe_phi_b_scf_8_re.cube",8,1);
| 56>   MO("Tc_ano-r3_pbe_phi_b_scf_9_re.cube",9,1);
| 57>   MO("Tc_ano-r3_pbe_phi_b_scf_10_re.cube",10,1);
| 58>   MO("Tc_ano-r3_pbe_phi_b_scf_11_re.cube",11,1);
| 59>   MO("Tc_ano-r3_pbe_phi_b_scf_12_re.cube",12,1);
| 60>   MO("Tc_ano-r3_pbe_phi_b_scf_13_re.cube",13,1);
| 61>   MO("Tc_ano-r3_pbe_phi_b_scf_14_re.cube",14,1);
| 62>   MO("Tc_ano-r3_pbe_phi_b_scf_15_re.cube",15,1);
| 63>   MO("Tc_ano-r3_pbe_phi_b_scf_16_re.cube",16,1);
| 64>   MO("Tc_ano-r3_pbe_phi_b_scf_17_re.cube",17,1);
| 65>   MO("Tc_ano-r3_pbe_phi_b_scf_18_re.cube",18,1);
| 66> end
| 67> 
| 68>                          ****END OF INPUT****
================================================================================

                       ****************************
                       * Single Point Calculation *
                       ****************************

---------------------------------
CARTESIAN COORDINATES (ANGSTROEM)
---------------------------------
  Tc     0.000000    0.000000    0.000000

----------------------------
CARTESIAN COORDINATES (A.U.)
----------------------------
  NO LB      ZA    FRAG     MASS         X           Y           Z
   0 Tc   43.0000    0    97.000    0.000000    0.000000    0.000000

--------------------------------
INTERNAL COORDINATES (ANGSTROEM)
--------------------------------
 Tc     0   0   0     0.000000000000     0.00000000     0.00000000

---------------------------
INTERNAL COORDINATES (A.U.)
---------------------------
 Tc     0   0   0     0.000000000000     0.00000000     0.00000000

---------------------
BASIS SET INFORMATION
---------------------
There are 1 groups of distinct atoms

 Group   1 Type Tc  : 184s96p60d18f8g3h contracted to 8s6p5d3f2g1h pattern {2323232323232323/161616161616/1212121212/666/44/3}

Atom   0Tc   basis set group =>   1

Checking for AutoStart:
The File: Tc_ano-r3_pbe.gbw exists
Trying to determine its content:
     ... Fine, the file contains calculation information
     ... Fine, the calculation information was read
     ... Fine, the file contains a basis set
     ... Fine, the basis set was read
     ... Fine, the file contains a geometry
     ... Fine, the geometry was read
     ... Fine, the file contains a set of orbitals
     ... Fine, the orbitals can be read
     => possible old guess file was deleted
     => GBW file was renamed to GES file
     => GES file is set as startup file
     => Guess is set to MORead
     ... now leaving AutoStart



           ************************************************************
           *        Program running with 32 parallel MPI-processes    *
           *              working on a common directory               *
           ************************************************************
------------------------------------------------------------------------------
                           ORCA GTO INTEGRAL CALCULATION
------------------------------------------------------------------------------
------------------------------------------------------------------------------
                   ___                                                        
                  /   \      - P O W E R E D   B Y -                         
                 /     \                                                     
                 |  |  |   _    _      __       _____    __    __             
                 |  |  |  | |  | |    /  \     |  _  \  |  |  /  |          
                  \  \/   | |  | |   /    \    | | | |  |  | /  /          
                 / \  \   | |__| |  /  /\  \   | |_| |  |  |/  /          
                |  |  |   |  __  | /  /__\  \  |    /   |      \           
                |  |  |   | |  | | |   __   |  |    \   |  |\   \          
                \     /   | |  | | |  |  |  |  | |\  \  |  | \   \       
                 \___/    |_|  |_| |__|  |__|  |_| \__\ |__|  \__/        
                                                                              
                      - O R C A' S   B I G   F R I E N D -                    
                                      &                                       
                       - I N T E G R A L  F E E D E R -                       
                                                                              
 v1 FN, 2020, v2 2021                                                         
------------------------------------------------------------------------------


Reading SHARK input file Tc_ano-r3_pbe.SHARKINP.tmp ... ok
----------------------
SHARK INTEGRAL PACKAGE
----------------------

Number of atoms                             ...      1
Number of basis functions                   ...    101
Number of shells                            ...     25
Maximum angular momentum                    ...      5
Integral batch strategy                     ... SHARK/LIBINT Hybrid
RI-J (if used) integral strategy            ... SPLIT-RIJ (Revised 2003 algorithm where possible)
Printlevel                                  ...      1
Contraction scheme used                     ... SEGMENTED contraction
Coulomb Range Separation                    ... NOT USED
Exchange Range Separation                   ... NOT USED
Finite Nucleus Model                        ... NOT USED
Auxiliary Coulomb fitting basis             ... NOT available
Auxiliary J/K fitting basis                 ... NOT available
Auxiliary Correlation fitting basis         ... NOT available
Auxiliary 'external' fitting basis          ... NOT available
Integral threshold                          ...     1.000000e-12
Primitive cut-off                           ...     1.000000e-14
Primitive pair pre-selection threshold      ...     1.000000e-14

Calculating pre-screening integrals         ... done ( 22.7 sec) Dimension = 25
Organizing shell pair data                  ... done (  0.4 sec)
Shell pair information
Total number of shell pairs                 ...       325
Shell pairs after pre-screening             ...       325
Total number of primitive shell pairs       ...     71399
Primitive shell pairs kept                  ...     71399
          la=0 lb=0:     36 shell pairs
          la=1 lb=0:     48 shell pairs
          la=1 lb=1:     21 shell pairs
          la=2 lb=0:     40 shell pairs
          la=2 lb=1:     30 shell pairs
          la=2 lb=2:     15 shell pairs
          la=3 lb=0:     24 shell pairs
          la=3 lb=1:     18 shell pairs
          la=3 lb=2:     15 shell pairs
          la=3 lb=3:      6 shell pairs
          la=4 lb=0:     16 shell pairs
          la=4 lb=1:     12 shell pairs
          la=4 lb=2:     10 shell pairs
          la=4 lb=3:      6 shell pairs
          la=4 lb=4:      3 shell pairs
          la=5 lb=0:      8 shell pairs
          la=5 lb=1:      6 shell pairs
          la=5 lb=2:      5 shell pairs
          la=5 lb=3:      3 shell pairs
          la=5 lb=4:      2 shell pairs
          la=5 lb=5:      1 shell pairs

Calculating one electron integrals          ... done (  0.2 sec)
Calculating Nuclear repulsion               ... done (  0.0 sec) ENN=      0.000000000000 Eh

SHARK setup successfully completed in  23.7 seconds

Maximum memory used throughout the entire GTOINT-calculation: 386.5 MB


           ************************************************************
           *        Program running with 32 parallel MPI-processes    *
           *              working on a common directory               *
           ************************************************************
-------------------------------------------------------------------------------
                                 ORCA SCF
-------------------------------------------------------------------------------

------------
SCF SETTINGS
------------
Hamiltonian:
 Density Functional     Method          .... DFT(GTOs)
 Exchange Functional    Exchange        .... PBE
   PBE kappa parameter   XKappa         ....  0.804000
   PBE mue parameter    XMuePBE         ....  0.219520
 Correlation Functional Correlation     .... PBE
   PBE beta parameter  CBetaPBE         ....  0.066725
 LDA part of GGA corr.  LDAOpt          .... PW91-LDA
 Gradients option       PostSCFGGA      .... off
   Density functional embedding theory  .... OFF
   NL short-range parameter             ....  6.400000


General Settings:
 Integral files         IntName         .... Tc_ano-r3_pbe
 Hartree-Fock type      HFTyp           .... UHF
 Total Charge           Charge          ....    0
 Multiplicity           Mult            ....    6
 Number of Electrons    NEL             ....   43
 Basis Dimension        Dim             ....  101
 Nuclear Repulsion      ENuc            ....      0.0000000000 Eh

Convergence Acceleration:
 DIIS                   CNVDIIS         .... on
   Start iteration      DIISMaxIt       ....    12
   Startup error        DIISStart       ....  0.200000
   # of expansion vecs  DIISMaxEq       ....     5
   Bias factor          DIISBfac        ....   1.050
   Max. coefficient     DIISMaxC        ....  10.000
 Trust-Rad. Augm. Hess. CNVTRAH         .... off
 SOSCF                  CNVSOSCF        .... on
   Start iteration      SOSCFMaxIt      ....   150
   Startup grad/error   SOSCFStart      ....  0.003300
 Level Shifting         CNVShift        .... on
   Level shift para.    LevelShift      ....    0.2500
   Turn off err/grad.   ShiftErr        ....    0.0010
 Zerner damping         CNVZerner       .... off
 Static damping         CNVDamp         .... on
   Fraction old density DampFac         ....    0.7000
   Max. Damping (<1)    DampMax         ....    0.9800
   Min. Damping (>=0)   DampMin         ....    0.0000
   Turn off err/grad.   DampErr         ....    0.1000
 Fernandez-Rico         CNVRico         .... off

SCF Procedure:
 Maximum # iterations   MaxIter         ....   125
 SCF integral mode      SCFMode         .... Direct
   Integral package                     .... SHARK and LIBINT hybrid scheme
 Reset frequency        DirectResetFreq ....    20
 Integral Threshold     Thresh          ....  1.000e-12 Eh
 Primitive CutOff       TCut            ....  1.000e-14 Eh

Convergence Tolerance:
 Convergence Check Mode ConvCheckMode   .... Total+1el-Energy
 Convergence forced     ConvForced      .... 0
 Energy Change          TolE            ....  1.000e-09 Eh
 1-El. energy change                    ....  1.000e-06 Eh
 Orbital Gradient       TolG            ....  2.000e-06
 Orbital Rotation angle TolX            ....  2.000e-06
 DIIS Error             TolErr          ....  1.000e-08


Diagonalization of the overlap matrix:
Smallest eigenvalue                        ... 1.000e+00
Time for diagonalization                   ...    0.015 sec
Threshold for overlap eigenvalues          ... 1.000e-08
Number of eigenvalues below threshold      ... 0
Time for construction of square roots      ...    0.048 sec
Total time needed                          ...    0.064 sec

---------------------
INITIAL GUESS: MOREAD
---------------------
Guess MOs are being read from file: Tc_ano-r3_pbe.ges
Input Geometry matches current geometry (good)
Atom 0: N(Shells)= 25 and 71 - projection required
Input basis set needs projection
NBasis(read)= 183
NBasis(calc)= 101
Basis set overlap was calculated
Using GuessMode=FMatrix for the initial guess
C*T matrix was formed
Effective Fockian was calculated
Effective Fockian was diagonalized
Initial density was built
C*T matrix was formed
Effective Fockian was calculated
Effective Fockian was diagonalized
Initial density was built
                      ------------------
                      INITIAL GUESS DONE (   0.1 sec)
                      ------------------
-------------------
DFT GRID GENERATION
-------------------

General Integration Accuracy     IntAcc      ... 4.388
Radial Grid Type                 RadialGrid  ... OptM3 with GC (2021)
Angular Grid (max. ang.)         AngularGrid ... 4 (Lebedev-302)
Angular grid pruning method      GridPruning ... 4 (adaptive)
Weight generation scheme         WeightScheme... Becke
Basis function cutoff            BFCut       ... 1.0000e-12
Integration weight cutoff        WCut        ... 1.0000e-14
Angular grids for H and He will be reduced by one unit
Partially contracted basis set               ... off
Rotationally invariant grid construction     ... off

Total number of grid points                  ...    27544
Total number of batches                      ...      431
Average number of points per batch           ...       63
Average number of grid points per atom       ...    27544
Time for grid setup =    0.931 sec

--------------
SCF ITERATIONS
--------------
ITER       Energy         Delta-E        Max-DP      RMS-DP      [F,P]     Damp
               ***  Starting incremental Fock matrix formation  ***
  0  -4148.9594392247   0.000000000000 0.00371752  0.00008669  0.3399583 0.7000
                      *** Initiating the SOSCF procedure ***
                      *** Re-Reading the Fockian *** 
                      *** Removing any level shift *** 
ITER      Energy       Delta-E        Grad      Rot      Max-DP    RMS-DP
  1  -4148.96107974  -0.0016405105  0.001766  0.001766  0.009245  0.000203
               *** Restarting incremental Fock matrix formation ***
  2  -4148.96416052  -0.0030807808  0.005791  0.011833  0.011851  0.000221
  3  -4148.96388933   0.0002711844  0.008387  0.008233  0.007312  0.000133
  4  -4148.96442021  -0.0005308769  0.001088  0.000265  0.000267  0.000006
  5  -4148.96442197  -0.0000017609  0.000458  0.000137  0.000134  0.000002
  6  -4148.96442234  -0.0000003674  0.000011  0.000019  0.000015  0.000000
  7  -4148.96442234  -0.0000000006  0.000004  0.000003  0.000004  0.000000
                 **** Energy Check signals convergence ****
              ***Rediagonalizing the Fockian in SOSCF/NRSCF***

               *****************************************************
               *                     SUCCESS                       *
               *           SCF CONVERGED AFTER   8 CYCLES          *
               *****************************************************


----------------
TOTAL SCF ENERGY
----------------

Total Energy       :        -4148.96442234 Eh         -112899.06161 eV

Components:
Nuclear Repulsion  :            0.00000000 Eh               0.00000 eV
Electronic Energy  :        -4148.96442234 Eh         -112899.06161 eV
One Electron Energy:        -5760.14558473 Eh         -156741.52995 eV
Two Electron Energy:         1611.18116239 Eh           43842.46834 eV

Virial components:
Potential Energy   :        -8835.24464249 Eh         -240419.22940 eV
Kinetic Energy     :         4686.28022015 Eh          127520.16779 eV
Virial Ratio       :            1.88534279


DFT components:
N(Alpha)           :       23.999999997926 electrons
N(Beta)            :       18.999999998078 electrons
N(Total)           :       42.999999996004 electrons
E(X)               :     -126.331859641047 Eh       
E(C)               :       -2.150783116125 Eh       
E(XC)              :     -128.482642757173 Eh       
DFET-embed. en.    :        0.000000000000 Eh       

---------------
SCF CONVERGENCE
---------------

  Last Energy change         ...   -8.9130e-11  Tolerance :   1.0000e-09
  Last MAX-Density change    ...    4.4826e-06  Tolerance :   1.0000e-08
  Last RMS-Density change    ...    3.9675e-08  Tolerance :   1.0000e-09
  Last Orbital Gradient      ...    2.8091e-07  Tolerance :   2.0000e-06
  Last Orbital Rotation      ...    3.8965e-06  Tolerance :   2.0000e-06

             **** THE GBW FILE WAS UPDATED (Tc_ano-r3_pbe.gbw) ****
             **** DENSITY Tc_ano-r3_pbe.scfp WAS UPDATED ****
             **** ENERGY FILE WAS UPDATED (Tc_ano-r3_pbe.en.tmp) ****
----------------------
UHF SPIN CONTAMINATION
----------------------

Warning: in a DFT calculation there is little theoretical justification to 
         calculate <S**2> as in Hartree-Fock theory. We will do it anyways
         but you should keep in mind that the values have only limited relevance

Expectation value of <S**2>     :     8.751018
Ideal value S*(S+1) for S=2.5   :     8.750000
Deviation                       :     0.001018

             **** THE GBW FILE WAS UPDATED (Tc_ano-r3_pbe.gbw) ****
             **** DENSITY Tc_ano-r3_pbe.scfp WAS UPDATED ****
----------------
ORBITAL ENERGIES
----------------
                 SPIN UP ORBITALS
  NO   OCC          E(Eh)            E(eV) 
   0   1.0000    -720.583223    -19608.0664 
   1   1.0000    -100.403931     -2732.1299 
   2   1.0000     -95.897407     -2609.5011 
   3   1.0000     -95.889237     -2609.2788 
   4   1.0000     -95.889235     -2609.2787 
   5   1.0000     -17.215603      -468.4604 
   6   1.0000     -14.894362      -405.2962 
   7   1.0000     -14.878333      -404.8600 
   8   1.0000     -14.878330      -404.8599 
   9   1.0000      -9.252892      -251.7840 
  10   1.0000      -9.250198      -251.7107 
  11   1.0000      -9.250197      -251.7107 
  12   1.0000      -9.242106      -251.4905 
  13   1.0000      -9.233908      -251.2674 
  14   1.0000      -2.316488       -63.0349 
  15   1.0000      -1.580093       -42.9965 
  16   1.0000      -1.540598       -41.9218 
  17   1.0000      -1.540588       -41.9215 
  18   1.0000      -0.225809        -6.1446 
  19   1.0000      -0.221172        -6.0184 
  20   1.0000      -0.221167        -6.0183 
  21   1.0000      -0.207578        -5.6485 
  22   1.0000      -0.181478        -4.9383 
  23   1.0000      -0.148599        -4.0436 
  24   0.0000       0.012286         0.3343 
  25   0.0000       0.026029         0.7083 
  26   0.0000       0.026035         0.7084 
  27   0.0000       0.112236         3.0541 
  28   0.0000       0.202426         5.5083 
  29   0.0000       0.203999         5.5511 
  30   0.0000       0.204001         5.5512 
  31   0.0000       0.209835         5.7099 
  32   0.0000       0.214445         5.8353 
  33   0.0000       0.554686        15.0938 
  34   0.0000       0.555958        15.1284 
  35   0.0000       0.555962        15.1285 
  36   0.0000       0.558652        15.2017 
  37   0.0000       0.563982        15.3467 
  38   0.0000       0.572710        15.5842 
  39   0.0000       0.572711        15.5843 
  40   0.0000       1.043189        28.3866 
  41   0.0000       1.068428        29.0734 
  42   0.0000       1.068436        29.0736 
  43   0.0000       1.112421        30.2705 
  44   0.0000       1.321386        35.9567 
  45   0.0000       1.324232        36.0342 
  46   0.0000       1.324236        36.0343 
  47   0.0000       1.334968        36.3263 
  48   0.0000       1.353246        36.8237 
  49   0.0000       1.674145        45.5558 
  50   0.0000       1.675416        45.5904 
  51   0.0000       1.675419        45.5905 
  52   0.0000       1.677765        45.6543 
  53   0.0000       1.695501        46.1369 
  54   0.0000       1.710787        46.5529 
  55   0.0000       1.710790        46.5530 
  56   0.0000       1.855711        50.4965 
  57   0.0000       1.856236        50.5107 
  58   0.0000       1.856238        50.5108 
  59   0.0000       1.856988        50.5312 
  60   0.0000       1.866524        50.7907 
  61   0.0000       1.871071        50.9144 
  62   0.0000       1.871075        50.9145 
  63   0.0000       1.883284        51.2468 
  64   0.0000       1.884644        51.2838 
  65   0.0000       4.454334       121.2086 
  66   0.0000       4.455598       121.2430 
  67   0.0000       4.455600       121.2430 
  68   0.0000       4.457942       121.3068 
  69   0.0000       4.474620       121.7606 
  70   0.0000       4.488995       122.1518 
  71   0.0000       4.488998       122.1518 
  72   0.0000       4.851264       132.0096 
  73   0.0000       4.855160       132.1156 
  74   0.0000       4.855163       132.1157 
  75   0.0000       4.866630       132.4277 
  76   0.0000       4.887017       132.9825 
  77   0.0000       5.570178       151.5723 
  78   0.0000       5.570263       151.5746 
  79   0.0000       5.570263       151.5746 
  80   0.0000       5.570331       151.5764 
  81   0.0000       5.588298       152.0653 
  82   0.0000       5.594125       152.2239 
  83   0.0000       5.594130       152.2240 
  84   0.0000       5.611827       152.7056 
  85   0.0000       5.613174       152.7422 
  86   0.0000       5.704414       155.2250 
  87   0.0000       5.732225       155.9818 
  88   0.0000       5.732233       155.9820 
  89   0.0000       5.827145       158.5647 
  90   0.0000       5.827458       158.5732 
  91   0.0000       5.827458       158.5732 
  92   0.0000       5.827755       158.5813 
  93   0.0000       5.843989       159.0230 
  94   0.0000       5.846688       159.0965 
  95   0.0000       5.846694       159.0966 
  96   0.0000       5.854396       159.3062 
  97   0.0000       5.857443       159.3891 
  98   0.0000       5.873184       159.8174 
  99   0.0000       5.873184       159.8175 
 100   0.0000       6.145754       167.2345 

                 SPIN DOWN ORBITALS
  NO   OCC          E(Eh)            E(eV) 
   0   1.0000    -720.582759    -19608.0537 
   1   1.0000    -100.386844     -2731.6649 
   2   1.0000     -95.882599     -2609.0982 
   3   1.0000     -95.877679     -2608.9643 
   4   1.0000     -95.877677     -2608.9642 
   5   1.0000     -17.205770      -468.1928 
   6   1.0000     -14.881817      -404.9548 
   7   1.0000     -14.868502      -404.5925 
   8   1.0000     -14.868499      -404.5924 
   9   1.0000      -9.235709      -251.3164 
  10   1.0000      -9.232645      -251.2330 
  11   1.0000      -9.232643      -251.2330 
  12   1.0000      -9.224649      -251.0155 
  13   1.0000      -9.223342      -250.9799 
  14   1.0000      -2.221459       -60.4490 
  15   1.0000      -1.463474       -39.8231 
  16   1.0000      -1.451593       -39.4998 
  17   1.0000      -1.451588       -39.4997 
  18   1.0000      -0.124342        -3.3835 
  19   0.0000      -0.114682        -3.1207 
  20   0.0000      -0.109769        -2.9870 
  21   0.0000      -0.109760        -2.9867 
  22   0.0000      -0.090932        -2.4744 
  23   0.0000      -0.083238        -2.2650 
  24   0.0000       0.086493         2.3536 
  25   0.0000       0.086533         2.3547 
  26   0.0000       0.096088         2.6147 
  27   0.0000       0.168729         4.5914 
  28   0.0000       0.249262         6.7828 
  29   0.0000       0.268260         7.2997 
  30   0.0000       0.268341         7.3019 
  31   0.0000       0.274106         7.4588 
  32   0.0000       0.274517         7.4700 
  33   0.0000       0.629728        17.1358 
  34   0.0000       0.633532        17.2393 
  35   0.0000       0.633555        17.2399 
  36   0.0000       0.643183        17.5019 
  37   0.0000       0.646427        17.5902 
  38   0.0000       0.646440        17.5905 
  39   0.0000       0.652029        17.7426 
  40   0.0000       1.148350        31.2482 
  41   0.0000       1.148376        31.2489 
  42   0.0000       1.149655        31.2837 
  43   0.0000       1.197859        32.5954 
  44   0.0000       1.402979        38.1770 
  45   0.0000       1.411567        38.4107 
  46   0.0000       1.415193        38.5094 
  47   0.0000       1.415209        38.5098 
  48   0.0000       1.429888        38.9092 
  49   0.0000       1.782828        48.5132 
  50   0.0000       1.787736        48.6468 
  51   0.0000       1.787742        48.6469 
  52   0.0000       1.792094        48.7653 
  53   0.0000       1.803568        49.0776 
  54   0.0000       1.803578        49.0778 
  55   0.0000       1.809560        49.2406 
  56   0.0000       1.955500        53.2119 
  57   0.0000       1.956418        53.2369 
  58   0.0000       1.956420        53.2369 
  59   0.0000       1.957742        53.2729 
  60   0.0000       1.962509        53.4026 
  61   0.0000       1.971378        53.6439 
  62   0.0000       1.974191        53.7205 
  63   0.0000       1.974193        53.7205 
  64   0.0000       1.976450        53.7819 
  65   0.0000       4.545033       123.6766 
  66   0.0000       4.546856       123.7262 
  67   0.0000       4.546859       123.7263 
  68   0.0000       4.547512       123.7441 
  69   0.0000       4.561516       124.1252 
  70   0.0000       4.561521       124.1253 
  71   0.0000       4.563586       124.1815 
  72   0.0000       4.924946       134.0146 
  73   0.0000       4.926255       134.0502 
  74   0.0000       4.930081       134.1543 
  75   0.0000       4.930089       134.1546 
  76   0.0000       4.945994       134.5873 
  77   0.0000       5.676269       154.4591 
  78   0.0000       5.677181       154.4840 
  79   0.0000       5.677185       154.4841 
  80   0.0000       5.678748       154.5266 
  81   0.0000       5.690048       154.8341 
  82   0.0000       5.693893       154.9387 
  83   0.0000       5.693898       154.9388 
  84   0.0000       5.694645       154.9592 
  85   0.0000       5.696538       155.0107 
  86   0.0000       5.780471       157.2946 
  87   0.0000       5.790009       157.5542 
  88   0.0000       5.790016       157.5543 
  89   0.0000       5.948748       161.8737 
  90   0.0000       5.949274       161.8880 
  91   0.0000       5.949275       161.8880 
  92   0.0000       5.949753       161.9010 
  93   0.0000       5.962287       162.2421 
  94   0.0000       5.963196       162.2668 
  95   0.0000       5.963209       162.2672 
  96   0.0000       5.970339       162.4612 
  97   0.0000       5.971114       162.4823 
  98   0.0000       5.971120       162.4824 
  99   0.0000       5.971667       162.4973 
 100   0.0000       6.202876       168.7888 

                    ********************************
                    * MULLIKEN POPULATION ANALYSIS *
                    ********************************

--------------------------------------------
MULLIKEN ATOMIC CHARGES AND SPIN POPULATIONS
--------------------------------------------
   0 Tc:   -0.000000    5.000000
Sum of atomic charges         :   -0.0000000
Sum of atomic spin populations:    5.0000000

-----------------------------------------------------
MULLIKEN REDUCED ORBITAL CHARGES AND SPIN POPULATIONS
-----------------------------------------------------
CHARGE
  0 Tcs       :     8.999912  s :     8.999912
      pz      :     5.999930  p :    17.999699
      px      :     5.999886
      py      :     5.999883
      dz2     :     3.001817  d :    15.999797
      dxz     :     3.005388
      dyz     :     3.066138
      dx2y2   :     3.017284
      dxy     :     3.909170
      f0      :     0.000059  f :     0.000281
      f+1     :     0.000053
      f-1     :     0.000045
      f+2     :     0.000007
      f-2     :     0.000023
      f+3     :     0.000049
      f-3     :     0.000045
      g0      :     0.000052  g :     0.000290
      g+1     :     0.000049
      g-1     :     0.000048
      g+2     :     0.000017
      g-2     :     0.000054
      g+3     :     0.000019
      g-3     :     0.000013
      g+4     :     0.000033
      g-4     :     0.000004
      h0      :     0.000000  h :     0.000020
      h+1     :     0.000000
      h-1     :     0.000000
      h+2     :     0.000000
      h-2     :     0.000000
      h+3     :     0.000001
      h-3     :     0.000000
      h+4     :     0.000003
      h-4     :     0.000001
      h+5     :     0.000007
      h-5     :     0.000007

SPIN
  0 Tcs       :     0.999959  s :     0.999959
      pz      :    -0.000047  p :    -0.000146
      px      :    -0.000049
      py      :    -0.000049
      dz2     :     0.998122  d :     3.999781
      dxz     :     0.994513
      dyz     :     0.933750
      dx2y2   :     0.982671
      dxy     :     0.090724
      f0      :     0.000049  f :     0.000147
      f+1     :     0.000047
      f-1     :     0.000040
      f+2     :    -0.000002
      f-2     :     0.000019
      f+3     :    -0.000000
      f-3     :    -0.000005
      g0      :     0.000052  g :     0.000260
      g+1     :     0.000048
      g-1     :     0.000045
      g+2     :     0.000017
      g-2     :     0.000048
      g+3     :     0.000016
      g-3     :     0.000012
      g+4     :     0.000019
      g-4     :     0.000003
      h0      :     0.000000  h :    -0.000001
      h+1     :     0.000000
      h-1     :     0.000000
      h+2     :    -0.000000
      h-2     :     0.000000
      h+3     :    -0.000000
      h-3     :     0.000000
      h+4     :    -0.000000
      h-4     :    -0.000000
      h+5     :    -0.000000
      h-5     :    -0.000000


                     *******************************
                     * LOEWDIN POPULATION ANALYSIS *
                     *******************************

-------------------------------------------
LOEWDIN ATOMIC CHARGES AND SPIN POPULATIONS
-------------------------------------------
   0 Tc:   -0.000000    5.000000

----------------------------------------------------
LOEWDIN REDUCED ORBITAL CHARGES AND SPIN POPULATIONS
----------------------------------------------------
CHARGE
  0 Tcs       :     8.999912  s :     8.999912
      pz      :     5.999930  p :    17.999699
      px      :     5.999886
      py      :     5.999883
      dz2     :     3.001817  d :    15.999797
      dxz     :     3.005388
      dyz     :     3.066138
      dx2y2   :     3.017284
      dxy     :     3.909170
      f0      :     0.000059  f :     0.000281
      f+1     :     0.000053
      f-1     :     0.000045
      f+2     :     0.000007
      f-2     :     0.000023
      f+3     :     0.000049
      f-3     :     0.000045
      g0      :     0.000052  g :     0.000290
      g+1     :     0.000049
      g-1     :     0.000048
      g+2     :     0.000017
      g-2     :     0.000054
      g+3     :     0.000019
      g-3     :     0.000013
      g+4     :     0.000033
      g-4     :     0.000004
      h0      :     0.000000  h :     0.000020
      h+1     :     0.000000
      h-1     :     0.000000
      h+2     :     0.000000
      h-2     :     0.000000
      h+3     :     0.000001
      h-3     :     0.000000
      h+4     :     0.000003
      h-4     :     0.000001
      h+5     :     0.000007
      h-5     :     0.000007

SPIN
  0 Tcs       :     0.999959  s :     0.999959
      pz      :    -0.000047  p :    -0.000146
      px      :    -0.000049
      py      :    -0.000049
      dz2     :     0.998122  d :     3.999781
      dxz     :     0.994513
      dyz     :     0.933750
      dx2y2   :     0.982671
      dxy     :     0.090724
      f0      :     0.000049  f :     0.000147
      f+1     :     0.000047
      f-1     :     0.000040
      f+2     :    -0.000002
      f-2     :     0.000019
      f+3     :    -0.000000
      f-3     :    -0.000005
      g0      :     0.000052  g :     0.000260
      g+1     :     0.000048
      g-1     :     0.000045
      g+2     :     0.000017
      g-2     :     0.000048
      g+3     :     0.000016
      g-3     :     0.000012
      g+4     :     0.000019
      g-4     :     0.000003
      h0      :     0.000000  h :    -0.000001
      h+1     :     0.000000
      h-1     :     0.000000
      h+2     :    -0.000000
      h-2     :     0.000000
      h+3     :    -0.000000
      h-3     :     0.000000
      h+4     :    -0.000000
      h-4     :    -0.000000
      h+5     :    -0.000000
      h-5     :    -0.000000


                      *****************************
                      * MAYER POPULATION ANALYSIS *
                      *****************************

  NA   - Mulliken gross atomic population
  ZA   - Total nuclear charge
  QA   - Mulliken gross atomic charge
  VA   - Mayer's total valence
  BVA  - Mayer's bonded valence
  FA   - Mayer's free valence

  ATOM       NA         ZA         QA         VA         BVA        FA
  0 Tc    43.0000    43.0000    -0.0000     5.0020     0.0000     5.0020

  Mayer bond orders larger than 0.100000


-------
TIMINGS
-------

Total SCF time: 0 days 0 hours 35 min 13 sec 

Total time                  ....    2113.040 sec
Sum of individual times     ....    2110.883 sec  ( 99.9%)

Fock matrix formation       ....    2109.446 sec  ( 99.8%)
  XC integration            ....       3.140 sec  (  0.1% of F)
    Basis function eval.    ....       0.073 sec  (  2.3% of XC)
    Density eval.           ....       0.104 sec  (  3.3% of XC)
    XC-Functional eval.     ....       0.550 sec  ( 17.5% of XC)
    XC-Potential eval.      ....       0.050 sec  (  1.6% of XC)
Diagonalization             ....       0.067 sec  (  0.0%)
Density matrix formation    ....       0.017 sec  (  0.0%)
Population analysis         ....       0.156 sec  (  0.0%)
Initial guess               ....       0.108 sec  (  0.0%)
Orbital Transformation      ....       0.000 sec  (  0.0%)
Orbital Orthonormalization  ....       0.000 sec  (  0.0%)
DIIS solution               ....       0.023 sec  (  0.0%)
SOSCF solution              ....       0.135 sec  (  0.0%)
Grid generation             ....       0.931 sec  (  0.0%)

Maximum memory used throughout the entire SCF-calculation: 263.2 MB

-------------------------   --------------------
FINAL SINGLE POINT ENERGY     -4148.964422337614
-------------------------   --------------------

MakePlots. Basename = [Tc_ano-r3_pbe]

---------------
PLOT GENERATION
---------------
choosing x-range =    -7.000000 ..     7.000000
choosing y-range =    -7.000000 ..     7.000000
choosing z-range =    -7.000000 ..     7.000000


           ************************************************************
           *        Program running with 32 parallel MPI-processes    *
           *              working on a common directory               *
           ************************************************************

GBW-File       ... Tc_ano-r3_pbe.gbw
PlotType       ... MO-PLOT
MO/Operator    ... 0 0
Output file    ... Tc_ano-r3_pbe_phi_a_scf_0_re.cube
Format         ... Gaussian-Cube
Resolution     ... 120 120 120
Boundaries     ...    -7.000000     7.000000 (x direction)
                      -7.000000     7.000000 (y direction)
                      -7.000000     7.000000 (z direction)
Entering PlotGrid3d with Plottype =1
choosing x-range =    -7.000000 ..     7.000000
choosing y-range =    -7.000000 ..     7.000000
choosing z-range =    -7.000000 ..     7.000000


           ************************************************************
           *        Program running with 32 parallel MPI-processes    *
           *              working on a common directory               *
           ************************************************************

GBW-File       ... Tc_ano-r3_pbe.gbw
PlotType       ... MO-PLOT
MO/Operator    ... 1 0
Output file    ... Tc_ano-r3_pbe_phi_a_scf_1_re.cube
Format         ... Gaussian-Cube
Resolution     ... 120 120 120
Boundaries     ...    -7.000000     7.000000 (x direction)
                      -7.000000     7.000000 (y direction)
                      -7.000000     7.000000 (z direction)
Entering PlotGrid3d with Plottype =1
choosing x-range =    -7.000000 ..     7.000000
choosing y-range =    -7.000000 ..     7.000000
choosing z-range =    -7.000000 ..     7.000000


           ************************************************************
           *        Program running with 32 parallel MPI-processes    *
           *              working on a common directory               *
           ************************************************************

GBW-File       ... Tc_ano-r3_pbe.gbw
PlotType       ... MO-PLOT
MO/Operator    ... 2 0
Output file    ... Tc_ano-r3_pbe_phi_a_scf_2_re.cube
Format         ... Gaussian-Cube
Resolution     ... 120 120 120
Boundaries     ...    -7.000000     7.000000 (x direction)
                      -7.000000     7.000000 (y direction)
                      -7.000000     7.000000 (z direction)
Entering PlotGrid3d with Plottype =1
choosing x-range =    -7.000000 ..     7.000000
choosing y-range =    -7.000000 ..     7.000000
choosing z-range =    -7.000000 ..     7.000000


           ************************************************************
           *        Program running with 32 parallel MPI-processes    *
           *              working on a common directory               *
           ************************************************************

GBW-File       ... Tc_ano-r3_pbe.gbw
PlotType       ... MO-PLOT
MO/Operator    ... 3 0
Output file    ... Tc_ano-r3_pbe_phi_a_scf_3_re.cube
Format         ... Gaussian-Cube
Resolution     ... 120 120 120
Boundaries     ...    -7.000000     7.000000 (x direction)
                      -7.000000     7.000000 (y direction)
                      -7.000000     7.000000 (z direction)
Entering PlotGrid3d with Plottype =1
choosing x-range =    -7.000000 ..     7.000000
choosing y-range =    -7.000000 ..     7.000000
choosing z-range =    -7.000000 ..     7.000000


           ************************************************************
           *        Program running with 32 parallel MPI-processes    *
           *              working on a common directory               *
           ************************************************************

GBW-File       ... Tc_ano-r3_pbe.gbw
PlotType       ... MO-PLOT
MO/Operator    ... 4 0
Output file    ... Tc_ano-r3_pbe_phi_a_scf_4_re.cube
Format         ... Gaussian-Cube
Resolution     ... 120 120 120
Boundaries     ...    -7.000000     7.000000 (x direction)
                      -7.000000     7.000000 (y direction)
                      -7.000000     7.000000 (z direction)
Entering PlotGrid3d with Plottype =1
choosing x-range =    -7.000000 ..     7.000000
choosing y-range =    -7.000000 ..     7.000000
choosing z-range =    -7.000000 ..     7.000000


           ************************************************************
           *        Program running with 32 parallel MPI-processes    *
           *              working on a common directory               *
           ************************************************************

GBW-File       ... Tc_ano-r3_pbe.gbw
PlotType       ... MO-PLOT
MO/Operator    ... 5 0
Output file    ... Tc_ano-r3_pbe_phi_a_scf_5_re.cube
Format         ... Gaussian-Cube
Resolution     ... 120 120 120
Boundaries     ...    -7.000000     7.000000 (x direction)
                      -7.000000     7.000000 (y direction)
                      -7.000000     7.000000 (z direction)
Entering PlotGrid3d with Plottype =1
choosing x-range =    -7.000000 ..     7.000000
choosing y-range =    -7.000000 ..     7.000000
choosing z-range =    -7.000000 ..     7.000000


           ************************************************************
           *        Program running with 32 parallel MPI-processes    *
           *              working on a common directory               *
           ************************************************************

GBW-File       ... Tc_ano-r3_pbe.gbw
PlotType       ... MO-PLOT
MO/Operator    ... 6 0
Output file    ... Tc_ano-r3_pbe_phi_a_scf_6_re.cube
Format         ... Gaussian-Cube
Resolution     ... 120 120 120
Boundaries     ...    -7.000000     7.000000 (x direction)
                      -7.000000     7.000000 (y direction)
                      -7.000000     7.000000 (z direction)
Entering PlotGrid3d with Plottype =1
choosing x-range =    -7.000000 ..     7.000000
choosing y-range =    -7.000000 ..     7.000000
choosing z-range =    -7.000000 ..     7.000000


           ************************************************************
           *        Program running with 32 parallel MPI-processes    *
           *              working on a common directory               *
           ************************************************************

GBW-File       ... Tc_ano-r3_pbe.gbw
PlotType       ... MO-PLOT
MO/Operator    ... 7 0
Output file    ... Tc_ano-r3_pbe_phi_a_scf_7_re.cube
Format         ... Gaussian-Cube
Resolution     ... 120 120 120
Boundaries     ...    -7.000000     7.000000 (x direction)
                      -7.000000     7.000000 (y direction)
                      -7.000000     7.000000 (z direction)
Entering PlotGrid3d with Plottype =1
choosing x-range =    -7.000000 ..     7.000000
choosing y-range =    -7.000000 ..     7.000000
choosing z-range =    -7.000000 ..     7.000000


           ************************************************************
           *        Program running with 32 parallel MPI-processes    *
           *              working on a common directory               *
           ************************************************************

GBW-File       ... Tc_ano-r3_pbe.gbw
PlotType       ... MO-PLOT
MO/Operator    ... 8 0
Output file    ... Tc_ano-r3_pbe_phi_a_scf_8_re.cube
Format         ... Gaussian-Cube
Resolution     ... 120 120 120
Boundaries     ...    -7.000000     7.000000 (x direction)
                      -7.000000     7.000000 (y direction)
                      -7.000000     7.000000 (z direction)
Entering PlotGrid3d with Plottype =1
choosing x-range =    -7.000000 ..     7.000000
choosing y-range =    -7.000000 ..     7.000000
choosing z-range =    -7.000000 ..     7.000000


           ************************************************************
           *        Program running with 32 parallel MPI-processes    *
           *              working on a common directory               *
           ************************************************************

GBW-File       ... Tc_ano-r3_pbe.gbw
PlotType       ... MO-PLOT
MO/Operator    ... 9 0
Output file    ... Tc_ano-r3_pbe_phi_a_scf_9_re.cube
Format         ... Gaussian-Cube
Resolution     ... 120 120 120
Boundaries     ...    -7.000000     7.000000 (x direction)
                      -7.000000     7.000000 (y direction)
                      -7.000000     7.000000 (z direction)
Entering PlotGrid3d with Plottype =1
choosing x-range =    -7.000000 ..     7.000000
choosing y-range =    -7.000000 ..     7.000000
choosing z-range =    -7.000000 ..     7.000000


           ************************************************************
           *        Program running with 32 parallel MPI-processes    *
           *              working on a common directory               *
           ************************************************************

GBW-File       ... Tc_ano-r3_pbe.gbw
PlotType       ... MO-PLOT
MO/Operator    ... 10 0
Output file    ... Tc_ano-r3_pbe_phi_a_scf_10_re.cube
Format         ... Gaussian-Cube
Resolution     ... 120 120 120
Boundaries     ...    -7.000000     7.000000 (x direction)
                      -7.000000     7.000000 (y direction)
                      -7.000000     7.000000 (z direction)
Entering PlotGrid3d with Plottype =1
choosing x-range =    -7.000000 ..     7.000000
choosing y-range =    -7.000000 ..     7.000000
choosing z-range =    -7.000000 ..     7.000000


           ************************************************************
           *        Program running with 32 parallel MPI-processes    *
           *              working on a common directory               *
           ************************************************************

GBW-File       ... Tc_ano-r3_pbe.gbw
PlotType       ... MO-PLOT
MO/Operator    ... 11 0
Output file    ... Tc_ano-r3_pbe_phi_a_scf_11_re.cube
Format         ... Gaussian-Cube
Resolution     ... 120 120 120
Boundaries     ...    -7.000000     7.000000 (x direction)
                      -7.000000     7.000000 (y direction)
                      -7.000000     7.000000 (z direction)
Entering PlotGrid3d with Plottype =1
choosing x-range =    -7.000000 ..     7.000000
choosing y-range =    -7.000000 ..     7.000000
choosing z-range =    -7.000000 ..     7.000000


           ************************************************************
           *        Program running with 32 parallel MPI-processes    *
           *              working on a common directory               *
           ************************************************************

GBW-File       ... Tc_ano-r3_pbe.gbw
PlotType       ... MO-PLOT
MO/Operator    ... 12 0
Output file    ... Tc_ano-r3_pbe_phi_a_scf_12_re.cube
Format         ... Gaussian-Cube
Resolution     ... 120 120 120
Boundaries     ...    -7.000000     7.000000 (x direction)
                      -7.000000     7.000000 (y direction)
                      -7.000000     7.000000 (z direction)
Entering PlotGrid3d with Plottype =1
choosing x-range =    -7.000000 ..     7.000000
choosing y-range =    -7.000000 ..     7.000000
choosing z-range =    -7.000000 ..     7.000000


           ************************************************************
           *        Program running with 32 parallel MPI-processes    *
           *              working on a common directory               *
           ************************************************************

GBW-File       ... Tc_ano-r3_pbe.gbw
PlotType       ... MO-PLOT
MO/Operator    ... 13 0
Output file    ... Tc_ano-r3_pbe_phi_a_scf_13_re.cube
Format         ... Gaussian-Cube
Resolution     ... 120 120 120
Boundaries     ...    -7.000000     7.000000 (x direction)
                      -7.000000     7.000000 (y direction)
                      -7.000000     7.000000 (z direction)
Entering PlotGrid3d with Plottype =1
choosing x-range =    -7.000000 ..     7.000000
choosing y-range =    -7.000000 ..     7.000000
choosing z-range =    -7.000000 ..     7.000000


           ************************************************************
           *        Program running with 32 parallel MPI-processes    *
           *              working on a common directory               *
           ************************************************************

GBW-File       ... Tc_ano-r3_pbe.gbw
PlotType       ... MO-PLOT
MO/Operator    ... 14 0
Output file    ... Tc_ano-r3_pbe_phi_a_scf_14_re.cube
Format         ... Gaussian-Cube
Resolution     ... 120 120 120
Boundaries     ...    -7.000000     7.000000 (x direction)
                      -7.000000     7.000000 (y direction)
                      -7.000000     7.000000 (z direction)
Entering PlotGrid3d with Plottype =1
choosing x-range =    -7.000000 ..     7.000000
choosing y-range =    -7.000000 ..     7.000000
choosing z-range =    -7.000000 ..     7.000000


           ************************************************************
           *        Program running with 32 parallel MPI-processes    *
           *              working on a common directory               *
           ************************************************************

GBW-File       ... Tc_ano-r3_pbe.gbw
PlotType       ... MO-PLOT
MO/Operator    ... 15 0
Output file    ... Tc_ano-r3_pbe_phi_a_scf_15_re.cube
Format         ... Gaussian-Cube
Resolution     ... 120 120 120
Boundaries     ...    -7.000000     7.000000 (x direction)
                      -7.000000     7.000000 (y direction)
                      -7.000000     7.000000 (z direction)
Entering PlotGrid3d with Plottype =1
choosing x-range =    -7.000000 ..     7.000000
choosing y-range =    -7.000000 ..     7.000000
choosing z-range =    -7.000000 ..     7.000000


           ************************************************************
           *        Program running with 32 parallel MPI-processes    *
           *              working on a common directory               *
           ************************************************************

GBW-File       ... Tc_ano-r3_pbe.gbw
PlotType       ... MO-PLOT
MO/Operator    ... 16 0
Output file    ... Tc_ano-r3_pbe_phi_a_scf_16_re.cube
Format         ... Gaussian-Cube
Resolution     ... 120 120 120
Boundaries     ...    -7.000000     7.000000 (x direction)
                      -7.000000     7.000000 (y direction)
                      -7.000000     7.000000 (z direction)
Entering PlotGrid3d with Plottype =1
choosing x-range =    -7.000000 ..     7.000000
choosing y-range =    -7.000000 ..     7.000000
choosing z-range =    -7.000000 ..     7.000000


           ************************************************************
           *        Program running with 32 parallel MPI-processes    *
           *              working on a common directory               *
           ************************************************************

GBW-File       ... Tc_ano-r3_pbe.gbw
PlotType       ... MO-PLOT
MO/Operator    ... 17 0
Output file    ... Tc_ano-r3_pbe_phi_a_scf_17_re.cube
Format         ... Gaussian-Cube
Resolution     ... 120 120 120
Boundaries     ...    -7.000000     7.000000 (x direction)
                      -7.000000     7.000000 (y direction)
                      -7.000000     7.000000 (z direction)
Entering PlotGrid3d with Plottype =1
choosing x-range =    -7.000000 ..     7.000000
choosing y-range =    -7.000000 ..     7.000000
choosing z-range =    -7.000000 ..     7.000000


           ************************************************************
           *        Program running with 32 parallel MPI-processes    *
           *              working on a common directory               *
           ************************************************************

GBW-File       ... Tc_ano-r3_pbe.gbw
PlotType       ... MO-PLOT
MO/Operator    ... 18 0
Output file    ... Tc_ano-r3_pbe_phi_a_scf_18_re.cube
Format         ... Gaussian-Cube
Resolution     ... 120 120 120
Boundaries     ...    -7.000000     7.000000 (x direction)
                      -7.000000     7.000000 (y direction)
                      -7.000000     7.000000 (z direction)
Entering PlotGrid3d with Plottype =1
choosing x-range =    -7.000000 ..     7.000000
choosing y-range =    -7.000000 ..     7.000000
choosing z-range =    -7.000000 ..     7.000000


           ************************************************************
           *        Program running with 32 parallel MPI-processes    *
           *              working on a common directory               *
           ************************************************************

GBW-File       ... Tc_ano-r3_pbe.gbw
PlotType       ... MO-PLOT
MO/Operator    ... 19 0
Output file    ... Tc_ano-r3_pbe_phi_a_scf_19_re.cube
Format         ... Gaussian-Cube
Resolution     ... 120 120 120
Boundaries     ...    -7.000000     7.000000 (x direction)
                      -7.000000     7.000000 (y direction)
                      -7.000000     7.000000 (z direction)
Entering PlotGrid3d with Plottype =1
choosing x-range =    -7.000000 ..     7.000000
choosing y-range =    -7.000000 ..     7.000000
choosing z-range =    -7.000000 ..     7.000000


           ************************************************************
           *        Program running with 32 parallel MPI-processes    *
           *              working on a common directory               *
           ************************************************************

GBW-File       ... Tc_ano-r3_pbe.gbw
PlotType       ... MO-PLOT
MO/Operator    ... 20 0
Output file    ... Tc_ano-r3_pbe_phi_a_scf_20_re.cube
Format         ... Gaussian-Cube
Resolution     ... 120 120 120
Boundaries     ...    -7.000000     7.000000 (x direction)
                      -7.000000     7.000000 (y direction)
                      -7.000000     7.000000 (z direction)
Entering PlotGrid3d with Plottype =1
choosing x-range =    -7.000000 ..     7.000000
choosing y-range =    -7.000000 ..     7.000000
choosing z-range =    -7.000000 ..     7.000000


           ************************************************************
           *        Program running with 32 parallel MPI-processes    *
           *              working on a common directory               *
           ************************************************************

GBW-File       ... Tc_ano-r3_pbe.gbw
PlotType       ... MO-PLOT
MO/Operator    ... 21 0
Output file    ... Tc_ano-r3_pbe_phi_a_scf_21_re.cube
Format         ... Gaussian-Cube
Resolution     ... 120 120 120
Boundaries     ...    -7.000000     7.000000 (x direction)
                      -7.000000     7.000000 (y direction)
                      -7.000000     7.000000 (z direction)
Entering PlotGrid3d with Plottype =1
choosing x-range =    -7.000000 ..     7.000000
choosing y-range =    -7.000000 ..     7.000000
choosing z-range =    -7.000000 ..     7.000000


           ************************************************************
           *        Program running with 32 parallel MPI-processes    *
           *              working on a common directory               *
           ************************************************************

GBW-File       ... Tc_ano-r3_pbe.gbw
PlotType       ... MO-PLOT
MO/Operator    ... 22 0
Output file    ... Tc_ano-r3_pbe_phi_a_scf_22_re.cube
Format         ... Gaussian-Cube
Resolution     ... 120 120 120
Boundaries     ...    -7.000000     7.000000 (x direction)
                      -7.000000     7.000000 (y direction)
                      -7.000000     7.000000 (z direction)
Entering PlotGrid3d with Plottype =1
choosing x-range =    -7.000000 ..     7.000000
choosing y-range =    -7.000000 ..     7.000000
choosing z-range =    -7.000000 ..     7.000000


           ************************************************************
           *        Program running with 32 parallel MPI-processes    *
           *              working on a common directory               *
           ************************************************************

GBW-File       ... Tc_ano-r3_pbe.gbw
PlotType       ... MO-PLOT
MO/Operator    ... 23 0
Output file    ... Tc_ano-r3_pbe_phi_a_scf_23_re.cube
Format         ... Gaussian-Cube
Resolution     ... 120 120 120
Boundaries     ...    -7.000000     7.000000 (x direction)
                      -7.000000     7.000000 (y direction)
                      -7.000000     7.000000 (z direction)
Entering PlotGrid3d with Plottype =1
choosing x-range =    -7.000000 ..     7.000000
choosing y-range =    -7.000000 ..     7.000000
choosing z-range =    -7.000000 ..     7.000000


           ************************************************************
           *        Program running with 32 parallel MPI-processes    *
           *              working on a common directory               *
           ************************************************************

GBW-File       ... Tc_ano-r3_pbe.gbw
PlotType       ... MO-PLOT
MO/Operator    ... 0 1
Output file    ... Tc_ano-r3_pbe_phi_b_scf_0_re.cube
Format         ... Gaussian-Cube
Resolution     ... 120 120 120
Boundaries     ...    -7.000000     7.000000 (x direction)
                      -7.000000     7.000000 (y direction)
                      -7.000000     7.000000 (z direction)
Entering PlotGrid3d with Plottype =1
choosing x-range =    -7.000000 ..     7.000000
choosing y-range =    -7.000000 ..     7.000000
choosing z-range =    -7.000000 ..     7.000000


           ************************************************************
           *        Program running with 32 parallel MPI-processes    *
           *              working on a common directory               *
           ************************************************************

GBW-File       ... Tc_ano-r3_pbe.gbw
PlotType       ... MO-PLOT
MO/Operator    ... 1 1
Output file    ... Tc_ano-r3_pbe_phi_b_scf_1_re.cube
Format         ... Gaussian-Cube
Resolution     ... 120 120 120
Boundaries     ...    -7.000000     7.000000 (x direction)
                      -7.000000     7.000000 (y direction)
                      -7.000000     7.000000 (z direction)
Entering PlotGrid3d with Plottype =1
choosing x-range =    -7.000000 ..     7.000000
choosing y-range =    -7.000000 ..     7.000000
choosing z-range =    -7.000000 ..     7.000000


           ************************************************************
           *        Program running with 32 parallel MPI-processes    *
           *              working on a common directory               *
           ************************************************************

GBW-File       ... Tc_ano-r3_pbe.gbw
PlotType       ... MO-PLOT
MO/Operator    ... 2 1
Output file    ... Tc_ano-r3_pbe_phi_b_scf_2_re.cube
Format         ... Gaussian-Cube
Resolution     ... 120 120 120
Boundaries     ...    -7.000000     7.000000 (x direction)
                      -7.000000     7.000000 (y direction)
                      -7.000000     7.000000 (z direction)
Entering PlotGrid3d with Plottype =1
choosing x-range =    -7.000000 ..     7.000000
choosing y-range =    -7.000000 ..     7.000000
choosing z-range =    -7.000000 ..     7.000000


           ************************************************************
           *        Program running with 32 parallel MPI-processes    *
           *              working on a common directory               *
           ************************************************************

GBW-File       ... Tc_ano-r3_pbe.gbw
PlotType       ... MO-PLOT
MO/Operator    ... 3 1
Output file    ... Tc_ano-r3_pbe_phi_b_scf_3_re.cube
Format         ... Gaussian-Cube
Resolution     ... 120 120 120
Boundaries     ...    -7.000000     7.000000 (x direction)
                      -7.000000     7.000000 (y direction)
                      -7.000000     7.000000 (z direction)
Entering PlotGrid3d with Plottype =1
choosing x-range =    -7.000000 ..     7.000000
choosing y-range =    -7.000000 ..     7.000000
choosing z-range =    -7.000000 ..     7.000000


           ************************************************************
           *        Program running with 32 parallel MPI-processes    *
           *              working on a common directory               *
           ************************************************************

GBW-File       ... Tc_ano-r3_pbe.gbw
PlotType       ... MO-PLOT
MO/Operator    ... 4 1
Output file    ... Tc_ano-r3_pbe_phi_b_scf_4_re.cube
Format         ... Gaussian-Cube
Resolution     ... 120 120 120
Boundaries     ...    -7.000000     7.000000 (x direction)
                      -7.000000     7.000000 (y direction)
                      -7.000000     7.000000 (z direction)
Entering PlotGrid3d with Plottype =1
choosing x-range =    -7.000000 ..     7.000000
choosing y-range =    -7.000000 ..     7.000000
choosing z-range =    -7.000000 ..     7.000000


           ************************************************************
           *        Program running with 32 parallel MPI-processes    *
           *              working on a common directory               *
           ************************************************************

GBW-File       ... Tc_ano-r3_pbe.gbw
PlotType       ... MO-PLOT
MO/Operator    ... 5 1
Output file    ... Tc_ano-r3_pbe_phi_b_scf_5_re.cube
Format         ... Gaussian-Cube
Resolution     ... 120 120 120
Boundaries     ...    -7.000000     7.000000 (x direction)
                      -7.000000     7.000000 (y direction)
                      -7.000000     7.000000 (z direction)
Entering PlotGrid3d with Plottype =1
choosing x-range =    -7.000000 ..     7.000000
choosing y-range =    -7.000000 ..     7.000000
choosing z-range =    -7.000000 ..     7.000000


           ************************************************************
           *        Program running with 32 parallel MPI-processes    *
           *              working on a common directory               *
           ************************************************************

GBW-File       ... Tc_ano-r3_pbe.gbw
PlotType       ... MO-PLOT
MO/Operator    ... 6 1
Output file    ... Tc_ano-r3_pbe_phi_b_scf_6_re.cube
Format         ... Gaussian-Cube
Resolution     ... 120 120 120
Boundaries     ...    -7.000000     7.000000 (x direction)
                      -7.000000     7.000000 (y direction)
                      -7.000000     7.000000 (z direction)
Entering PlotGrid3d with Plottype =1
choosing x-range =    -7.000000 ..     7.000000
choosing y-range =    -7.000000 ..     7.000000
choosing z-range =    -7.000000 ..     7.000000


           ************************************************************
           *        Program running with 32 parallel MPI-processes    *
           *              working on a common directory               *
           ************************************************************

GBW-File       ... Tc_ano-r3_pbe.gbw
PlotType       ... MO-PLOT
MO/Operator    ... 7 1
Output file    ... Tc_ano-r3_pbe_phi_b_scf_7_re.cube
Format         ... Gaussian-Cube
Resolution     ... 120 120 120
Boundaries     ...    -7.000000     7.000000 (x direction)
                      -7.000000     7.000000 (y direction)
                      -7.000000     7.000000 (z direction)
Entering PlotGrid3d with Plottype =1
choosing x-range =    -7.000000 ..     7.000000
choosing y-range =    -7.000000 ..     7.000000
choosing z-range =    -7.000000 ..     7.000000


           ************************************************************
           *        Program running with 32 parallel MPI-processes    *
           *              working on a common directory               *
           ************************************************************

GBW-File       ... Tc_ano-r3_pbe.gbw
PlotType       ... MO-PLOT
MO/Operator    ... 8 1
Output file    ... Tc_ano-r3_pbe_phi_b_scf_8_re.cube
Format         ... Gaussian-Cube
Resolution     ... 120 120 120
Boundaries     ...    -7.000000     7.000000 (x direction)
                      -7.000000     7.000000 (y direction)
                      -7.000000     7.000000 (z direction)
Entering PlotGrid3d with Plottype =1
choosing x-range =    -7.000000 ..     7.000000
choosing y-range =    -7.000000 ..     7.000000
choosing z-range =    -7.000000 ..     7.000000


           ************************************************************
           *        Program running with 32 parallel MPI-processes    *
           *              working on a common directory               *
           ************************************************************

GBW-File       ... Tc_ano-r3_pbe.gbw
PlotType       ... MO-PLOT
MO/Operator    ... 9 1
Output file    ... Tc_ano-r3_pbe_phi_b_scf_9_re.cube
Format         ... Gaussian-Cube
Resolution     ... 120 120 120
Boundaries     ...    -7.000000     7.000000 (x direction)
                      -7.000000     7.000000 (y direction)
                      -7.000000     7.000000 (z direction)
Entering PlotGrid3d with Plottype =1
choosing x-range =    -7.000000 ..     7.000000
choosing y-range =    -7.000000 ..     7.000000
choosing z-range =    -7.000000 ..     7.000000


           ************************************************************
           *        Program running with 32 parallel MPI-processes    *
           *              working on a common directory               *
           ************************************************************

GBW-File       ... Tc_ano-r3_pbe.gbw
PlotType       ... MO-PLOT
MO/Operator    ... 10 1
Output file    ... Tc_ano-r3_pbe_phi_b_scf_10_re.cube
Format         ... Gaussian-Cube
Resolution     ... 120 120 120
Boundaries     ...    -7.000000     7.000000 (x direction)
                      -7.000000     7.000000 (y direction)
                      -7.000000     7.000000 (z direction)
Entering PlotGrid3d with Plottype =1
choosing x-range =    -7.000000 ..     7.000000
choosing y-range =    -7.000000 ..     7.000000
choosing z-range =    -7.000000 ..     7.000000


           ************************************************************
           *        Program running with 32 parallel MPI-processes    *
           *              working on a common directory               *
           ************************************************************

GBW-File       ... Tc_ano-r3_pbe.gbw
PlotType       ... MO-PLOT
MO/Operator    ... 11 1
Output file    ... Tc_ano-r3_pbe_phi_b_scf_11_re.cube
Format         ... Gaussian-Cube
Resolution     ... 120 120 120
Boundaries     ...    -7.000000     7.000000 (x direction)
                      -7.000000     7.000000 (y direction)
                      -7.000000     7.000000 (z direction)
Entering PlotGrid3d with Plottype =1
choosing x-range =    -7.000000 ..     7.000000
choosing y-range =    -7.000000 ..     7.000000
choosing z-range =    -7.000000 ..     7.000000


           ************************************************************
           *        Program running with 32 parallel MPI-processes    *
           *              working on a common directory               *
           ************************************************************

GBW-File       ... Tc_ano-r3_pbe.gbw
PlotType       ... MO-PLOT
MO/Operator    ... 12 1
Output file    ... Tc_ano-r3_pbe_phi_b_scf_12_re.cube
Format         ... Gaussian-Cube
Resolution     ... 120 120 120
Boundaries     ...    -7.000000     7.000000 (x direction)
                      -7.000000     7.000000 (y direction)
                      -7.000000     7.000000 (z direction)
Entering PlotGrid3d with Plottype =1
choosing x-range =    -7.000000 ..     7.000000
choosing y-range =    -7.000000 ..     7.000000
choosing z-range =    -7.000000 ..     7.000000


           ************************************************************
           *        Program running with 32 parallel MPI-processes    *
           *              working on a common directory               *
           ************************************************************

GBW-File       ... Tc_ano-r3_pbe.gbw
PlotType       ... MO-PLOT
MO/Operator    ... 13 1
Output file    ... Tc_ano-r3_pbe_phi_b_scf_13_re.cube
Format         ... Gaussian-Cube
Resolution     ... 120 120 120
Boundaries     ...    -7.000000     7.000000 (x direction)
                      -7.000000     7.000000 (y direction)
                      -7.000000     7.000000 (z direction)
Entering PlotGrid3d with Plottype =1
choosing x-range =    -7.000000 ..     7.000000
choosing y-range =    -7.000000 ..     7.000000
choosing z-range =    -7.000000 ..     7.000000


           ************************************************************
           *        Program running with 32 parallel MPI-processes    *
           *              working on a common directory               *
           ************************************************************

GBW-File       ... Tc_ano-r3_pbe.gbw
PlotType       ... MO-PLOT
MO/Operator    ... 14 1
Output file    ... Tc_ano-r3_pbe_phi_b_scf_14_re.cube
Format         ... Gaussian-Cube
Resolution     ... 120 120 120
Boundaries     ...    -7.000000     7.000000 (x direction)
                      -7.000000     7.000000 (y direction)
                      -7.000000     7.000000 (z direction)
Entering PlotGrid3d with Plottype =1
choosing x-range =    -7.000000 ..     7.000000
choosing y-range =    -7.000000 ..     7.000000
choosing z-range =    -7.000000 ..     7.000000


           ************************************************************
           *        Program running with 32 parallel MPI-processes    *
           *              working on a common directory               *
           ************************************************************

GBW-File       ... Tc_ano-r3_pbe.gbw
PlotType       ... MO-PLOT
MO/Operator    ... 15 1
Output file    ... Tc_ano-r3_pbe_phi_b_scf_15_re.cube
Format         ... Gaussian-Cube
Resolution     ... 120 120 120
Boundaries     ...    -7.000000     7.000000 (x direction)
                      -7.000000     7.000000 (y direction)
                      -7.000000     7.000000 (z direction)
Entering PlotGrid3d with Plottype =1
choosing x-range =    -7.000000 ..     7.000000
choosing y-range =    -7.000000 ..     7.000000
choosing z-range =    -7.000000 ..     7.000000


           ************************************************************
           *        Program running with 32 parallel MPI-processes    *
           *              working on a common directory               *
           ************************************************************

GBW-File       ... Tc_ano-r3_pbe.gbw
PlotType       ... MO-PLOT
MO/Operator    ... 16 1
Output file    ... Tc_ano-r3_pbe_phi_b_scf_16_re.cube
Format         ... Gaussian-Cube
Resolution     ... 120 120 120
Boundaries     ...    -7.000000     7.000000 (x direction)
                      -7.000000     7.000000 (y direction)
                      -7.000000     7.000000 (z direction)
Entering PlotGrid3d with Plottype =1
choosing x-range =    -7.000000 ..     7.000000
choosing y-range =    -7.000000 ..     7.000000
choosing z-range =    -7.000000 ..     7.000000


           ************************************************************
           *        Program running with 32 parallel MPI-processes    *
           *              working on a common directory               *
           ************************************************************

GBW-File       ... Tc_ano-r3_pbe.gbw
PlotType       ... MO-PLOT
MO/Operator    ... 17 1
Output file    ... Tc_ano-r3_pbe_phi_b_scf_17_re.cube
Format         ... Gaussian-Cube
Resolution     ... 120 120 120
Boundaries     ...    -7.000000     7.000000 (x direction)
                      -7.000000     7.000000 (y direction)
                      -7.000000     7.000000 (z direction)
Entering PlotGrid3d with Plottype =1
choosing x-range =    -7.000000 ..     7.000000
choosing y-range =    -7.000000 ..     7.000000
choosing z-range =    -7.000000 ..     7.000000


           ************************************************************
           *        Program running with 32 parallel MPI-processes    *
           *              working on a common directory               *
           ************************************************************

GBW-File       ... Tc_ano-r3_pbe.gbw
PlotType       ... MO-PLOT
MO/Operator    ... 18 1
Output file    ... Tc_ano-r3_pbe_phi_b_scf_18_re.cube
Format         ... Gaussian-Cube
Resolution     ... 120 120 120
Boundaries     ...    -7.000000     7.000000 (x direction)
                      -7.000000     7.000000 (y direction)
                      -7.000000     7.000000 (z direction)
Entering PlotGrid3d with Plottype =1

                            ***************************************
                            *     ORCA property calculations      *
                            ***************************************

                                    ---------------------
                                    Active property flags
                                    ---------------------
   (+) Dipole Moment


------------------------------------------------------------------------------
                       ORCA ELECTRIC PROPERTIES CALCULATION
------------------------------------------------------------------------------

Dipole Moment Calculation                       ... on
Quadrupole Moment Calculation                   ... off
Polarizability Calculation                      ... off
GBWName                                         ... Tc_ano-r3_pbe.gbw
Electron density                                ... Tc_ano-r3_pbe.scfp
The origin for moment calculation is the CENTER OF MASS  = ( 0.000000,  0.000000  0.000000)

-------------
DIPOLE MOMENT
-------------
                                X             Y             Z
Electronic contribution:      0.00000      -0.00000       0.00000
Nuclear contribution   :      0.00000       0.00000       0.00000
                        -----------------------------------------
Total Dipole Moment    :      0.00000      -0.00000       0.00000
                        -----------------------------------------
Magnitude (a.u.)       :      0.00000
Magnitude (Debye)      :      0.00000



--------------------
Rotational spectrum 
--------------------
 
Rotational constants in cm-1:     0.000000     0.000000     0.000000 
Rotational constants in MHz :     0.000000     0.000000     0.000000 

 Dipole components along the rotational axes: 
x,y,z [a.u.] :     0.000001    -0.000001     0.000000 
x,y,z [Debye]:     0.000002    -0.000002     0.000001 

 

Timings for individual modules:

Sum of individual times         ...     2298.419 sec (=  38.307 min)
GTO integral calculation        ...       36.691 sec (=   0.612 min)   1.6 %
SCF iterations                  ...     2116.419 sec (=  35.274 min)  92.1 %
Orbital/Density plot generation ...      145.309 sec (=   2.422 min)   6.3 %
                             ****ORCA TERMINATED NORMALLY****
TOTAL RUN TIME: 0 days 0 hours 38 minutes 26 seconds 14 msec
