
                                 *****************
                                 * O   R   C   A *
                                 *****************

           --- An Ab Initio, DFT and Semiempirical electronic structure package ---

                  #######################################################
                  #                        -***-                        #
                  #          Department of theory and spectroscopy      #
                  #               Directorship: Frank Neese             #
                  #        Max Planck Institute fuer Kohlenforschung    #
                  #                Kaiser Wilhelm Platz 1               #
                  #                 D-45470 Muelheim/Ruhr               #
                  #                      Germany                        #
                  #                                                     #
                  #                  All rights reserved                #
                  #                        -***-                        #
                  #######################################################


                         Program Version 4.2.1 -  RELEASE  -


 With contributions from (in alphabetic order):
   Daniel Aravena         : Magnetic Suceptibility
   Michael Atanasov       : Ab Initio Ligand Field Theory (pilot matlab implementation)
   Alexander A. Auer      : GIAO ZORA, VPT2
   Ute Becker             : Parallelization
   Giovanni Bistoni       : ED, misc. LED, open-shell LED, HFLD
   Martin Brehm           : Molecular dynamics
   Dmytro Bykov           : SCF Hessian
   Vijay G. Chilkuri      : MRCI spin determinant printing, contributions to CSF-ICE
   Dipayan Datta          : RHF DLPNO-CCSD density
   Achintya Kumar Dutta   : EOM-CC, STEOM-CC
   Dmitry Ganyushin       : Spin-Orbit,Spin-Spin,Magnetic field MRCI
   Miquel Garcia          : C-PCM Hessian, Gaussian charge scheme
   Yang Guo               : DLPNO-NEVPT2, CIM, IAO-localization
   Andreas Hansen         : Spin unrestricted coupled pair/coupled cluster methods
   Benjamin Helmich-Paris : CASSCF linear response (MC-RPA)
   Lee Huntington         : MR-EOM, pCC
   Robert Izsak           : Overlap fitted RIJCOSX, COSX-SCS-MP3, EOM
   Christian Kollmar      : KDIIS, OOCD, Brueckner-CCSD(T), CCSD density
   Simone Kossmann        : Meta GGA functionals, TD-DFT gradient, OOMP2, MP2 Hessian
   Martin Krupicka        : AUTO-CI
   Lucas Lang             : DCDCAS
   Dagmar Lenk            : GEPOL surface, SMD
   Dimitrios Liakos       : Extrapolation schemes; Compound Job, initial MDCI parallelization
   Dimitrios Manganas     : Further ROCIS development; embedding schemes
   Dimitrios Pantazis     : SARC Basis sets
   Taras Petrenko         : DFT Hessian,TD-DFT gradient, ASA, ECA, R-Raman, ABS, FL, XAS/XES, NRVS
   Peter Pinski           : DLPNO-MP2, DLPNO-MP2 Gradient
   Christoph Reimann      : Effective Core Potentials
   Marius Retegan         : Local ZFS, SOC
   Christoph Riplinger    : Optimizer, TS searches, QM/MM, DLPNO-CCSD(T), (RO)-DLPNO pert. Triples
   Tobias Risthaus        : Range-separated hybrids, TD-DFT gradient, RPA, STAB
   Michael Roemelt        : Original ROCIS implementation
   Masaaki Saitow         : Open-shell DLPNO-CCSD energy and density
   Barbara Sandhoefer     : DKH picture change effects
   Avijit Sen             : IP-ROCIS
   Kantharuban Sivalingam : CASSCF convergence, NEVPT2, FIC-MRCI
   Bernardo de Souza      : ESD, SOC TD-DFT
   Georgi Stoychev        : AutoAux, RI-MP2 NMR
   Willem Van den Heuvel  : Paramagnetic NMR
   Boris Wezisla          : Elementary symmetry handling
   Frank Wennmohs         : Technical directorship


 We gratefully acknowledge several colleagues who have allowed us to
 interface, adapt or use parts of their codes:
   Stefan Grimme, W. Hujo, H. Kruse,             : VdW corrections, initial TS optimization,
                  C. Bannwarth                     DFT functionals, gCP, sTDA/sTD-DF
   Ed Valeev, F. Pavosevic, A. Kumar             : LibInt (2-el integral package), F12 methods
   Garnet Chan, S. Sharma, J. Yang, R. Olivares  : DMRG
   Ulf Ekstrom                                   : XCFun DFT Library
   Mihaly Kallay                                 : mrcc  (arbitrary order and MRCC methods)
   Andreas Klamt, Michael Diedenhofen            : otool_cosmo (COSMO solvation model)
   Jiri Pittner, Ondrej Demel                    : Mk-CCSD
   Frank Weinhold                                : gennbo (NPA and NBO analysis)
   Christopher J. Cramer and Donald G. Truhlar   : smd solvation model
   Lars Goerigk                                  : TD-DFT with DH, B97 family of functionals
   V. Asgeirsson, H. Jonsson                     : NEB implementation
   FAccTs GmbH                                   : IRC, NEB, NEB-TS, Multilevel, MM, QM/MM, CI optimization
   S Lehtola, MJT Oliveira, MAL Marques          : LibXC Library


 Your calculation uses the libint2 library for the computation of 2-el integrals
 For citations please refer to: http://libint.valeyev.net

 Your ORCA version has been built with support for libXC version: 4.2.3
 For citations please refer to: https://tddft.org/programs/libxc/

 This ORCA versions uses:
   CBLAS   interface :  Fast vector & matrix operations
   LAPACKE interface :  Fast linear algebra routines
   SCALAPACK package :  Parallel linear algebra routines


----- Orbital basis set information -----
Your calculation utilizes the basis: ANO-RCC-DZP
   H, He:       P.-O. Widmark, P.-A. Malmqvist, and B. O. Roos, Theor. Chim. Acta 77, 291 (1990).
   s block:     B. O. Roos, V. Veryazov and P.-O. Widmark, Theor. Chem. Acc. 111, 345 (2004).
   p block:     B. O. Roos, R. Lindh, P.-A. Malmqvist, V. Veryazov, and P.-O. Widmark, J. Phys. Chem. A 108, 2851 (2004).
   d block:     B. O. Roos, R. Lindh, P.-A. Malmqvist, V. Veryazov, and P.-O. Widmark, J. Phys. Chem. A 109, 6575 (2005).
   actinides:   B. O. Roos, R. Lindh, P.-A. Malmqvist, V. Veryazov, and P.-O. Widmark, Chem. Phys. Letters 409, 295 (2005).
   lanthanides: B. O. Roos, R. Lindh, P.-A. Malmqvist, V. Veryazov, P.-O. Widmark and A. C. Borin, J. Phys. Chem. A 112, 11431 (2008).

================================================================================
                                        WARNINGS
                       Please study these warnings very carefully!
================================================================================


INFO   : the flag for use of LIBINT has been found!

================================================================================
                                       INPUT FILE
================================================================================
NAME = Ar_ano-rcc-dzp_274.071978_.inp
|  1> ! LDA ano-rcc-dzp nori grid5 finalgrid6 verytightscf
|  2> %Pal NProcs 18 End
|  3> 
|  4> % REL
|  5>   Method ZORA
|  6>   ModelPot 1, 0, 0, 0
|  7>   velit 274.071978
|  8> END
|  9> 
| 10> *xyz 16 1
| 11> Ar 0.0 0.0 0.0
| 12> **                         ****END OF INPUT****
================================================================================

                       ****************************
                       * Single Point Calculation *
                       ****************************

---------------------------------
CARTESIAN COORDINATES (ANGSTROEM)
---------------------------------
  Ar     0.000000    0.000000    0.000000

----------------------------
CARTESIAN COORDINATES (A.U.)
----------------------------
  NO LB      ZA    FRAG     MASS         X           Y           Z
   0 Ar   18.0000    0    39.948    0.000000    0.000000    0.000000

--------------------------------
INTERNAL COORDINATES (ANGSTROEM)
--------------------------------
 Ar     0   0   0     0.000000000000     0.00000000     0.00000000

---------------------------
INTERNAL COORDINATES (A.U.)
---------------------------
 Ar     0   0   0     0.000000000000     0.00000000     0.00000000

---------------------
BASIS SET INFORMATION
---------------------
There are 1 groups of distinct atoms

 Group   1 Type Ar  : 68s36p5d contracted to 4s3p1d pattern {17171717/121212/5}

Atom   0Ar   basis set group =>   1


           ************************************************************
           *        Program running with 18 parallel MPI-processes    *
           *              working on a common directory               *
           ************************************************************


------------------------------------------------------------------------------
                       ORCA GTO INTEGRAL CALCULATION
                     -- ANO INTEGRAL GENERATION BRANCH --
------------------------------------------------------------------------------


Gathering ANO information                         ... done
Calculation Information:
Number of atoms                                   ... 1
Number of basis functions                         ... 18
Highest angular momentum                          ... 2
Number of primitive shells                        ... 34
Total number of shells                            ... 8
Maximum number of shells                          ... 8

Getting memory                                    ... done
Making prescreening integrals                     ... done
Gathering atom contracted prescreening            ... done
Making one-electron integrals                     ... done

Timings:

Total time                                        ...    0.1 sec
Prescreening matrix                               ...    0.1 sec
One-electron matrix                               ...    0.0 sec
Two-index integrals + Cholesky                    ...    0.0 sec


           ************************************************************
           *        Program running with 18 parallel MPI-processes    *
           *              working on a common directory               *
           ************************************************************
------------------------------------------------------------------------------
                          ORCA RELATIVISTIC HAMILTONIAN
------------------------------------------------------------------------------

Relativistic Method            ... ZORA(MP)
Treatment of potential         ... Van Wuellen
Nucleus model                  ... Point Nucleus
Speed of light used            ... 274.07197800000000


            *************************************************
            *         ZERO ORDER REGULAR APPROXIMATION      *
            *                     ZORA(MP)                  *
            *            Programmed by FN according to      *
            *                   C. van Wuellen              *
            *       J. Chem. Phys. (1998) vol 109, 392-399  *
            *************************************************

Terms included in model potential: +V(e,N)
Basis function cutoff value   ... 1.000000e-12
Loading the fitted atomic densities  (DKH4)  ... done
Calculating the cutoffs                      ... done
Number of fit functions                      ... 15
Setting up the integration grid ... done


           ************************************************************
           *        Program running with 18 parallel MPI-processes    *
           *              working on a common directory               *
           ************************************************************
-------------------------------------------------------------------------------
                                 ORCA SCF
-------------------------------------------------------------------------------

------------
SCF SETTINGS
------------
Hamiltonian:
 Density Functional     Method          .... DFT(GTOs)
 Exchange Functional    Exchange        .... Slater
   X-Alpha parameter    XAlpha          ....  0.666667
 Correlation Functional Correlation     .... VWN-5
 Gradients option       PostSCFGGA      .... off
   Density functional embedding theory  .... OFF

Relativistic Settings:
 Scalar relativistic method             .... ZORA
 Speed of light used       Velit        ....       274.071978
Orbital energies will be scaled


General Settings:
 Integral files         IntName         .... Ar_ano-rcc-dzp_274.071978_
 Hartree-Fock type      HFTyp           .... RHF
 Total Charge           Charge          ....   16
 Multiplicity           Mult            ....    1
 Number of Electrons    NEL             ....    2
 Basis Dimension        Dim             ....   18
 Nuclear Repulsion      ENuc            ....      0.0000000000 Eh

Convergence Acceleration:
 DIIS                   CNVDIIS         .... on
   Start iteration      DIISMaxIt       ....    12
   Startup error        DIISStart       ....  0.200000
   # of expansion vecs  DIISMaxEq       ....     5
   Bias factor          DIISBfac        ....   1.050
   Max. coefficient     DIISMaxC        ....  10.000
 Newton-Raphson         CNVNR           .... off
 SOSCF                  CNVSOSCF        .... on
   Start iteration      SOSCFMaxIt      ....   150
   Startup grad/error   SOSCFStart      ....  0.003300
 Level Shifting         CNVShift        .... on
   Level shift para.    LevelShift      ....    0.2500
   Turn off err/grad.   ShiftErr        ....    0.0010
 Zerner damping         CNVZerner       .... off
 Static damping         CNVDamp         .... on
   Fraction old density DampFac         ....    0.7000
   Max. Damping (<1)    DampMax         ....    0.9800
   Min. Damping (>=0)   DampMin         ....    0.0000
   Turn off err/grad.   DampErr         ....    0.1000
 Fernandez-Rico         CNVRico         .... off

SCF Procedure:
 Maximum # iterations   MaxIter         ....   125
 SCF integral mode      SCFMode         .... Direct
   Integral package                     .... LIBINT
 Reset frequency        DirectResetFreq ....    20
 Integral Threshold     Thresh          ....  1.000e-12 Eh
 Primitive CutOff       TCut            ....  1.000e-14 Eh

Convergence Tolerance:
 Convergence Check Mode ConvCheckMode   .... Total+1el-Energy
 Convergence forced     ConvForced      .... 0
 Energy Change          TolE            ....  1.000e-09 Eh
 1-El. energy change                    ....  1.000e-06 Eh
 Orbital Gradient       TolG            ....  2.000e-06
 Orbital Rotation angle TolX            ....  2.000e-06
 DIIS Error             TolErr          ....  1.000e-08


Diagonalization of the overlap matrix:
Smallest eigenvalue                        ... 1.000e+00
Time for diagonalization                   ...    0.001 sec
Threshold for overlap eigenvalues          ... 1.000e-08
Number of eigenvalues below threshold      ... 0
Time for construction of square roots      ...    0.001 sec
Total time needed                          ...    0.002 sec

-------------------
DFT GRID GENERATION
-------------------

General Integration Accuracy     IntAcc      ...  5.010
Radial Grid Type                 RadialGrid  ... Gauss-Chebyshev
Angular Grid (max. acc.)         AngularGrid ... Lebedev-434
Angular grid pruning method      GridPruning ... 3 (G Style)
Weight generation scheme         WeightScheme... Becke
Basis function cutoff            BFCut       ...    1.0000e-12
Integration weight cutoff        WCut        ...    1.0000e-14
Grids for H and He will be reduced by one unit

# of grid points (after initial pruning)     ...  11992 (   0.0 sec)
# of grid points (after weights+screening)   ...  11992 (   0.0 sec)
Grid point division into batches done        ...    0.1 sec
Reduced shell lists constructed in    0.1 sec

Total number of grid points                  ...    11992
Total number of batches                      ...      188
Average number of points per batch           ...       63
Average number of grid points per atom       ...    11992
Average number of shells per batch           ...     3.50 (43.75%)
Average number of basis functions per batch  ...     9.67 (53.70%)
Average number of large shells per batch     ...     2.25 (64.29%)
Average number of large basis fcns per batch ...     5.92 (61.21%)
Maximum spatial batch extension              ...  18.71, 18.71, 18.71 au
Average spatial batch extension              ...   0.97,  0.98,  0.97 au

Time for grid setup =    0.156 sec

------------------------------
INITIAL GUESS: MODEL POTENTIAL
------------------------------
Loading ZORA relativistic densities                ... done
Calculating cut-offs                               ... done
Setting up the integral package                    ... done
Initializing the effective Hamiltonian             ... done
Starting the Coulomb interaction                   ... done (   0.0 sec)
Reading the grid                                   ... done
Mapping shells                                     ... done
Starting the XC term evaluation                    ... done (   0.0 sec)
  promolecular density results
     # of electrons  =     18.000000116
     EX              =    -28.047870263
     EC              =     -1.433252902
     EX+EC           =    -29.481123164
Transforming the Hamiltonian                       ... done (   0.0 sec)
Diagonalizing the Hamiltonian                      ... done (   0.0 sec)
Back transforming the eigenvectors                 ... done (   0.0 sec)
Now organizing SCF variables                       ... done
                      ------------------
                      INITIAL GUESS DONE (   0.2 sec)
                      ------------------
--------------
SCF ITERATIONS
--------------
ITER       Energy         Delta-E        Max-DP      RMS-DP      [F,P]     Damp
               ***  Starting incremental Fock matrix formation  ***
  0   -311.7906560427   0.000000000000 0.00513580  0.00029758  1.9230021 0.7000
                      *** Initiating the SOSCF procedure ***
                      *** Re-Reading the Fockian *** 
                      *** Removing any level shift *** 
ITER      Energy       Delta-E        Grad      Rot      Max-DP    RMS-DP
  1   -311.79642354  -0.0057674999  0.000159  0.000159  0.011987  0.000694
               *** Restarting incremental Fock matrix formation ***
  2   -311.80978721  -0.0133636704  0.004747  0.000042  0.000081  0.000005
  3   -311.80978765  -0.0000004378  0.000031  0.000000  0.000001  0.000000
                 **** Energy Check signals convergence ****
              ***Rediagonalizing the Fockian in SOSCF/NRSCF***

               *****************************************************
               *                     SUCCESS                       *
               *           SCF CONVERGED AFTER   4 CYCLES          *
               *****************************************************

Setting up the final grid:

General Integration Accuracy     IntAcc      ...  5.340
Radial Grid Type                 RadialGrid  ... Gauss-Chebyshev
Angular Grid (max. acc.)         AngularGrid ... Lebedev-590
Angular grid pruning method      GridPruning ... 3 (G Style)
Weight generation scheme         WeightScheme... Becke
Basis function cutoff            BFCut       ...    1.0000e-12
Integration weight cutoff        WCut        ...    1.0000e-14
Grids for H and He will be reduced by one unit

# of grid points (after initial pruning)     ...  18110 (   0.0 sec)
# of grid points (after weights+screening)   ...  18110 (   0.0 sec)
Grid point division into batches done        ...    0.2 sec
Reduced shell lists constructed in    0.2 sec

Total number of grid points                  ...    18110
Total number of batches                      ...      283
Average number of points per batch           ...       63
Average number of grid points per atom       ...    18110
Average number of shells per batch           ...     1.18 (14.71%)
Average number of basis functions per batch  ...     3.53 (19.61%)
Average number of large shells per batch     ...     0.59 (50.00%)
Average number of large basis fcns per batch ...     1.76 (50.00%)
Maximum spatial batch extension              ...  19.03, 19.03, 19.03 au
Average spatial batch extension              ...   0.84,  0.84,  0.80 au

Final grid set up in    0.2 sec
Final integration                            ... done (   0.0 sec)
Change in XC energy                          ...     0.000014078
Integrated number of electrons               ...     2.000000249
Previous integrated no of electrons          ...     2.000000961

----------------
TOTAL SCF ENERGY
----------------

Total Energy       :         -311.80977357 Eh           -8484.77530 eV

Components:
Nuclear Repulsion  :            0.00000000 Eh               0.00000 eV
Electronic Energy  :         -311.80977357 Eh           -8484.77530 eV
One Electron Energy:         -324.18607202 Eh           -8821.55150 eV
Two Electron Energy:           12.37629845 Eh             336.77620 eV

Virial components:
Potential Energy   :         -630.80113549 Eh          -17164.97155 eV
Kinetic Energy     :          318.99136191 Eh            8680.19625 eV
Virial Ratio       :            1.97748657


DFT components:
N(Alpha)           :        1.000000124477 electrons
N(Beta)            :        1.000000124477 electrons
N(Total)           :        2.000000248955 electrons
E(X)               :       -9.492394730073 Eh       
E(C)               :       -0.237122449798 Eh       
E(XC)              :       -9.729517179870 Eh       
DFET-embed. en.    :        0.000000000000 Eh       

---------------
SCF CONVERGENCE
---------------

  Last Energy change         ...   -1.8758e-11  Tolerance :   1.0000e-09
  Last MAX-Density change    ...    0.0000e+00  Tolerance :   1.0000e-08
  Last RMS-Density change    ...    0.0000e+00  Tolerance :   1.0000e-09
  Last Orbital Gradient      ...    5.1419e-11  Tolerance :   2.0000e-06
  Last Orbital Rotation      ...    0.0000e+00  Tolerance :   2.0000e-06

================================================================================
                                        WARNING
Number of found core electrons (2) does not match given number of chemical core electrons (10)
================================================================================
             **** THE GBW FILE WAS UPDATED (Ar_ano-rcc-dzp_274.071978_.gbw) ****
             **** DENSITY FILE WAS UPDATED (Ar_ano-rcc-dzp_274.071978_.scfp) ****
             **** ENERGY FILE WAS UPDATED (Ar_ano-rcc-dzp_274.071978_.en.tmp) ****
             **** THE GBW FILE WAS UPDATED (Ar_ano-rcc-dzp_274.071978_.gbw) ****
             **** DENSITY FILE WAS UPDATED (Ar_ano-rcc-dzp_274.071978_.scfp) ****
----------------
ORBITAL ENERGIES
----------------

  NO   OCC          E(Eh)            E(eV) 
   0   2.0000    -146.443606     -3984.9331 
   1   0.0000     -33.735326      -917.9849 
   2   0.0000     -32.532310      -885.2492 
   3   0.0000     -32.532310      -885.2492 
   4   0.0000     -32.532310      -885.2492 
   5   0.0000     -13.441453      -365.7605 
   6   0.0000     -12.173380      -331.2545 
   7   0.0000     -12.173380      -331.2545 
   8   0.0000     -12.173380      -331.2545 
   9   0.0000      -9.340432      -254.1661 
  10   0.0000      -9.340432      -254.1661 
  11   0.0000      -9.340432      -254.1661 
  12   0.0000      -9.340432      -254.1661 
  13   0.0000      -9.340432      -254.1661 
  14   0.0000      -6.744492      -183.5270 
  15   0.0000      -5.703005      -155.1866 
  16   0.0000      -5.703005      -155.1866 
  17   0.0000      -5.703005      -155.1866 

                    ********************************
                    * MULLIKEN POPULATION ANALYSIS *
                    ********************************

-----------------------
MULLIKEN ATOMIC CHARGES
-----------------------
   0 Ar:   16.000000
Sum of atomic charges:   16.0000000

--------------------------------
MULLIKEN REDUCED ORBITAL CHARGES
--------------------------------
  0 Ars       :     2.000000  s :     2.000000
      pz      :     0.000000  p :     0.000000
      px      :     0.000000
      py      :     0.000000
      dz2     :     0.000000  d :     0.000000
      dxz     :     0.000000
      dyz     :     0.000000
      dx2y2   :     0.000000
      dxy     :     0.000000


                     *******************************
                     * LOEWDIN POPULATION ANALYSIS *
                     *******************************

----------------------
LOEWDIN ATOMIC CHARGES
----------------------
   0 Ar:   16.000000

-------------------------------
LOEWDIN REDUCED ORBITAL CHARGES
-------------------------------
  0 Ars       :     2.000000  s :     2.000000
      pz      :     0.000000  p :     0.000000
      px      :     0.000000
      py      :     0.000000
      dz2     :     0.000000  d :     0.000000
      dxz     :     0.000000
      dyz     :     0.000000
      dx2y2   :     0.000000
      dxy     :     0.000000


                      *****************************
                      * MAYER POPULATION ANALYSIS *
                      *****************************

  NA   - Mulliken gross atomic population
  ZA   - Total nuclear charge
  QA   - Mulliken gross atomic charge
  VA   - Mayer's total valence
  BVA  - Mayer's bonded valence
  FA   - Mayer's free valence

  ATOM       NA         ZA         QA         VA         BVA        FA
  0 Ar     2.0000    18.0000    16.0000    -0.0000     0.0000    -0.0000

  Mayer bond orders larger than 0.100000


--------------------------
ATOM BASIS FOR ELEMENT Ar
--------------------------
 NewGTO Ar
 S 68
    1     455476.770000000019         0.000319855572
    2      64817.743000000002         0.001011605995
    3      19256.987000000001         0.002170189955
    4       6877.007300000000         0.005962867448
    5       2643.487700000000         0.015907899764
    6       1054.237500000000         0.044046280205
    7        429.371220000000         0.114458635386
    8        177.188590000000         0.254625144862
    9         73.763945000000         0.398472143383
   10         30.897007000000         0.278946098152
   11         12.999482000000         0.038334809277
   12          5.487679300000         0.003118566825
   13          2.322571600000        -0.001384650830
   14          0.984980700000         0.001002726118
   15          0.418397300000        -0.000643171096
   16          0.177959400000         0.000282016096
   17          0.071183800000        -0.000076278944
   18     455476.770000000019         0.000000466740
   19      64817.743000000002         0.000001478189
   20      19256.987000000001         0.000003179983
   21       6877.007300000000         0.000008766282
   22       2643.487700000000         0.000023616148
   23       1054.237500000000         0.000066581082
   24        429.371220000000         0.000181226209
   25        177.188590000000         0.000446549797
   26         73.763945000000         0.000891038502
   27         30.897007000000         0.000947443035
   28         12.999482000000        -0.000698141441
   29          5.487679300000        -0.003236375497
   30          2.322571600000        -0.001948017916
   31          0.984980700000        -0.000025369190
   32          0.418397300000        -0.000059821839
   33          0.177959400000         0.000022722136
   34          0.071183800000        -0.000006584591
   35     455476.770000000019         0.000000027531
   36      64817.743000000002         0.000000087115
   37      19256.987000000001         0.000000188096
   38       6877.007300000000         0.000000515464
   39       2643.487700000000         0.000001401959
   40       1054.237500000000         0.000003919925
   41        429.371220000000         0.000010835093
   42        177.188590000000         0.000026659569
   43         73.763945000000         0.000055379644
   44         30.897007000000         0.000060139250
   45         12.999482000000        -0.000046426054
   46          5.487679300000        -0.000314336602
   47          2.322571600000        -0.000332828154
   48          0.984980700000         0.000326601709
   49          0.418397300000         0.000648608026
   50          0.177959400000         0.000243731234
   51          0.071183800000         0.000004323972
   52     455476.770000000019         0.000000030428
   53      64817.743000000002         0.000000096256
   54      19256.987000000001         0.000000207985
   55       6877.007300000000         0.000000569686
   56       2643.487700000000         0.000001550663
   57       1054.237500000000         0.000004340200
   58        429.371220000000         0.000012017848
   59        177.188590000000         0.000029734216
   60         73.763945000000         0.000062535428
   61         30.897007000000         0.000069514380
   62         12.999482000000        -0.000076052540
   63          5.487679300000        -0.000366362925
   64          2.322571600000        -0.000586924002
   65          0.984980700000         0.001669804471
   66          0.418397300000         0.000002349449
   67          0.177959400000        -0.001042954539
   68          0.071183800000        -0.000040407292
 S 67
    1     455476.770000000019        -0.000001669421
    2      64817.743000000002        -0.000005279870
    3      19256.987000000001        -0.000011326862
    4       6877.007300000000        -0.000031121964
    5       2643.487700000000        -0.000083028021
    6       1054.237500000000        -0.000229890529
    7        429.371220000000        -0.000597393380
    8        177.188590000000        -0.001328963737
    9         73.763945000000        -0.002079743653
   10         30.897007000000        -0.001455901967
   11         12.999482000000        -0.000200080677
   12          5.487679300000        -0.000016276720
   13          2.322571600000         0.000007226901
   14          0.984980700000        -0.000005233523
   15          0.418397300000         0.000003356900
   16          0.177959400000        -0.000001471925
   17     455476.770000000019         0.000090860986
   18      64817.743000000002         0.000287761199
   19      19256.987000000001         0.000619051887
   20       6877.007300000000         0.001706544618
   21       2643.487700000000         0.004597389172
   22       1054.237500000000         0.012961434249
   23        429.371220000000         0.035279564632
   24        177.188590000000         0.086930486067
   25         73.763945000000         0.173459736454
   26         30.897007000000         0.184440087527
   27         12.999482000000        -0.135908190545
   28          5.487679300000        -0.630029835790
   29          2.322571600000        -0.379223427123
   30          0.984980700000        -0.004938656402
   31          0.418397300000        -0.011645602788
   32          0.177959400000         0.004423350627
   33          0.071183800000        -0.001281831802
   34     455476.770000000019         0.000002647086
   35      64817.743000000002         0.000008376181
   36      19256.987000000001         0.000018085519
   37       6877.007300000000         0.000049562123
   38       2643.487700000000         0.000134799011
   39       1054.237500000000         0.000376902504
   40        429.371220000000         0.001041798947
   41        177.188590000000         0.002563329280
   42         73.763945000000         0.005324777031
   43         30.897007000000         0.005782415187
   44         12.999482000000        -0.004463885462
   45          5.487679300000        -0.030223602009
   46          2.322571600000        -0.032001572766
   47          0.984980700000         0.031402897412
   48          0.418397300000         0.062363945788
   49          0.177959400000         0.023434864865
   50          0.071183800000         0.000415751758
   51     455476.770000000019         0.000002678199
   52      64817.743000000002         0.000008472334
   53      19256.987000000001         0.000018306518
   54       6877.007300000000         0.000050142882
   55       2643.487700000000         0.000136486951
   56       1054.237500000000         0.000382017550
   57        429.371220000000         0.001057792107
   58        177.188590000000         0.002617158951
   59         73.763945000000         0.005504270005
   60         30.897007000000         0.006118546399
   61         12.999482000000        -0.006694024994
   62          5.487679300000        -0.032246688529
   63          2.322571600000        -0.051660127679
   64          0.984980700000         0.146973563580
   65          0.418397300000         0.000206794773
   66          0.177959400000        -0.091799218359
   67          0.071183800000        -0.003556586274
 S 66
    1     455476.770000000019        -0.000000210838
    2      64817.743000000002        -0.000000666816
    3      19256.987000000001        -0.000001430514
    4       6877.007300000000        -0.000003930517
    5       2643.487700000000        -0.000010485939
    6       1054.237500000000        -0.000029033789
    7        429.371220000000        -0.000075447186
    8        177.188590000000        -0.000167840116
    9         73.763945000000        -0.000262659098
   10         30.897007000000        -0.000183871650
   11         12.999482000000        -0.000025268984
   12          5.487679300000        -0.000002055652
   13          2.322571600000         0.000000912714
   14          0.984980700000        -0.000000660962
   15          0.418397300000         0.000000423956
   16     455476.770000000019        -0.000010876797
   17      64817.743000000002        -0.000034447348
   18      19256.987000000001        -0.000074105530
   19       6877.007300000000        -0.000204287226
   20       2643.487700000000        -0.000550344756
   21       1054.237500000000        -0.001551588762
   22        429.371220000000        -0.004223249909
   23        177.188590000000        -0.010406283954
   24         73.763945000000        -0.020764536744
   25         30.897007000000        -0.022078973789
   26         12.999482000000         0.016269312257
   27          5.487679300000         0.075419679187
   28          2.322571600000         0.045396118706
   29          0.984980700000         0.000591197211
   30          0.418397300000         0.001394073068
   31          0.177959400000        -0.000529510931
   32          0.071183800000         0.000153445659
   33     455476.770000000019         0.000024666918
   34      64817.743000000002         0.000078053603
   35      19256.987000000001         0.000168530254
   36       6877.007300000000         0.000461845592
   37       2643.487700000000         0.001256127179
   38       1054.237500000000         0.003512173231
   39        429.371220000000         0.009708023530
   40        177.188590000000         0.023886433216
   41         73.763945000000         0.049619037212
   42         30.897007000000         0.053883547177
   43         12.999482000000        -0.041596802567
   44          5.487679300000        -0.281639216832
   45          2.322571600000        -0.298207271533
   46          0.984980700000         0.292628503737
   47          0.418397300000         0.581139628720
   48          0.177959400000         0.218378239140
   49          0.071183800000         0.003874190757
   50     455476.770000000019         0.000017336752
   51      64817.743000000002         0.000054843855
   52      19256.987000000001         0.000118503353
   53       6877.007300000000         0.000324589296
   54       2643.487700000000         0.000883519277
   55       1054.237500000000         0.002472909442
   56        429.371220000000         0.006847392461
   57        177.188590000000         0.016941622413
   58         73.763945000000         0.035630722404
   59         30.897007000000         0.039607110127
   60         12.999482000000        -0.043332348538
   61          5.487679300000        -0.208742086840
   62          2.322571600000        -0.334410860462
   63          0.984980700000         0.951402136823
   64          0.418397300000         0.001338642027
   65          0.177959400000        -0.594242735753
   66          0.071183800000        -0.023022805588
 S 65
    1     455476.770000000019        -0.000000054839
    2      64817.743000000002        -0.000000173439
    3      19256.987000000001        -0.000000372077
    4       6877.007300000000        -0.000001022328
    5       2643.487700000000        -0.000002727394
    6       1054.237500000000        -0.000007551693
    7        429.371220000000        -0.000019623825
    8        177.188590000000        -0.000043655240
    9         73.763945000000        -0.000068317672
   10         30.897007000000        -0.000047825045
   11         12.999482000000        -0.000006572467
   12          5.487679300000        -0.000000534675
   13          2.322571600000         0.000000237397
   14          0.984980700000        -0.000000171916
   15     455476.770000000019        -0.000001870703
   16      64817.743000000002        -0.000005924609
   17      19256.987000000001        -0.000012745431
   18       6877.007300000000        -0.000035135419
   19       2643.487700000000        -0.000094653953
   20       1054.237500000000        -0.000266858199
   21        429.371220000000        -0.000726357970
   22        177.188590000000        -0.001789779780
   23         73.763945000000        -0.003571298665
   24         30.897007000000        -0.003797369072
   25         12.999482000000         0.002798163709
   26          5.487679300000         0.012971452383
   27          2.322571600000         0.007807691553
   28          0.984980700000         0.000101680179
   29          0.418397300000         0.000239767029
   30          0.177959400000        -0.000091070738
   31          0.071183800000         0.000026391163
   32     455476.770000000019        -0.000014843296
   33      64817.743000000002        -0.000046968685
   34      19256.987000000001        -0.000101412929
   35       6877.007300000000        -0.000277915170
   36       2643.487700000000        -0.000755873400
   37       1054.237500000000        -0.002113447083
   38        429.371220000000        -0.005841794427
   39        177.188590000000        -0.014373639703
   40         73.763945000000        -0.029858211013
   41         30.897007000000        -0.032424376049
   42         12.999482000000         0.025030838531
   43          5.487679300000         0.169476145412
   44          2.322571600000         0.179445957426
   45          0.984980700000        -0.176088938923
   46          0.418397300000        -0.349700248884
   47          0.177959400000        -0.131408908985
   48          0.071183800000        -0.002331290803
   49     455476.770000000019         0.000029288273
   50      64817.743000000002         0.000092651831
   51      19256.987000000001         0.000200196586
   52       6877.007300000000         0.000548353000
   53       2643.487700000000         0.001492595264
   54       1054.237500000000         0.004177671068
   55        429.371220000000         0.011567812754
   56        177.188590000000         0.028620751176
   57         73.763945000000         0.060193647059
   58         30.897007000000         0.066911256554
   59         12.999482000000        -0.073204580714
   60          5.487679300000        -0.352643635993
   61          2.322571600000        -0.564945304198
   62          0.984980700000         1.607274862006
   63          0.418397300000         0.002261468201
   64          0.177959400000        -1.003898744957
   65          0.071183800000        -0.038894149216
 P 36
    1       1462.496200000000         0.000953748244
    2        354.067310000000         0.006154605971
    3        126.697790000000         0.025542016395
    4         49.989095000000         0.092202968671
    5         20.509295000000         0.241876351830
    6          8.580464100000         0.412804857354
    7          3.630104900000         0.341239616755
    8          1.546528000000         0.072308106944
    9          0.661936900000         0.003484469861
   10          0.284242800000         0.000287922314
   11          0.122346300000         0.000472059716
   12          0.048938500000        -0.000084745449
   13       1462.496200000000         0.000026280318
   14        354.067310000000         0.000170288109
   15        126.697790000000         0.000712666505
   16         49.989095000000         0.002627875438
   17         20.509295000000         0.007121417948
   18          8.580464100000         0.012771361200
   19          3.630104900000         0.010556785289
   20          1.546528000000        -0.015501532695
   21          0.661936900000        -0.042789254107
   22          0.284242800000        -0.039250965213
   23          0.122346300000        -0.014040024916
   24          0.048938500000        -0.000647430063
   25       1462.496200000000         0.000029155623
   26        354.067310000000         0.000177339752
   27        126.697790000000         0.000807162080
   28         49.989095000000         0.002746619696
   29         20.509295000000         0.008335788307
   30          8.580464100000         0.012464305413
   31          3.630104900000         0.015210096439
   32          1.546528000000        -0.039010411604
   33          0.661936900000        -0.063752757735
   34          0.284242800000         0.044231895894
   35          0.122346300000         0.052399722420
   36          0.048938500000         0.005393270300
 P 36
    1       1462.496200000000        -0.000122710516
    2        354.067310000000        -0.000791859778
    3        126.697790000000        -0.003286269749
    4         49.989095000000        -0.011862956396
    5         20.509295000000        -0.031120132640
    6          8.580464100000        -0.053112021156
    7          3.630104900000        -0.043904342261
    8          1.546528000000        -0.009303257065
    9          0.661936900000        -0.000448316520
   10          0.284242800000        -0.000037044467
   11          0.122346300000        -0.000060735830
   12          0.048938500000         0.000010903462
   13       1462.496200000000         0.000227516933
   14        354.067310000000         0.001474237416
   15        126.697790000000         0.006169776823
   16         49.989095000000         0.022750339549
   17         20.509295000000         0.061652342439
   18          8.580464100000         0.110565668224
   19          3.630104900000         0.091393391945
   20          1.546528000000        -0.134201616734
   21          0.661936900000        -0.370439955381
   22          0.284242800000        -0.339807881810
   23          0.122346300000        -0.121548886797
   24          0.048938500000        -0.005605004545
   25       1462.496200000000         0.000184358869
   26        354.067310000000         0.001121367084
   27        126.697790000000         0.005103903545
   28         49.989095000000         0.017367617186
   29         20.509295000000         0.052709437875
   30          8.580464100000         0.078815165122
   31          3.630104900000         0.096177542404
   32          1.546528000000        -0.246673354851
   33          0.661936900000        -0.403125883193
   34          0.284242800000         0.279690208408
   35          0.122346300000         0.331337578645
   36          0.048938500000         0.034103102834
 P 35
    1       1462.496200000000        -0.000018612199
    2        354.067310000000        -0.000120105856
    3        126.697790000000        -0.000498447140
    4         49.989095000000        -0.001799321767
    5         20.509295000000        -0.004720166726
    6          8.580464100000        -0.008055800979
    7          3.630104900000        -0.006659220185
    8          1.546528000000        -0.001411077676
    9          0.661936900000        -0.000067998705
   10          0.284242800000        -0.000005618744
   11          0.122346300000        -0.000009212147
   12       1462.496200000000        -0.000153335499
   13        354.067310000000        -0.000993565300
   14        126.697790000000        -0.004158133620
   15         49.989095000000        -0.015332637542
   16         20.509295000000        -0.041550721395
   17          8.580464100000        -0.074515956644
   18          3.630104900000        -0.061594762109
   19          1.546528000000         0.090445452144
   20          0.661936900000         0.249658760245
   21          0.284242800000         0.229014212052
   22          0.122346300000         0.081918119107
   23          0.048938500000         0.003777504196
   24       1462.496200000000         0.000278545952
   25        354.067310000000         0.001694262190
   26        126.697790000000         0.007711436264
   27         49.989095000000         0.026240557214
   28         20.509295000000         0.079638156773
   29          8.580464100000         0.119081036131
   30          3.630104900000         0.145313676426
   31          1.546528000000        -0.372696277883
   32          0.661936900000        -0.609078821160
   33          0.284242800000         0.422581108110
   34          0.122346300000         0.500614597626
   35          0.048938500000         0.051526033276
 D 5
    1          4.328841700000         0.027886140074
    2          1.774230200000         0.193753660516
    3          0.727190600000         0.602274991605
    4          0.298048200000         0.305103490813
    5          0.119219300000         0.028800580077
 end
  // -----------------------------------------------
  // The basis set
  // -----------------------------------------------
  BAS[ATNO] = new BFNGauss[NSH];
  // Basis function   1 L = s
  InitBFNGauss(BAS[ATNO][  0]);
  BAS[ATNO][  0].l  = 0;
  BAS[ATNO][  0].ng = 68;
  BAS[ATNO][  0].a[  0] =    455476.770000000019;     BAS[ATNO][  0].d[  0] =         0.000319855572;
  BAS[ATNO][  0].a[  1] =     64817.743000000002;     BAS[ATNO][  0].d[  1] =         0.001011605995;
  BAS[ATNO][  0].a[  2] =     19256.987000000001;     BAS[ATNO][  0].d[  2] =         0.002170189955;
  BAS[ATNO][  0].a[  3] =      6877.007300000000;     BAS[ATNO][  0].d[  3] =         0.005962867448;
  BAS[ATNO][  0].a[  4] =      2643.487700000000;     BAS[ATNO][  0].d[  4] =         0.015907899764;
  BAS[ATNO][  0].a[  5] =      1054.237500000000;     BAS[ATNO][  0].d[  5] =         0.044046280205;
  BAS[ATNO][  0].a[  6] =       429.371220000000;     BAS[ATNO][  0].d[  6] =         0.114458635386;
  BAS[ATNO][  0].a[  7] =       177.188590000000;     BAS[ATNO][  0].d[  7] =         0.254625144862;
  BAS[ATNO][  0].a[  8] =        73.763945000000;     BAS[ATNO][  0].d[  8] =         0.398472143383;
  BAS[ATNO][  0].a[  9] =        30.897007000000;     BAS[ATNO][  0].d[  9] =         0.278946098152;
  BAS[ATNO][  0].a[ 10] =        12.999482000000;     BAS[ATNO][  0].d[ 10] =         0.038334809277;
  BAS[ATNO][  0].a[ 11] =         5.487679300000;     BAS[ATNO][  0].d[ 11] =         0.003118566825;
  BAS[ATNO][  0].a[ 12] =         2.322571600000;     BAS[ATNO][  0].d[ 12] =        -0.001384650830;
  BAS[ATNO][  0].a[ 13] =         0.984980700000;     BAS[ATNO][  0].d[ 13] =         0.001002726118;
  BAS[ATNO][  0].a[ 14] =         0.418397300000;     BAS[ATNO][  0].d[ 14] =        -0.000643171096;
  BAS[ATNO][  0].a[ 15] =         0.177959400000;     BAS[ATNO][  0].d[ 15] =         0.000282016096;
  BAS[ATNO][  0].a[ 16] =         0.071183800000;     BAS[ATNO][  0].d[ 16] =        -0.000076278944;
  BAS[ATNO][  0].a[ 17] =    455476.770000000019;     BAS[ATNO][  0].d[ 17] =         0.000000466740;
  BAS[ATNO][  0].a[ 18] =     64817.743000000002;     BAS[ATNO][  0].d[ 18] =         0.000001478189;
  BAS[ATNO][  0].a[ 19] =     19256.987000000001;     BAS[ATNO][  0].d[ 19] =         0.000003179983;
  BAS[ATNO][  0].a[ 20] =      6877.007300000000;     BAS[ATNO][  0].d[ 20] =         0.000008766282;
  BAS[ATNO][  0].a[ 21] =      2643.487700000000;     BAS[ATNO][  0].d[ 21] =         0.000023616148;
  BAS[ATNO][  0].a[ 22] =      1054.237500000000;     BAS[ATNO][  0].d[ 22] =         0.000066581082;
  BAS[ATNO][  0].a[ 23] =       429.371220000000;     BAS[ATNO][  0].d[ 23] =         0.000181226209;
  BAS[ATNO][  0].a[ 24] =       177.188590000000;     BAS[ATNO][  0].d[ 24] =         0.000446549797;
  BAS[ATNO][  0].a[ 25] =        73.763945000000;     BAS[ATNO][  0].d[ 25] =         0.000891038502;
  BAS[ATNO][  0].a[ 26] =        30.897007000000;     BAS[ATNO][  0].d[ 26] =         0.000947443035;
  BAS[ATNO][  0].a[ 27] =        12.999482000000;     BAS[ATNO][  0].d[ 27] =        -0.000698141441;
  BAS[ATNO][  0].a[ 28] =         5.487679300000;     BAS[ATNO][  0].d[ 28] =        -0.003236375497;
  BAS[ATNO][  0].a[ 29] =         2.322571600000;     BAS[ATNO][  0].d[ 29] =        -0.001948017916;
  BAS[ATNO][  0].a[ 30] =         0.984980700000;     BAS[ATNO][  0].d[ 30] =        -0.000025369190;
  BAS[ATNO][  0].a[ 31] =         0.418397300000;     BAS[ATNO][  0].d[ 31] =        -0.000059821839;
  BAS[ATNO][  0].a[ 32] =         0.177959400000;     BAS[ATNO][  0].d[ 32] =         0.000022722136;
  BAS[ATNO][  0].a[ 33] =         0.071183800000;     BAS[ATNO][  0].d[ 33] =        -0.000006584591;
  BAS[ATNO][  0].a[ 34] =    455476.770000000019;     BAS[ATNO][  0].d[ 34] =         0.000000027531;
  BAS[ATNO][  0].a[ 35] =     64817.743000000002;     BAS[ATNO][  0].d[ 35] =         0.000000087115;
  BAS[ATNO][  0].a[ 36] =     19256.987000000001;     BAS[ATNO][  0].d[ 36] =         0.000000188096;
  BAS[ATNO][  0].a[ 37] =      6877.007300000000;     BAS[ATNO][  0].d[ 37] =         0.000000515464;
  BAS[ATNO][  0].a[ 38] =      2643.487700000000;     BAS[ATNO][  0].d[ 38] =         0.000001401959;
  BAS[ATNO][  0].a[ 39] =      1054.237500000000;     BAS[ATNO][  0].d[ 39] =         0.000003919925;
  BAS[ATNO][  0].a[ 40] =       429.371220000000;     BAS[ATNO][  0].d[ 40] =         0.000010835093;
  BAS[ATNO][  0].a[ 41] =       177.188590000000;     BAS[ATNO][  0].d[ 41] =         0.000026659569;
  BAS[ATNO][  0].a[ 42] =        73.763945000000;     BAS[ATNO][  0].d[ 42] =         0.000055379644;
  BAS[ATNO][  0].a[ 43] =        30.897007000000;     BAS[ATNO][  0].d[ 43] =         0.000060139250;
  BAS[ATNO][  0].a[ 44] =        12.999482000000;     BAS[ATNO][  0].d[ 44] =        -0.000046426054;
  BAS[ATNO][  0].a[ 45] =         5.487679300000;     BAS[ATNO][  0].d[ 45] =        -0.000314336602;
  BAS[ATNO][  0].a[ 46] =         2.322571600000;     BAS[ATNO][  0].d[ 46] =        -0.000332828154;
  BAS[ATNO][  0].a[ 47] =         0.984980700000;     BAS[ATNO][  0].d[ 47] =         0.000326601709;
  BAS[ATNO][  0].a[ 48] =         0.418397300000;     BAS[ATNO][  0].d[ 48] =         0.000648608026;
  BAS[ATNO][  0].a[ 49] =         0.177959400000;     BAS[ATNO][  0].d[ 49] =         0.000243731234;
  BAS[ATNO][  0].a[ 50] =         0.071183800000;     BAS[ATNO][  0].d[ 50] =         0.000004323972;
  BAS[ATNO][  0].a[ 51] =    455476.770000000019;     BAS[ATNO][  0].d[ 51] =         0.000000030428;
  BAS[ATNO][  0].a[ 52] =     64817.743000000002;     BAS[ATNO][  0].d[ 52] =         0.000000096256;
  BAS[ATNO][  0].a[ 53] =     19256.987000000001;     BAS[ATNO][  0].d[ 53] =         0.000000207985;
  BAS[ATNO][  0].a[ 54] =      6877.007300000000;     BAS[ATNO][  0].d[ 54] =         0.000000569686;
  BAS[ATNO][  0].a[ 55] =      2643.487700000000;     BAS[ATNO][  0].d[ 55] =         0.000001550663;
  BAS[ATNO][  0].a[ 56] =      1054.237500000000;     BAS[ATNO][  0].d[ 56] =         0.000004340200;
  BAS[ATNO][  0].a[ 57] =       429.371220000000;     BAS[ATNO][  0].d[ 57] =         0.000012017848;
  BAS[ATNO][  0].a[ 58] =       177.188590000000;     BAS[ATNO][  0].d[ 58] =         0.000029734216;
  BAS[ATNO][  0].a[ 59] =        73.763945000000;     BAS[ATNO][  0].d[ 59] =         0.000062535428;
  BAS[ATNO][  0].a[ 60] =        30.897007000000;     BAS[ATNO][  0].d[ 60] =         0.000069514380;
  BAS[ATNO][  0].a[ 61] =        12.999482000000;     BAS[ATNO][  0].d[ 61] =        -0.000076052540;
  BAS[ATNO][  0].a[ 62] =         5.487679300000;     BAS[ATNO][  0].d[ 62] =        -0.000366362925;
  BAS[ATNO][  0].a[ 63] =         2.322571600000;     BAS[ATNO][  0].d[ 63] =        -0.000586924002;
  BAS[ATNO][  0].a[ 64] =         0.984980700000;     BAS[ATNO][  0].d[ 64] =         0.001669804471;
  BAS[ATNO][  0].a[ 65] =         0.418397300000;     BAS[ATNO][  0].d[ 65] =         0.000002349449;
  BAS[ATNO][  0].a[ 66] =         0.177959400000;     BAS[ATNO][  0].d[ 66] =        -0.001042954539;
  BAS[ATNO][  0].a[ 67] =         0.071183800000;     BAS[ATNO][  0].d[ 67] =        -0.000040407292;

  // Basis function   2 L = s
  InitBFNGauss(BAS[ATNO][  1]);
  BAS[ATNO][  1].l  = 0;
  BAS[ATNO][  1].ng = 67;
  BAS[ATNO][  1].a[  0] =    455476.770000000019;     BAS[ATNO][  1].d[  0] =         0.000001669421;
  BAS[ATNO][  1].a[  1] =     64817.743000000002;     BAS[ATNO][  1].d[  1] =         0.000005279870;
  BAS[ATNO][  1].a[  2] =     19256.987000000001;     BAS[ATNO][  1].d[  2] =         0.000011326862;
  BAS[ATNO][  1].a[  3] =      6877.007300000000;     BAS[ATNO][  1].d[  3] =         0.000031121964;
  BAS[ATNO][  1].a[  4] =      2643.487700000000;     BAS[ATNO][  1].d[  4] =         0.000083028021;
  BAS[ATNO][  1].a[  5] =      1054.237500000000;     BAS[ATNO][  1].d[  5] =         0.000229890529;
  BAS[ATNO][  1].a[  6] =       429.371220000000;     BAS[ATNO][  1].d[  6] =         0.000597393380;
  BAS[ATNO][  1].a[  7] =       177.188590000000;     BAS[ATNO][  1].d[  7] =         0.001328963737;
  BAS[ATNO][  1].a[  8] =        73.763945000000;     BAS[ATNO][  1].d[  8] =         0.002079743653;
  BAS[ATNO][  1].a[  9] =        30.897007000000;     BAS[ATNO][  1].d[  9] =         0.001455901967;
  BAS[ATNO][  1].a[ 10] =        12.999482000000;     BAS[ATNO][  1].d[ 10] =         0.000200080677;
  BAS[ATNO][  1].a[ 11] =         5.487679300000;     BAS[ATNO][  1].d[ 11] =         0.000016276720;
  BAS[ATNO][  1].a[ 12] =         2.322571600000;     BAS[ATNO][  1].d[ 12] =        -0.000007226901;
  BAS[ATNO][  1].a[ 13] =         0.984980700000;     BAS[ATNO][  1].d[ 13] =         0.000005233523;
  BAS[ATNO][  1].a[ 14] =         0.418397300000;     BAS[ATNO][  1].d[ 14] =        -0.000003356900;
  BAS[ATNO][  1].a[ 15] =         0.177959400000;     BAS[ATNO][  1].d[ 15] =         0.000001471925;
  BAS[ATNO][  1].a[ 16] =    455476.770000000019;     BAS[ATNO][  1].d[ 16] =        -0.000090860986;
  BAS[ATNO][  1].a[ 17] =     64817.743000000002;     BAS[ATNO][  1].d[ 17] =        -0.000287761199;
  BAS[ATNO][  1].a[ 18] =     19256.987000000001;     BAS[ATNO][  1].d[ 18] =        -0.000619051887;
  BAS[ATNO][  1].a[ 19] =      6877.007300000000;     BAS[ATNO][  1].d[ 19] =        -0.001706544618;
  BAS[ATNO][  1].a[ 20] =      2643.487700000000;     BAS[ATNO][  1].d[ 20] =        -0.004597389172;
  BAS[ATNO][  1].a[ 21] =      1054.237500000000;     BAS[ATNO][  1].d[ 21] =        -0.012961434249;
  BAS[ATNO][  1].a[ 22] =       429.371220000000;     BAS[ATNO][  1].d[ 22] =        -0.035279564632;
  BAS[ATNO][  1].a[ 23] =       177.188590000000;     BAS[ATNO][  1].d[ 23] =        -0.086930486067;
  BAS[ATNO][  1].a[ 24] =        73.763945000000;     BAS[ATNO][  1].d[ 24] =        -0.173459736454;
  BAS[ATNO][  1].a[ 25] =        30.897007000000;     BAS[ATNO][  1].d[ 25] =        -0.184440087527;
  BAS[ATNO][  1].a[ 26] =        12.999482000000;     BAS[ATNO][  1].d[ 26] =         0.135908190545;
  BAS[ATNO][  1].a[ 27] =         5.487679300000;     BAS[ATNO][  1].d[ 27] =         0.630029835790;
  BAS[ATNO][  1].a[ 28] =         2.322571600000;     BAS[ATNO][  1].d[ 28] =         0.379223427123;
  BAS[ATNO][  1].a[ 29] =         0.984980700000;     BAS[ATNO][  1].d[ 29] =         0.004938656402;
  BAS[ATNO][  1].a[ 30] =         0.418397300000;     BAS[ATNO][  1].d[ 30] =         0.011645602788;
  BAS[ATNO][  1].a[ 31] =         0.177959400000;     BAS[ATNO][  1].d[ 31] =        -0.004423350627;
  BAS[ATNO][  1].a[ 32] =         0.071183800000;     BAS[ATNO][  1].d[ 32] =         0.001281831802;
  BAS[ATNO][  1].a[ 33] =    455476.770000000019;     BAS[ATNO][  1].d[ 33] =        -0.000002647086;
  BAS[ATNO][  1].a[ 34] =     64817.743000000002;     BAS[ATNO][  1].d[ 34] =        -0.000008376181;
  BAS[ATNO][  1].a[ 35] =     19256.987000000001;     BAS[ATNO][  1].d[ 35] =        -0.000018085519;
  BAS[ATNO][  1].a[ 36] =      6877.007300000000;     BAS[ATNO][  1].d[ 36] =        -0.000049562123;
  BAS[ATNO][  1].a[ 37] =      2643.487700000000;     BAS[ATNO][  1].d[ 37] =        -0.000134799011;
  BAS[ATNO][  1].a[ 38] =      1054.237500000000;     BAS[ATNO][  1].d[ 38] =        -0.000376902504;
  BAS[ATNO][  1].a[ 39] =       429.371220000000;     BAS[ATNO][  1].d[ 39] =        -0.001041798947;
  BAS[ATNO][  1].a[ 40] =       177.188590000000;     BAS[ATNO][  1].d[ 40] =        -0.002563329280;
  BAS[ATNO][  1].a[ 41] =        73.763945000000;     BAS[ATNO][  1].d[ 41] =        -0.005324777031;
  BAS[ATNO][  1].a[ 42] =        30.897007000000;     BAS[ATNO][  1].d[ 42] =        -0.005782415187;
  BAS[ATNO][  1].a[ 43] =        12.999482000000;     BAS[ATNO][  1].d[ 43] =         0.004463885462;
  BAS[ATNO][  1].a[ 44] =         5.487679300000;     BAS[ATNO][  1].d[ 44] =         0.030223602009;
  BAS[ATNO][  1].a[ 45] =         2.322571600000;     BAS[ATNO][  1].d[ 45] =         0.032001572766;
  BAS[ATNO][  1].a[ 46] =         0.984980700000;     BAS[ATNO][  1].d[ 46] =        -0.031402897412;
  BAS[ATNO][  1].a[ 47] =         0.418397300000;     BAS[ATNO][  1].d[ 47] =        -0.062363945788;
  BAS[ATNO][  1].a[ 48] =         0.177959400000;     BAS[ATNO][  1].d[ 48] =        -0.023434864865;
  BAS[ATNO][  1].a[ 49] =         0.071183800000;     BAS[ATNO][  1].d[ 49] =        -0.000415751758;
  BAS[ATNO][  1].a[ 50] =    455476.770000000019;     BAS[ATNO][  1].d[ 50] =        -0.000002678199;
  BAS[ATNO][  1].a[ 51] =     64817.743000000002;     BAS[ATNO][  1].d[ 51] =        -0.000008472334;
  BAS[ATNO][  1].a[ 52] =     19256.987000000001;     BAS[ATNO][  1].d[ 52] =        -0.000018306518;
  BAS[ATNO][  1].a[ 53] =      6877.007300000000;     BAS[ATNO][  1].d[ 53] =        -0.000050142882;
  BAS[ATNO][  1].a[ 54] =      2643.487700000000;     BAS[ATNO][  1].d[ 54] =        -0.000136486951;
  BAS[ATNO][  1].a[ 55] =      1054.237500000000;     BAS[ATNO][  1].d[ 55] =        -0.000382017550;
  BAS[ATNO][  1].a[ 56] =       429.371220000000;     BAS[ATNO][  1].d[ 56] =        -0.001057792107;
  BAS[ATNO][  1].a[ 57] =       177.188590000000;     BAS[ATNO][  1].d[ 57] =        -0.002617158951;
  BAS[ATNO][  1].a[ 58] =        73.763945000000;     BAS[ATNO][  1].d[ 58] =        -0.005504270005;
  BAS[ATNO][  1].a[ 59] =        30.897007000000;     BAS[ATNO][  1].d[ 59] =        -0.006118546399;
  BAS[ATNO][  1].a[ 60] =        12.999482000000;     BAS[ATNO][  1].d[ 60] =         0.006694024994;
  BAS[ATNO][  1].a[ 61] =         5.487679300000;     BAS[ATNO][  1].d[ 61] =         0.032246688529;
  BAS[ATNO][  1].a[ 62] =         2.322571600000;     BAS[ATNO][  1].d[ 62] =         0.051660127679;
  BAS[ATNO][  1].a[ 63] =         0.984980700000;     BAS[ATNO][  1].d[ 63] =        -0.146973563580;
  BAS[ATNO][  1].a[ 64] =         0.418397300000;     BAS[ATNO][  1].d[ 64] =        -0.000206794773;
  BAS[ATNO][  1].a[ 65] =         0.177959400000;     BAS[ATNO][  1].d[ 65] =         0.091799218359;
  BAS[ATNO][  1].a[ 66] =         0.071183800000;     BAS[ATNO][  1].d[ 66] =         0.003556586274;

  // Basis function   3 L = s
  InitBFNGauss(BAS[ATNO][  2]);
  BAS[ATNO][  2].l  = 0;
  BAS[ATNO][  2].ng = 66;
  BAS[ATNO][  2].a[  0] =    455476.770000000019;     BAS[ATNO][  2].d[  0] =        -0.000000210838;
  BAS[ATNO][  2].a[  1] =     64817.743000000002;     BAS[ATNO][  2].d[  1] =        -0.000000666816;
  BAS[ATNO][  2].a[  2] =     19256.987000000001;     BAS[ATNO][  2].d[  2] =        -0.000001430514;
  BAS[ATNO][  2].a[  3] =      6877.007300000000;     BAS[ATNO][  2].d[  3] =        -0.000003930517;
  BAS[ATNO][  2].a[  4] =      2643.487700000000;     BAS[ATNO][  2].d[  4] =        -0.000010485939;
  BAS[ATNO][  2].a[  5] =      1054.237500000000;     BAS[ATNO][  2].d[  5] =        -0.000029033789;
  BAS[ATNO][  2].a[  6] =       429.371220000000;     BAS[ATNO][  2].d[  6] =        -0.000075447186;
  BAS[ATNO][  2].a[  7] =       177.188590000000;     BAS[ATNO][  2].d[  7] =        -0.000167840116;
  BAS[ATNO][  2].a[  8] =        73.763945000000;     BAS[ATNO][  2].d[  8] =        -0.000262659098;
  BAS[ATNO][  2].a[  9] =        30.897007000000;     BAS[ATNO][  2].d[  9] =        -0.000183871650;
  BAS[ATNO][  2].a[ 10] =        12.999482000000;     BAS[ATNO][  2].d[ 10] =        -0.000025268984;
  BAS[ATNO][  2].a[ 11] =         5.487679300000;     BAS[ATNO][  2].d[ 11] =        -0.000002055652;
  BAS[ATNO][  2].a[ 12] =         2.322571600000;     BAS[ATNO][  2].d[ 12] =         0.000000912714;
  BAS[ATNO][  2].a[ 13] =         0.984980700000;     BAS[ATNO][  2].d[ 13] =        -0.000000660962;
  BAS[ATNO][  2].a[ 14] =         0.418397300000;     BAS[ATNO][  2].d[ 14] =         0.000000423956;
  BAS[ATNO][  2].a[ 15] =    455476.770000000019;     BAS[ATNO][  2].d[ 15] =        -0.000010876797;
  BAS[ATNO][  2].a[ 16] =     64817.743000000002;     BAS[ATNO][  2].d[ 16] =        -0.000034447348;
  BAS[ATNO][  2].a[ 17] =     19256.987000000001;     BAS[ATNO][  2].d[ 17] =        -0.000074105530;
  BAS[ATNO][  2].a[ 18] =      6877.007300000000;     BAS[ATNO][  2].d[ 18] =        -0.000204287226;
  BAS[ATNO][  2].a[ 19] =      2643.487700000000;     BAS[ATNO][  2].d[ 19] =        -0.000550344756;
  BAS[ATNO][  2].a[ 20] =      1054.237500000000;     BAS[ATNO][  2].d[ 20] =        -0.001551588762;
  BAS[ATNO][  2].a[ 21] =       429.371220000000;     BAS[ATNO][  2].d[ 21] =        -0.004223249909;
  BAS[ATNO][  2].a[ 22] =       177.188590000000;     BAS[ATNO][  2].d[ 22] =        -0.010406283954;
  BAS[ATNO][  2].a[ 23] =        73.763945000000;     BAS[ATNO][  2].d[ 23] =        -0.020764536744;
  BAS[ATNO][  2].a[ 24] =        30.897007000000;     BAS[ATNO][  2].d[ 24] =        -0.022078973789;
  BAS[ATNO][  2].a[ 25] =        12.999482000000;     BAS[ATNO][  2].d[ 25] =         0.016269312257;
  BAS[ATNO][  2].a[ 26] =         5.487679300000;     BAS[ATNO][  2].d[ 26] =         0.075419679187;
  BAS[ATNO][  2].a[ 27] =         2.322571600000;     BAS[ATNO][  2].d[ 27] =         0.045396118706;
  BAS[ATNO][  2].a[ 28] =         0.984980700000;     BAS[ATNO][  2].d[ 28] =         0.000591197211;
  BAS[ATNO][  2].a[ 29] =         0.418397300000;     BAS[ATNO][  2].d[ 29] =         0.001394073068;
  BAS[ATNO][  2].a[ 30] =         0.177959400000;     BAS[ATNO][  2].d[ 30] =        -0.000529510931;
  BAS[ATNO][  2].a[ 31] =         0.071183800000;     BAS[ATNO][  2].d[ 31] =         0.000153445659;
  BAS[ATNO][  2].a[ 32] =    455476.770000000019;     BAS[ATNO][  2].d[ 32] =         0.000024666918;
  BAS[ATNO][  2].a[ 33] =     64817.743000000002;     BAS[ATNO][  2].d[ 33] =         0.000078053603;
  BAS[ATNO][  2].a[ 34] =     19256.987000000001;     BAS[ATNO][  2].d[ 34] =         0.000168530254;
  BAS[ATNO][  2].a[ 35] =      6877.007300000000;     BAS[ATNO][  2].d[ 35] =         0.000461845592;
  BAS[ATNO][  2].a[ 36] =      2643.487700000000;     BAS[ATNO][  2].d[ 36] =         0.001256127179;
  BAS[ATNO][  2].a[ 37] =      1054.237500000000;     BAS[ATNO][  2].d[ 37] =         0.003512173231;
  BAS[ATNO][  2].a[ 38] =       429.371220000000;     BAS[ATNO][  2].d[ 38] =         0.009708023530;
  BAS[ATNO][  2].a[ 39] =       177.188590000000;     BAS[ATNO][  2].d[ 39] =         0.023886433216;
  BAS[ATNO][  2].a[ 40] =        73.763945000000;     BAS[ATNO][  2].d[ 40] =         0.049619037212;
  BAS[ATNO][  2].a[ 41] =        30.897007000000;     BAS[ATNO][  2].d[ 41] =         0.053883547177;
  BAS[ATNO][  2].a[ 42] =        12.999482000000;     BAS[ATNO][  2].d[ 42] =        -0.041596802567;
  BAS[ATNO][  2].a[ 43] =         5.487679300000;     BAS[ATNO][  2].d[ 43] =        -0.281639216832;
  BAS[ATNO][  2].a[ 44] =         2.322571600000;     BAS[ATNO][  2].d[ 44] =        -0.298207271533;
  BAS[ATNO][  2].a[ 45] =         0.984980700000;     BAS[ATNO][  2].d[ 45] =         0.292628503737;
  BAS[ATNO][  2].a[ 46] =         0.418397300000;     BAS[ATNO][  2].d[ 46] =         0.581139628720;
  BAS[ATNO][  2].a[ 47] =         0.177959400000;     BAS[ATNO][  2].d[ 47] =         0.218378239140;
  BAS[ATNO][  2].a[ 48] =         0.071183800000;     BAS[ATNO][  2].d[ 48] =         0.003874190757;
  BAS[ATNO][  2].a[ 49] =    455476.770000000019;     BAS[ATNO][  2].d[ 49] =         0.000017336752;
  BAS[ATNO][  2].a[ 50] =     64817.743000000002;     BAS[ATNO][  2].d[ 50] =         0.000054843855;
  BAS[ATNO][  2].a[ 51] =     19256.987000000001;     BAS[ATNO][  2].d[ 51] =         0.000118503353;
  BAS[ATNO][  2].a[ 52] =      6877.007300000000;     BAS[ATNO][  2].d[ 52] =         0.000324589296;
  BAS[ATNO][  2].a[ 53] =      2643.487700000000;     BAS[ATNO][  2].d[ 53] =         0.000883519277;
  BAS[ATNO][  2].a[ 54] =      1054.237500000000;     BAS[ATNO][  2].d[ 54] =         0.002472909442;
  BAS[ATNO][  2].a[ 55] =       429.371220000000;     BAS[ATNO][  2].d[ 55] =         0.006847392461;
  BAS[ATNO][  2].a[ 56] =       177.188590000000;     BAS[ATNO][  2].d[ 56] =         0.016941622413;
  BAS[ATNO][  2].a[ 57] =        73.763945000000;     BAS[ATNO][  2].d[ 57] =         0.035630722404;
  BAS[ATNO][  2].a[ 58] =        30.897007000000;     BAS[ATNO][  2].d[ 58] =         0.039607110127;
  BAS[ATNO][  2].a[ 59] =        12.999482000000;     BAS[ATNO][  2].d[ 59] =        -0.043332348538;
  BAS[ATNO][  2].a[ 60] =         5.487679300000;     BAS[ATNO][  2].d[ 60] =        -0.208742086840;
  BAS[ATNO][  2].a[ 61] =         2.322571600000;     BAS[ATNO][  2].d[ 61] =        -0.334410860462;
  BAS[ATNO][  2].a[ 62] =         0.984980700000;     BAS[ATNO][  2].d[ 62] =         0.951402136823;
  BAS[ATNO][  2].a[ 63] =         0.418397300000;     BAS[ATNO][  2].d[ 63] =         0.001338642027;
  BAS[ATNO][  2].a[ 64] =         0.177959400000;     BAS[ATNO][  2].d[ 64] =        -0.594242735753;
  BAS[ATNO][  2].a[ 65] =         0.071183800000;     BAS[ATNO][  2].d[ 65] =        -0.023022805588;

  // Basis function   4 L = s
  InitBFNGauss(BAS[ATNO][  3]);
  BAS[ATNO][  3].l  = 0;
  BAS[ATNO][  3].ng = 65;
  BAS[ATNO][  3].a[  0] =    455476.770000000019;     BAS[ATNO][  3].d[  0] =        -0.000000054839;
  BAS[ATNO][  3].a[  1] =     64817.743000000002;     BAS[ATNO][  3].d[  1] =        -0.000000173439;
  BAS[ATNO][  3].a[  2] =     19256.987000000001;     BAS[ATNO][  3].d[  2] =        -0.000000372077;
  BAS[ATNO][  3].a[  3] =      6877.007300000000;     BAS[ATNO][  3].d[  3] =        -0.000001022328;
  BAS[ATNO][  3].a[  4] =      2643.487700000000;     BAS[ATNO][  3].d[  4] =        -0.000002727394;
  BAS[ATNO][  3].a[  5] =      1054.237500000000;     BAS[ATNO][  3].d[  5] =        -0.000007551693;
  BAS[ATNO][  3].a[  6] =       429.371220000000;     BAS[ATNO][  3].d[  6] =        -0.000019623825;
  BAS[ATNO][  3].a[  7] =       177.188590000000;     BAS[ATNO][  3].d[  7] =        -0.000043655240;
  BAS[ATNO][  3].a[  8] =        73.763945000000;     BAS[ATNO][  3].d[  8] =        -0.000068317672;
  BAS[ATNO][  3].a[  9] =        30.897007000000;     BAS[ATNO][  3].d[  9] =        -0.000047825045;
  BAS[ATNO][  3].a[ 10] =        12.999482000000;     BAS[ATNO][  3].d[ 10] =        -0.000006572467;
  BAS[ATNO][  3].a[ 11] =         5.487679300000;     BAS[ATNO][  3].d[ 11] =        -0.000000534675;
  BAS[ATNO][  3].a[ 12] =         2.322571600000;     BAS[ATNO][  3].d[ 12] =         0.000000237397;
  BAS[ATNO][  3].a[ 13] =         0.984980700000;     BAS[ATNO][  3].d[ 13] =        -0.000000171916;
  BAS[ATNO][  3].a[ 14] =    455476.770000000019;     BAS[ATNO][  3].d[ 14] =        -0.000001870703;
  BAS[ATNO][  3].a[ 15] =     64817.743000000002;     BAS[ATNO][  3].d[ 15] =        -0.000005924609;
  BAS[ATNO][  3].a[ 16] =     19256.987000000001;     BAS[ATNO][  3].d[ 16] =        -0.000012745431;
  BAS[ATNO][  3].a[ 17] =      6877.007300000000;     BAS[ATNO][  3].d[ 17] =        -0.000035135419;
  BAS[ATNO][  3].a[ 18] =      2643.487700000000;     BAS[ATNO][  3].d[ 18] =        -0.000094653953;
  BAS[ATNO][  3].a[ 19] =      1054.237500000000;     BAS[ATNO][  3].d[ 19] =        -0.000266858199;
  BAS[ATNO][  3].a[ 20] =       429.371220000000;     BAS[ATNO][  3].d[ 20] =        -0.000726357970;
  BAS[ATNO][  3].a[ 21] =       177.188590000000;     BAS[ATNO][  3].d[ 21] =        -0.001789779780;
  BAS[ATNO][  3].a[ 22] =        73.763945000000;     BAS[ATNO][  3].d[ 22] =        -0.003571298665;
  BAS[ATNO][  3].a[ 23] =        30.897007000000;     BAS[ATNO][  3].d[ 23] =        -0.003797369072;
  BAS[ATNO][  3].a[ 24] =        12.999482000000;     BAS[ATNO][  3].d[ 24] =         0.002798163709;
  BAS[ATNO][  3].a[ 25] =         5.487679300000;     BAS[ATNO][  3].d[ 25] =         0.012971452383;
  BAS[ATNO][  3].a[ 26] =         2.322571600000;     BAS[ATNO][  3].d[ 26] =         0.007807691553;
  BAS[ATNO][  3].a[ 27] =         0.984980700000;     BAS[ATNO][  3].d[ 27] =         0.000101680179;
  BAS[ATNO][  3].a[ 28] =         0.418397300000;     BAS[ATNO][  3].d[ 28] =         0.000239767029;
  BAS[ATNO][  3].a[ 29] =         0.177959400000;     BAS[ATNO][  3].d[ 29] =        -0.000091070738;
  BAS[ATNO][  3].a[ 30] =         0.071183800000;     BAS[ATNO][  3].d[ 30] =         0.000026391163;
  BAS[ATNO][  3].a[ 31] =    455476.770000000019;     BAS[ATNO][  3].d[ 31] =        -0.000014843296;
  BAS[ATNO][  3].a[ 32] =     64817.743000000002;     BAS[ATNO][  3].d[ 32] =        -0.000046968685;
  BAS[ATNO][  3].a[ 33] =     19256.987000000001;     BAS[ATNO][  3].d[ 33] =        -0.000101412929;
  BAS[ATNO][  3].a[ 34] =      6877.007300000000;     BAS[ATNO][  3].d[ 34] =        -0.000277915170;
  BAS[ATNO][  3].a[ 35] =      2643.487700000000;     BAS[ATNO][  3].d[ 35] =        -0.000755873400;
  BAS[ATNO][  3].a[ 36] =      1054.237500000000;     BAS[ATNO][  3].d[ 36] =        -0.002113447083;
  BAS[ATNO][  3].a[ 37] =       429.371220000000;     BAS[ATNO][  3].d[ 37] =        -0.005841794427;
  BAS[ATNO][  3].a[ 38] =       177.188590000000;     BAS[ATNO][  3].d[ 38] =        -0.014373639703;
  BAS[ATNO][  3].a[ 39] =        73.763945000000;     BAS[ATNO][  3].d[ 39] =        -0.029858211013;
  BAS[ATNO][  3].a[ 40] =        30.897007000000;     BAS[ATNO][  3].d[ 40] =        -0.032424376049;
  BAS[ATNO][  3].a[ 41] =        12.999482000000;     BAS[ATNO][  3].d[ 41] =         0.025030838531;
  BAS[ATNO][  3].a[ 42] =         5.487679300000;     BAS[ATNO][  3].d[ 42] =         0.169476145412;
  BAS[ATNO][  3].a[ 43] =         2.322571600000;     BAS[ATNO][  3].d[ 43] =         0.179445957426;
  BAS[ATNO][  3].a[ 44] =         0.984980700000;     BAS[ATNO][  3].d[ 44] =        -0.176088938923;
  BAS[ATNO][  3].a[ 45] =         0.418397300000;     BAS[ATNO][  3].d[ 45] =        -0.349700248884;
  BAS[ATNO][  3].a[ 46] =         0.177959400000;     BAS[ATNO][  3].d[ 46] =        -0.131408908985;
  BAS[ATNO][  3].a[ 47] =         0.071183800000;     BAS[ATNO][  3].d[ 47] =        -0.002331290803;
  BAS[ATNO][  3].a[ 48] =    455476.770000000019;     BAS[ATNO][  3].d[ 48] =         0.000029288273;
  BAS[ATNO][  3].a[ 49] =     64817.743000000002;     BAS[ATNO][  3].d[ 49] =         0.000092651831;
  BAS[ATNO][  3].a[ 50] =     19256.987000000001;     BAS[ATNO][  3].d[ 50] =         0.000200196586;
  BAS[ATNO][  3].a[ 51] =      6877.007300000000;     BAS[ATNO][  3].d[ 51] =         0.000548353000;
  BAS[ATNO][  3].a[ 52] =      2643.487700000000;     BAS[ATNO][  3].d[ 52] =         0.001492595264;
  BAS[ATNO][  3].a[ 53] =      1054.237500000000;     BAS[ATNO][  3].d[ 53] =         0.004177671068;
  BAS[ATNO][  3].a[ 54] =       429.371220000000;     BAS[ATNO][  3].d[ 54] =         0.011567812754;
  BAS[ATNO][  3].a[ 55] =       177.188590000000;     BAS[ATNO][  3].d[ 55] =         0.028620751176;
  BAS[ATNO][  3].a[ 56] =        73.763945000000;     BAS[ATNO][  3].d[ 56] =         0.060193647059;
  BAS[ATNO][  3].a[ 57] =        30.897007000000;     BAS[ATNO][  3].d[ 57] =         0.066911256554;
  BAS[ATNO][  3].a[ 58] =        12.999482000000;     BAS[ATNO][  3].d[ 58] =        -0.073204580714;
  BAS[ATNO][  3].a[ 59] =         5.487679300000;     BAS[ATNO][  3].d[ 59] =        -0.352643635993;
  BAS[ATNO][  3].a[ 60] =         2.322571600000;     BAS[ATNO][  3].d[ 60] =        -0.564945304198;
  BAS[ATNO][  3].a[ 61] =         0.984980700000;     BAS[ATNO][  3].d[ 61] =         1.607274862006;
  BAS[ATNO][  3].a[ 62] =         0.418397300000;     BAS[ATNO][  3].d[ 62] =         0.002261468201;
  BAS[ATNO][  3].a[ 63] =         0.177959400000;     BAS[ATNO][  3].d[ 63] =        -1.003898744957;
  BAS[ATNO][  3].a[ 64] =         0.071183800000;     BAS[ATNO][  3].d[ 64] =        -0.038894149216;

  // Basis function   5 L = p
  InitBFNGauss(BAS[ATNO][  4]);
  BAS[ATNO][  4].l  = 1;
  BAS[ATNO][  4].ng = 36;
  BAS[ATNO][  4].a[  0] =      1462.496200000000;     BAS[ATNO][  4].d[  0] =         0.000953748244;
  BAS[ATNO][  4].a[  1] =       354.067310000000;     BAS[ATNO][  4].d[  1] =         0.006154605971;
  BAS[ATNO][  4].a[  2] =       126.697790000000;     BAS[ATNO][  4].d[  2] =         0.025542016395;
  BAS[ATNO][  4].a[  3] =        49.989095000000;     BAS[ATNO][  4].d[  3] =         0.092202968671;
  BAS[ATNO][  4].a[  4] =        20.509295000000;     BAS[ATNO][  4].d[  4] =         0.241876351830;
  BAS[ATNO][  4].a[  5] =         8.580464100000;     BAS[ATNO][  4].d[  5] =         0.412804857354;
  BAS[ATNO][  4].a[  6] =         3.630104900000;     BAS[ATNO][  4].d[  6] =         0.341239616755;
  BAS[ATNO][  4].a[  7] =         1.546528000000;     BAS[ATNO][  4].d[  7] =         0.072308106944;
  BAS[ATNO][  4].a[  8] =         0.661936900000;     BAS[ATNO][  4].d[  8] =         0.003484469861;
  BAS[ATNO][  4].a[  9] =         0.284242800000;     BAS[ATNO][  4].d[  9] =         0.000287922314;
  BAS[ATNO][  4].a[ 10] =         0.122346300000;     BAS[ATNO][  4].d[ 10] =         0.000472059716;
  BAS[ATNO][  4].a[ 11] =         0.048938500000;     BAS[ATNO][  4].d[ 11] =        -0.000084745449;
  BAS[ATNO][  4].a[ 12] =      1462.496200000000;     BAS[ATNO][  4].d[ 12] =         0.000026280318;
  BAS[ATNO][  4].a[ 13] =       354.067310000000;     BAS[ATNO][  4].d[ 13] =         0.000170288109;
  BAS[ATNO][  4].a[ 14] =       126.697790000000;     BAS[ATNO][  4].d[ 14] =         0.000712666505;
  BAS[ATNO][  4].a[ 15] =        49.989095000000;     BAS[ATNO][  4].d[ 15] =         0.002627875438;
  BAS[ATNO][  4].a[ 16] =        20.509295000000;     BAS[ATNO][  4].d[ 16] =         0.007121417948;
  BAS[ATNO][  4].a[ 17] =         8.580464100000;     BAS[ATNO][  4].d[ 17] =         0.012771361200;
  BAS[ATNO][  4].a[ 18] =         3.630104900000;     BAS[ATNO][  4].d[ 18] =         0.010556785289;
  BAS[ATNO][  4].a[ 19] =         1.546528000000;     BAS[ATNO][  4].d[ 19] =        -0.015501532695;
  BAS[ATNO][  4].a[ 20] =         0.661936900000;     BAS[ATNO][  4].d[ 20] =        -0.042789254107;
  BAS[ATNO][  4].a[ 21] =         0.284242800000;     BAS[ATNO][  4].d[ 21] =        -0.039250965213;
  BAS[ATNO][  4].a[ 22] =         0.122346300000;     BAS[ATNO][  4].d[ 22] =        -0.014040024916;
  BAS[ATNO][  4].a[ 23] =         0.048938500000;     BAS[ATNO][  4].d[ 23] =        -0.000647430063;
  BAS[ATNO][  4].a[ 24] =      1462.496200000000;     BAS[ATNO][  4].d[ 24] =         0.000029155623;
  BAS[ATNO][  4].a[ 25] =       354.067310000000;     BAS[ATNO][  4].d[ 25] =         0.000177339752;
  BAS[ATNO][  4].a[ 26] =       126.697790000000;     BAS[ATNO][  4].d[ 26] =         0.000807162080;
  BAS[ATNO][  4].a[ 27] =        49.989095000000;     BAS[ATNO][  4].d[ 27] =         0.002746619696;
  BAS[ATNO][  4].a[ 28] =        20.509295000000;     BAS[ATNO][  4].d[ 28] =         0.008335788307;
  BAS[ATNO][  4].a[ 29] =         8.580464100000;     BAS[ATNO][  4].d[ 29] =         0.012464305413;
  BAS[ATNO][  4].a[ 30] =         3.630104900000;     BAS[ATNO][  4].d[ 30] =         0.015210096439;
  BAS[ATNO][  4].a[ 31] =         1.546528000000;     BAS[ATNO][  4].d[ 31] =        -0.039010411604;
  BAS[ATNO][  4].a[ 32] =         0.661936900000;     BAS[ATNO][  4].d[ 32] =        -0.063752757735;
  BAS[ATNO][  4].a[ 33] =         0.284242800000;     BAS[ATNO][  4].d[ 33] =         0.044231895894;
  BAS[ATNO][  4].a[ 34] =         0.122346300000;     BAS[ATNO][  4].d[ 34] =         0.052399722420;
  BAS[ATNO][  4].a[ 35] =         0.048938500000;     BAS[ATNO][  4].d[ 35] =         0.005393270300;

  // Basis function   6 L = p
  InitBFNGauss(BAS[ATNO][  5]);
  BAS[ATNO][  5].l  = 1;
  BAS[ATNO][  5].ng = 36;
  BAS[ATNO][  5].a[  0] =      1462.496200000000;     BAS[ATNO][  5].d[  0] =         0.000122710516;
  BAS[ATNO][  5].a[  1] =       354.067310000000;     BAS[ATNO][  5].d[  1] =         0.000791859778;
  BAS[ATNO][  5].a[  2] =       126.697790000000;     BAS[ATNO][  5].d[  2] =         0.003286269749;
  BAS[ATNO][  5].a[  3] =        49.989095000000;     BAS[ATNO][  5].d[  3] =         0.011862956396;
  BAS[ATNO][  5].a[  4] =        20.509295000000;     BAS[ATNO][  5].d[  4] =         0.031120132640;
  BAS[ATNO][  5].a[  5] =         8.580464100000;     BAS[ATNO][  5].d[  5] =         0.053112021156;
  BAS[ATNO][  5].a[  6] =         3.630104900000;     BAS[ATNO][  5].d[  6] =         0.043904342261;
  BAS[ATNO][  5].a[  7] =         1.546528000000;     BAS[ATNO][  5].d[  7] =         0.009303257065;
  BAS[ATNO][  5].a[  8] =         0.661936900000;     BAS[ATNO][  5].d[  8] =         0.000448316520;
  BAS[ATNO][  5].a[  9] =         0.284242800000;     BAS[ATNO][  5].d[  9] =         0.000037044467;
  BAS[ATNO][  5].a[ 10] =         0.122346300000;     BAS[ATNO][  5].d[ 10] =         0.000060735830;
  BAS[ATNO][  5].a[ 11] =         0.048938500000;     BAS[ATNO][  5].d[ 11] =        -0.000010903462;
  BAS[ATNO][  5].a[ 12] =      1462.496200000000;     BAS[ATNO][  5].d[ 12] =        -0.000227516933;
  BAS[ATNO][  5].a[ 13] =       354.067310000000;     BAS[ATNO][  5].d[ 13] =        -0.001474237416;
  BAS[ATNO][  5].a[ 14] =       126.697790000000;     BAS[ATNO][  5].d[ 14] =        -0.006169776823;
  BAS[ATNO][  5].a[ 15] =        49.989095000000;     BAS[ATNO][  5].d[ 15] =        -0.022750339549;
  BAS[ATNO][  5].a[ 16] =        20.509295000000;     BAS[ATNO][  5].d[ 16] =        -0.061652342439;
  BAS[ATNO][  5].a[ 17] =         8.580464100000;     BAS[ATNO][  5].d[ 17] =        -0.110565668224;
  BAS[ATNO][  5].a[ 18] =         3.630104900000;     BAS[ATNO][  5].d[ 18] =        -0.091393391945;
  BAS[ATNO][  5].a[ 19] =         1.546528000000;     BAS[ATNO][  5].d[ 19] =         0.134201616734;
  BAS[ATNO][  5].a[ 20] =         0.661936900000;     BAS[ATNO][  5].d[ 20] =         0.370439955381;
  BAS[ATNO][  5].a[ 21] =         0.284242800000;     BAS[ATNO][  5].d[ 21] =         0.339807881810;
  BAS[ATNO][  5].a[ 22] =         0.122346300000;     BAS[ATNO][  5].d[ 22] =         0.121548886797;
  BAS[ATNO][  5].a[ 23] =         0.048938500000;     BAS[ATNO][  5].d[ 23] =         0.005605004545;
  BAS[ATNO][  5].a[ 24] =      1462.496200000000;     BAS[ATNO][  5].d[ 24] =        -0.000184358869;
  BAS[ATNO][  5].a[ 25] =       354.067310000000;     BAS[ATNO][  5].d[ 25] =        -0.001121367084;
  BAS[ATNO][  5].a[ 26] =       126.697790000000;     BAS[ATNO][  5].d[ 26] =        -0.005103903545;
  BAS[ATNO][  5].a[ 27] =        49.989095000000;     BAS[ATNO][  5].d[ 27] =        -0.017367617186;
  BAS[ATNO][  5].a[ 28] =        20.509295000000;     BAS[ATNO][  5].d[ 28] =        -0.052709437875;
  BAS[ATNO][  5].a[ 29] =         8.580464100000;     BAS[ATNO][  5].d[ 29] =        -0.078815165122;
  BAS[ATNO][  5].a[ 30] =         3.630104900000;     BAS[ATNO][  5].d[ 30] =        -0.096177542404;
  BAS[ATNO][  5].a[ 31] =         1.546528000000;     BAS[ATNO][  5].d[ 31] =         0.246673354851;
  BAS[ATNO][  5].a[ 32] =         0.661936900000;     BAS[ATNO][  5].d[ 32] =         0.403125883193;
  BAS[ATNO][  5].a[ 33] =         0.284242800000;     BAS[ATNO][  5].d[ 33] =        -0.279690208408;
  BAS[ATNO][  5].a[ 34] =         0.122346300000;     BAS[ATNO][  5].d[ 34] =        -0.331337578645;
  BAS[ATNO][  5].a[ 35] =         0.048938500000;     BAS[ATNO][  5].d[ 35] =        -0.034103102834;

  // Basis function   7 L = p
  InitBFNGauss(BAS[ATNO][  6]);
  BAS[ATNO][  6].l  = 1;
  BAS[ATNO][  6].ng = 35;
  BAS[ATNO][  6].a[  0] =      1462.496200000000;     BAS[ATNO][  6].d[  0] =         0.000018612199;
  BAS[ATNO][  6].a[  1] =       354.067310000000;     BAS[ATNO][  6].d[  1] =         0.000120105856;
  BAS[ATNO][  6].a[  2] =       126.697790000000;     BAS[ATNO][  6].d[  2] =         0.000498447140;
  BAS[ATNO][  6].a[  3] =        49.989095000000;     BAS[ATNO][  6].d[  3] =         0.001799321767;
  BAS[ATNO][  6].a[  4] =        20.509295000000;     BAS[ATNO][  6].d[  4] =         0.004720166726;
  BAS[ATNO][  6].a[  5] =         8.580464100000;     BAS[ATNO][  6].d[  5] =         0.008055800979;
  BAS[ATNO][  6].a[  6] =         3.630104900000;     BAS[ATNO][  6].d[  6] =         0.006659220185;
  BAS[ATNO][  6].a[  7] =         1.546528000000;     BAS[ATNO][  6].d[  7] =         0.001411077676;
  BAS[ATNO][  6].a[  8] =         0.661936900000;     BAS[ATNO][  6].d[  8] =         0.000067998705;
  BAS[ATNO][  6].a[  9] =         0.284242800000;     BAS[ATNO][  6].d[  9] =         0.000005618744;
  BAS[ATNO][  6].a[ 10] =         0.122346300000;     BAS[ATNO][  6].d[ 10] =         0.000009212147;
  BAS[ATNO][  6].a[ 11] =      1462.496200000000;     BAS[ATNO][  6].d[ 11] =         0.000153335499;
  BAS[ATNO][  6].a[ 12] =       354.067310000000;     BAS[ATNO][  6].d[ 12] =         0.000993565300;
  BAS[ATNO][  6].a[ 13] =       126.697790000000;     BAS[ATNO][  6].d[ 13] =         0.004158133620;
  BAS[ATNO][  6].a[ 14] =        49.989095000000;     BAS[ATNO][  6].d[ 14] =         0.015332637542;
  BAS[ATNO][  6].a[ 15] =        20.509295000000;     BAS[ATNO][  6].d[ 15] =         0.041550721395;
  BAS[ATNO][  6].a[ 16] =         8.580464100000;     BAS[ATNO][  6].d[ 16] =         0.074515956644;
  BAS[ATNO][  6].a[ 17] =         3.630104900000;     BAS[ATNO][  6].d[ 17] =         0.061594762109;
  BAS[ATNO][  6].a[ 18] =         1.546528000000;     BAS[ATNO][  6].d[ 18] =        -0.090445452144;
  BAS[ATNO][  6].a[ 19] =         0.661936900000;     BAS[ATNO][  6].d[ 19] =        -0.249658760245;
  BAS[ATNO][  6].a[ 20] =         0.284242800000;     BAS[ATNO][  6].d[ 20] =        -0.229014212052;
  BAS[ATNO][  6].a[ 21] =         0.122346300000;     BAS[ATNO][  6].d[ 21] =        -0.081918119107;
  BAS[ATNO][  6].a[ 22] =         0.048938500000;     BAS[ATNO][  6].d[ 22] =        -0.003777504196;
  BAS[ATNO][  6].a[ 23] =      1462.496200000000;     BAS[ATNO][  6].d[ 23] =        -0.000278545952;
  BAS[ATNO][  6].a[ 24] =       354.067310000000;     BAS[ATNO][  6].d[ 24] =        -0.001694262190;
  BAS[ATNO][  6].a[ 25] =       126.697790000000;     BAS[ATNO][  6].d[ 25] =        -0.007711436264;
  BAS[ATNO][  6].a[ 26] =        49.989095000000;     BAS[ATNO][  6].d[ 26] =        -0.026240557214;
  BAS[ATNO][  6].a[ 27] =        20.509295000000;     BAS[ATNO][  6].d[ 27] =        -0.079638156773;
  BAS[ATNO][  6].a[ 28] =         8.580464100000;     BAS[ATNO][  6].d[ 28] =        -0.119081036131;
  BAS[ATNO][  6].a[ 29] =         3.630104900000;     BAS[ATNO][  6].d[ 29] =        -0.145313676426;
  BAS[ATNO][  6].a[ 30] =         1.546528000000;     BAS[ATNO][  6].d[ 30] =         0.372696277883;
  BAS[ATNO][  6].a[ 31] =         0.661936900000;     BAS[ATNO][  6].d[ 31] =         0.609078821160;
  BAS[ATNO][  6].a[ 32] =         0.284242800000;     BAS[ATNO][  6].d[ 32] =        -0.422581108110;
  BAS[ATNO][  6].a[ 33] =         0.122346300000;     BAS[ATNO][  6].d[ 33] =        -0.500614597626;
  BAS[ATNO][  6].a[ 34] =         0.048938500000;     BAS[ATNO][  6].d[ 34] =        -0.051526033276;

  // Basis function   8 L = d
  InitBFNGauss(BAS[ATNO][  7]);
  BAS[ATNO][  7].l  = 2;
  BAS[ATNO][  7].ng = 5;
  BAS[ATNO][  7].a[  0] =         4.328841700000;     BAS[ATNO][  7].d[  0] =         0.027886140074;
  BAS[ATNO][  7].a[  1] =         1.774230200000;     BAS[ATNO][  7].d[  1] =         0.193753660516;
  BAS[ATNO][  7].a[  2] =         0.727190600000;     BAS[ATNO][  7].d[  2] =         0.602274991605;
  BAS[ATNO][  7].a[  3] =         0.298048200000;     BAS[ATNO][  7].d[  3] =         0.305103490813;
  BAS[ATNO][  7].a[  4] =         0.119219300000;     BAS[ATNO][  7].d[  4] =         0.028800580077;

-------
TIMINGS
-------

Total SCF time: 0 days 0 hours 0 min 3 sec 

Total time                  ....       3.570 sec
Sum of individual times     ....       3.309 sec  ( 92.7%)

Fock matrix formation       ....       2.856 sec  ( 80.0%)
  XC integration            ....       0.017 sec  (  0.6% of F)
    Basis function eval.    ....       0.006 sec  ( 38.2% of XC)
    Density eval.           ....       0.001 sec  (  3.7% of XC)
    XC-Functional eval.     ....       0.001 sec  (  7.5% of XC)
    XC-Potential eval.      ....       0.000 sec  (  1.6% of XC)
Diagonalization             ....       0.000 sec  (  0.0%)
Density matrix formation    ....       0.000 sec  (  0.0%)
Population analysis         ....       0.000 sec  (  0.0%)
Initial guess               ....       0.070 sec  (  2.0%)
Orbital Transformation      ....       0.000 sec  (  0.0%)
Orbital Orthonormalization  ....       0.000 sec  (  0.0%)
DIIS solution               ....       0.000 sec  (  0.0%)
SOSCF solution              ....       0.000 sec  (  0.0%)
Grid generation             ....       0.381 sec  ( 10.7%)

-------------------------   --------------------
FINAL SINGLE POINT ENERGY      -311.809773573069
-------------------------   --------------------


                            ***************************************
                            *     ORCA property calculations      *
                            ***************************************

                                    ---------------------
                                    Active property flags
                                    ---------------------
   (+) Dipole Moment


------------------------------------------------------------------------------
                       ORCA ELECTRIC PROPERTIES CALCULATION
------------------------------------------------------------------------------

Dipole Moment Calculation                       ... on
Quadrupole Moment Calculation                   ... off
Polarizability Calculation                      ... off
GBWName                                         ... Ar_ano-rcc-dzp_274.071978_.gbw
Electron density file                           ... Ar_ano-rcc-dzp_274.071978_.scfp
The origin for moment calculation is the CENTER OF MASS  = ( 0.000000,  0.000000  0.000000)

-------------
DIPOLE MOMENT
-------------
                                X             Y             Z
Electronic contribution:     -0.00000       0.00000      -0.00000
Nuclear contribution   :      0.00000       0.00000       0.00000
                        -----------------------------------------
Total Dipole Moment    :     -0.00000       0.00000      -0.00000
                        -----------------------------------------
Magnitude (a.u.)       :      0.00000
Magnitude (Debye)      :      0.00000



--------------------
Rotational spectrum 
--------------------
 
Rotational constants in cm-1:     0.000000     0.000000     0.000000 
Rotational constants in MHz :     0.000000     0.000000     0.000000 

 Dipole components along the rotational axes: 
x,y,z [a.u.] :    -0.000000     0.000000    -0.000000 
x,y,z [Debye]:    -0.000000     0.000000    -0.000000 

 

Timings for individual modules:

Sum of individual times         ...        4.604 sec (=   0.077 min)
GTO integral calculation        ...        0.371 sec (=   0.006 min)   8.1 %
Relativistic integrals          ...        0.403 sec (=   0.007 min)   8.8 %
SCF iterations                  ...        3.830 sec (=   0.064 min)  83.2 %
                             ****ORCA TERMINATED NORMALLY****
TOTAL RUN TIME: 0 days 0 hours 0 minutes 4 seconds 960 msec
