
                                 *****************
                                 * O   R   C   A *
                                 *****************

           --- An Ab Initio, DFT and Semiempirical electronic structure package ---

                  #######################################################
                  #                        -***-                        #
                  #          Department of theory and spectroscopy      #
                  #               Directorship: Frank Neese             #
                  #        Max Planck Institute fuer Kohlenforschung    #
                  #                Kaiser Wilhelm Platz 1               #
                  #                 D-45470 Muelheim/Ruhr               #
                  #                      Germany                        #
                  #                                                     #
                  #                  All rights reserved                #
                  #                        -***-                        #
                  #######################################################


                         Program Version 4.2.1 -  RELEASE  -


 With contributions from (in alphabetic order):
   Daniel Aravena         : Magnetic Suceptibility
   Michael Atanasov       : Ab Initio Ligand Field Theory (pilot matlab implementation)
   Alexander A. Auer      : GIAO ZORA, VPT2
   Ute Becker             : Parallelization
   Giovanni Bistoni       : ED, misc. LED, open-shell LED, HFLD
   Martin Brehm           : Molecular dynamics
   Dmytro Bykov           : SCF Hessian
   Vijay G. Chilkuri      : MRCI spin determinant printing, contributions to CSF-ICE
   Dipayan Datta          : RHF DLPNO-CCSD density
   Achintya Kumar Dutta   : EOM-CC, STEOM-CC
   Dmitry Ganyushin       : Spin-Orbit,Spin-Spin,Magnetic field MRCI
   Miquel Garcia          : C-PCM Hessian, Gaussian charge scheme
   Yang Guo               : DLPNO-NEVPT2, CIM, IAO-localization
   Andreas Hansen         : Spin unrestricted coupled pair/coupled cluster methods
   Benjamin Helmich-Paris : CASSCF linear response (MC-RPA)
   Lee Huntington         : MR-EOM, pCC
   Robert Izsak           : Overlap fitted RIJCOSX, COSX-SCS-MP3, EOM
   Christian Kollmar      : KDIIS, OOCD, Brueckner-CCSD(T), CCSD density
   Simone Kossmann        : Meta GGA functionals, TD-DFT gradient, OOMP2, MP2 Hessian
   Martin Krupicka        : AUTO-CI
   Lucas Lang             : DCDCAS
   Dagmar Lenk            : GEPOL surface, SMD
   Dimitrios Liakos       : Extrapolation schemes; Compound Job, initial MDCI parallelization
   Dimitrios Manganas     : Further ROCIS development; embedding schemes
   Dimitrios Pantazis     : SARC Basis sets
   Taras Petrenko         : DFT Hessian,TD-DFT gradient, ASA, ECA, R-Raman, ABS, FL, XAS/XES, NRVS
   Peter Pinski           : DLPNO-MP2, DLPNO-MP2 Gradient
   Christoph Reimann      : Effective Core Potentials
   Marius Retegan         : Local ZFS, SOC
   Christoph Riplinger    : Optimizer, TS searches, QM/MM, DLPNO-CCSD(T), (RO)-DLPNO pert. Triples
   Tobias Risthaus        : Range-separated hybrids, TD-DFT gradient, RPA, STAB
   Michael Roemelt        : Original ROCIS implementation
   Masaaki Saitow         : Open-shell DLPNO-CCSD energy and density
   Barbara Sandhoefer     : DKH picture change effects
   Avijit Sen             : IP-ROCIS
   Kantharuban Sivalingam : CASSCF convergence, NEVPT2, FIC-MRCI
   Bernardo de Souza      : ESD, SOC TD-DFT
   Georgi Stoychev        : AutoAux, RI-MP2 NMR
   Willem Van den Heuvel  : Paramagnetic NMR
   Boris Wezisla          : Elementary symmetry handling
   Frank Wennmohs         : Technical directorship


 We gratefully acknowledge several colleagues who have allowed us to
 interface, adapt or use parts of their codes:
   Stefan Grimme, W. Hujo, H. Kruse,             : VdW corrections, initial TS optimization,
                  C. Bannwarth                     DFT functionals, gCP, sTDA/sTD-DF
   Ed Valeev, F. Pavosevic, A. Kumar             : LibInt (2-el integral package), F12 methods
   Garnet Chan, S. Sharma, J. Yang, R. Olivares  : DMRG
   Ulf Ekstrom                                   : XCFun DFT Library
   Mihaly Kallay                                 : mrcc  (arbitrary order and MRCC methods)
   Andreas Klamt, Michael Diedenhofen            : otool_cosmo (COSMO solvation model)
   Jiri Pittner, Ondrej Demel                    : Mk-CCSD
   Frank Weinhold                                : gennbo (NPA and NBO analysis)
   Christopher J. Cramer and Donald G. Truhlar   : smd solvation model
   Lars Goerigk                                  : TD-DFT with DH, B97 family of functionals
   V. Asgeirsson, H. Jonsson                     : NEB implementation
   FAccTs GmbH                                   : IRC, NEB, NEB-TS, Multilevel, MM, QM/MM, CI optimization
   S Lehtola, MJT Oliveira, MAL Marques          : LibXC Library


 Your calculation uses the libint2 library for the computation of 2-el integrals
 For citations please refer to: http://libint.valeyev.net

 Your ORCA version has been built with support for libXC version: 4.2.3
 For citations please refer to: https://tddft.org/programs/libxc/

 This ORCA versions uses:
   CBLAS   interface :  Fast vector & matrix operations
   LAPACKE interface :  Fast linear algebra routines
   SCALAPACK package :  Parallel linear algebra routines


----- Orbital basis set information -----
Your calculation utilizes the basis: ANO-RCC-DZP
   H, He:       P.-O. Widmark, P.-A. Malmqvist, and B. O. Roos, Theor. Chim. Acta 77, 291 (1990).
   s block:     B. O. Roos, V. Veryazov and P.-O. Widmark, Theor. Chem. Acc. 111, 345 (2004).
   p block:     B. O. Roos, R. Lindh, P.-A. Malmqvist, V. Veryazov, and P.-O. Widmark, J. Phys. Chem. A 108, 2851 (2004).
   d block:     B. O. Roos, R. Lindh, P.-A. Malmqvist, V. Veryazov, and P.-O. Widmark, J. Phys. Chem. A 109, 6575 (2005).
   actinides:   B. O. Roos, R. Lindh, P.-A. Malmqvist, V. Veryazov, and P.-O. Widmark, Chem. Phys. Letters 409, 295 (2005).
   lanthanides: B. O. Roos, R. Lindh, P.-A. Malmqvist, V. Veryazov, P.-O. Widmark and A. C. Borin, J. Phys. Chem. A 112, 11431 (2008).

================================================================================
                                        WARNINGS
                       Please study these warnings very carefully!
================================================================================


INFO   : the flag for use of LIBINT has been found!

================================================================================
                                       INPUT FILE
================================================================================
NAME = Ar_ano-rcc-dzp_34.25899725_.inp
|  1> ! LDA ano-rcc-dzp nori grid5 finalgrid6 verytightscf
|  2> %Pal NProcs 18 End
|  3> 
|  4> % REL
|  5>   Method ZORA
|  6>   ModelPot 1, 0, 0, 0
|  7>   velit 34.25899725
|  8> END
|  9> 
| 10> *xyz 16 1
| 11> Ar 0.0 0.0 0.0
| 12> **                         ****END OF INPUT****
================================================================================

                       ****************************
                       * Single Point Calculation *
                       ****************************

---------------------------------
CARTESIAN COORDINATES (ANGSTROEM)
---------------------------------
  Ar     0.000000    0.000000    0.000000

----------------------------
CARTESIAN COORDINATES (A.U.)
----------------------------
  NO LB      ZA    FRAG     MASS         X           Y           Z
   0 Ar   18.0000    0    39.948    0.000000    0.000000    0.000000

--------------------------------
INTERNAL COORDINATES (ANGSTROEM)
--------------------------------
 Ar     0   0   0     0.000000000000     0.00000000     0.00000000

---------------------------
INTERNAL COORDINATES (A.U.)
---------------------------
 Ar     0   0   0     0.000000000000     0.00000000     0.00000000

---------------------
BASIS SET INFORMATION
---------------------
There are 1 groups of distinct atoms

 Group   1 Type Ar  : 68s36p5d contracted to 4s3p1d pattern {17171717/121212/5}

Atom   0Ar   basis set group =>   1


           ************************************************************
           *        Program running with 18 parallel MPI-processes    *
           *              working on a common directory               *
           ************************************************************


------------------------------------------------------------------------------
                       ORCA GTO INTEGRAL CALCULATION
                     -- ANO INTEGRAL GENERATION BRANCH --
------------------------------------------------------------------------------


Gathering ANO information                         ... done
Calculation Information:
Number of atoms                                   ... 1
Number of basis functions                         ... 18
Highest angular momentum                          ... 2
Number of primitive shells                        ... 34
Total number of shells                            ... 8
Maximum number of shells                          ... 8

Getting memory                                    ... done
Making prescreening integrals                     ... done
Gathering atom contracted prescreening            ... done
Making one-electron integrals                     ... done

Timings:

Total time                                        ...    0.1 sec
Prescreening matrix                               ...    0.1 sec
One-electron matrix                               ...    0.0 sec
Two-index integrals + Cholesky                    ...    0.0 sec


           ************************************************************
           *        Program running with 18 parallel MPI-processes    *
           *              working on a common directory               *
           ************************************************************
------------------------------------------------------------------------------
                          ORCA RELATIVISTIC HAMILTONIAN
------------------------------------------------------------------------------

Relativistic Method            ... ZORA(MP)
Treatment of potential         ... Van Wuellen
Nucleus model                  ... Point Nucleus
Speed of light used            ...  34.25899725000000


            *************************************************
            *         ZERO ORDER REGULAR APPROXIMATION      *
            *                     ZORA(MP)                  *
            *            Programmed by FN according to      *
            *                   C. van Wuellen              *
            *       J. Chem. Phys. (1998) vol 109, 392-399  *
            *************************************************

Terms included in model potential: +V(e,N)
Basis function cutoff value   ... 1.000000e-12
Loading the fitted atomic densities  (DKH4)  ... done
Calculating the cutoffs                      ... done
Number of fit functions                      ... 15
Setting up the integration grid ... done


           ************************************************************
           *        Program running with 18 parallel MPI-processes    *
           *              working on a common directory               *
           ************************************************************
-------------------------------------------------------------------------------
                                 ORCA SCF
-------------------------------------------------------------------------------

------------
SCF SETTINGS
------------
Hamiltonian:
 Density Functional     Method          .... DFT(GTOs)
 Exchange Functional    Exchange        .... Slater
   X-Alpha parameter    XAlpha          ....  0.666667
 Correlation Functional Correlation     .... VWN-5
 Gradients option       PostSCFGGA      .... off
   Density functional embedding theory  .... OFF

Relativistic Settings:
 Scalar relativistic method             .... ZORA
 Speed of light used       Velit        ....       34.2589973
Orbital energies will be scaled


General Settings:
 Integral files         IntName         .... Ar_ano-rcc-dzp_34.25899725_
 Hartree-Fock type      HFTyp           .... RHF
 Total Charge           Charge          ....   16
 Multiplicity           Mult            ....    1
 Number of Electrons    NEL             ....    2
 Basis Dimension        Dim             ....   18
 Nuclear Repulsion      ENuc            ....      0.0000000000 Eh

Convergence Acceleration:
 DIIS                   CNVDIIS         .... on
   Start iteration      DIISMaxIt       ....    12
   Startup error        DIISStart       ....  0.200000
   # of expansion vecs  DIISMaxEq       ....     5
   Bias factor          DIISBfac        ....   1.050
   Max. coefficient     DIISMaxC        ....  10.000
 Newton-Raphson         CNVNR           .... off
 SOSCF                  CNVSOSCF        .... on
   Start iteration      SOSCFMaxIt      ....   150
   Startup grad/error   SOSCFStart      ....  0.003300
 Level Shifting         CNVShift        .... on
   Level shift para.    LevelShift      ....    0.2500
   Turn off err/grad.   ShiftErr        ....    0.0010
 Zerner damping         CNVZerner       .... off
 Static damping         CNVDamp         .... on
   Fraction old density DampFac         ....    0.7000
   Max. Damping (<1)    DampMax         ....    0.9800
   Min. Damping (>=0)   DampMin         ....    0.0000
   Turn off err/grad.   DampErr         ....    0.1000
 Fernandez-Rico         CNVRico         .... off

SCF Procedure:
 Maximum # iterations   MaxIter         ....   125
 SCF integral mode      SCFMode         .... Direct
   Integral package                     .... LIBINT
 Reset frequency        DirectResetFreq ....    20
 Integral Threshold     Thresh          ....  1.000e-12 Eh
 Primitive CutOff       TCut            ....  1.000e-14 Eh

Convergence Tolerance:
 Convergence Check Mode ConvCheckMode   .... Total+1el-Energy
 Convergence forced     ConvForced      .... 0
 Energy Change          TolE            ....  1.000e-09 Eh
 1-El. energy change                    ....  1.000e-06 Eh
 Orbital Gradient       TolG            ....  2.000e-06
 Orbital Rotation angle TolX            ....  2.000e-06
 DIIS Error             TolErr          ....  1.000e-08


Diagonalization of the overlap matrix:
Smallest eigenvalue                        ... 1.000e+00
Time for diagonalization                   ...    0.001 sec
Threshold for overlap eigenvalues          ... 1.000e-08
Number of eigenvalues below threshold      ... 0
Time for construction of square roots      ...    0.001 sec
Total time needed                          ...    0.002 sec

-------------------
DFT GRID GENERATION
-------------------

General Integration Accuracy     IntAcc      ...  5.010
Radial Grid Type                 RadialGrid  ... Gauss-Chebyshev
Angular Grid (max. acc.)         AngularGrid ... Lebedev-434
Angular grid pruning method      GridPruning ... 3 (G Style)
Weight generation scheme         WeightScheme... Becke
Basis function cutoff            BFCut       ...    1.0000e-12
Integration weight cutoff        WCut        ...    1.0000e-14
Grids for H and He will be reduced by one unit

# of grid points (after initial pruning)     ...  11992 (   0.0 sec)
# of grid points (after weights+screening)   ...  11992 (   0.0 sec)
Grid point division into batches done        ...    0.1 sec
Reduced shell lists constructed in    0.1 sec

Total number of grid points                  ...    11992
Total number of batches                      ...      188
Average number of points per batch           ...       63
Average number of grid points per atom       ...    11992
Average number of shells per batch           ...     3.50 (43.75%)
Average number of basis functions per batch  ...     9.67 (53.70%)
Average number of large shells per batch     ...     2.25 (64.29%)
Average number of large basis fcns per batch ...     5.92 (61.21%)
Maximum spatial batch extension              ...  18.71, 18.71, 18.71 au
Average spatial batch extension              ...   0.97,  0.98,  0.97 au

Time for grid setup =    0.150 sec

------------------------------
INITIAL GUESS: MODEL POTENTIAL
------------------------------
Loading ZORA relativistic densities                ... done
Calculating cut-offs                               ... done
Setting up the integral package                    ... done
Initializing the effective Hamiltonian             ... done
Starting the Coulomb interaction                   ... done (   0.0 sec)
Reading the grid                                   ... done
Mapping shells                                     ... done
Starting the XC term evaluation                    ... done (   0.0 sec)
  promolecular density results
     # of electrons  =     18.000000116
     EX              =    -28.047870263
     EC              =     -1.433252902
     EX+EC           =    -29.481123164
Transforming the Hamiltonian                       ... done (   0.0 sec)
Diagonalizing the Hamiltonian                      ... done (   0.0 sec)
Back transforming the eigenvectors                 ... done (   0.0 sec)
Now organizing SCF variables                       ... done
                      ------------------
                      INITIAL GUESS DONE (   0.2 sec)
                      ------------------
--------------
SCF ITERATIONS
--------------
ITER       Energy         Delta-E        Max-DP      RMS-DP      [F,P]     Damp
               ***  Starting incremental Fock matrix formation  ***
  0   -349.5292410385   0.000000000000 0.00212359  0.00011818  0.9217767 0.7000
                      *** Initiating the SOSCF procedure ***
                      *** Re-Reading the Fockian *** 
                      *** Removing any level shift *** 
ITER      Energy       Delta-E        Grad      Rot      Max-DP    RMS-DP
  1   -349.53026367  -0.0010226326  0.000538  0.000538  0.004963  0.000276
               *** Restarting incremental Fock matrix formation ***
  2   -349.53264339  -0.0023797224  0.000866  0.000007  0.000013  0.000001
  3   -349.53264341  -0.0000000129  0.000002  0.000000  0.000000  0.000000
                 **** Energy Check signals convergence ****
              ***Rediagonalizing the Fockian in SOSCF/NRSCF***

               *****************************************************
               *                     SUCCESS                       *
               *           SCF CONVERGED AFTER   4 CYCLES          *
               *****************************************************

Setting up the final grid:

General Integration Accuracy     IntAcc      ...  5.340
Radial Grid Type                 RadialGrid  ... Gauss-Chebyshev
Angular Grid (max. acc.)         AngularGrid ... Lebedev-590
Angular grid pruning method      GridPruning ... 3 (G Style)
Weight generation scheme         WeightScheme... Becke
Basis function cutoff            BFCut       ...    1.0000e-12
Integration weight cutoff        WCut        ...    1.0000e-14
Grids for H and He will be reduced by one unit

# of grid points (after initial pruning)     ...  18110 (   0.0 sec)
# of grid points (after weights+screening)   ...  18110 (   0.0 sec)
Grid point division into batches done        ...    0.2 sec
Reduced shell lists constructed in    0.2 sec

Total number of grid points                  ...    18110
Total number of batches                      ...      283
Average number of points per batch           ...       63
Average number of grid points per atom       ...    18110
Average number of shells per batch           ...     1.18 (14.71%)
Average number of basis functions per batch  ...     3.53 (19.61%)
Average number of large shells per batch     ...     0.59 (50.00%)
Average number of large basis fcns per batch ...     1.76 (50.00%)
Maximum spatial batch extension              ...  19.03, 19.03, 19.03 au
Average spatial batch extension              ...   0.84,  0.84,  0.80 au

Final grid set up in    0.2 sec
Final integration                            ... done (   0.0 sec)
Change in XC energy                          ...     0.000014734
Integrated number of electrons               ...     2.000000256
Previous integrated no of electrons          ...     2.000000990

----------------
TOTAL SCF ENERGY
----------------

Total Energy       :         -349.53262867 Eh           -9511.26637 eV

Components:
Nuclear Repulsion  :            0.00000000 Eh               0.00000 eV
Electronic Energy  :         -349.53262867 Eh           -9511.26637 eV
One Electron Energy:         -362.21487922 Eh           -9856.36795 eV
Two Electron Energy:           12.68225055 Eh             345.10158 eV

Virial components:
Potential Energy   :         -641.78963676 Eh          -17463.98387 eV
Kinetic Energy     :          292.25700809 Eh            7952.71750 eV
Virial Ratio       :            2.19597689


DFT components:
N(Alpha)           :        1.000000128153 electrons
N(Beta)            :        1.000000128153 electrons
N(Total)           :        2.000000256306 electrons
E(X)               :       -9.706682751881 Eh       
E(C)               :       -0.238728472339 Eh       
E(XC)              :       -9.945411224221 Eh       
DFET-embed. en.    :        0.000000000000 Eh       

---------------
SCF CONVERGENCE
---------------

  Last Energy change         ...    0.0000e+00  Tolerance :   1.0000e-09
  Last MAX-Density change    ...    0.0000e+00  Tolerance :   1.0000e-08
  Last RMS-Density change    ...    0.0000e+00  Tolerance :   1.0000e-09
  Last Orbital Gradient      ...    1.1175e-11  Tolerance :   2.0000e-06
  Last Orbital Rotation      ...    0.0000e+00  Tolerance :   2.0000e-06

================================================================================
                                        WARNING
Number of found core electrons (2) does not match given number of chemical core electrons (10)
================================================================================
             **** THE GBW FILE WAS UPDATED (Ar_ano-rcc-dzp_34.25899725_.gbw) ****
             **** DENSITY FILE WAS UPDATED (Ar_ano-rcc-dzp_34.25899725_.scfp) ****
             **** ENERGY FILE WAS UPDATED (Ar_ano-rcc-dzp_34.25899725_.en.tmp) ****
             **** THE GBW FILE WAS UPDATED (Ar_ano-rcc-dzp_34.25899725_.gbw) ****
             **** DENSITY FILE WAS UPDATED (Ar_ano-rcc-dzp_34.25899725_.scfp) ****
----------------
ORBITAL ENERGIES
----------------

  NO   OCC          E(Eh)            E(eV) 
   0   2.0000    -165.079840     -4492.0508 
   1   0.0000     -35.775970      -973.5136 
   2   0.0000     -33.627369      -915.0472 
   3   0.0000     -33.627369      -915.0472 
   4   0.0000     -33.627369      -915.0472 
   5   0.0000     -13.709300      -373.0490 
   6   0.0000     -12.301702      -334.7463 
   7   0.0000     -12.301702      -334.7463 
   8   0.0000     -12.301702      -334.7463 
   9   0.0000      -9.382151      -255.3013 
  10   0.0000      -9.382151      -255.3013 
  11   0.0000      -9.382151      -255.3013 
  12   0.0000      -9.382151      -255.3013 
  13   0.0000      -9.382151      -255.3013 
  14   0.0000      -6.798004      -184.9831 
  15   0.0000      -5.727270      -155.8469 
  16   0.0000      -5.727270      -155.8469 
  17   0.0000      -5.727270      -155.8469 

                    ********************************
                    * MULLIKEN POPULATION ANALYSIS *
                    ********************************

-----------------------
MULLIKEN ATOMIC CHARGES
-----------------------
   0 Ar:   16.000000
Sum of atomic charges:   16.0000000

--------------------------------
MULLIKEN REDUCED ORBITAL CHARGES
--------------------------------
  0 Ars       :     2.000000  s :     2.000000
      pz      :     0.000000  p :     0.000000
      px      :     0.000000
      py      :     0.000000
      dz2     :     0.000000  d :     0.000000
      dxz     :     0.000000
      dyz     :     0.000000
      dx2y2   :     0.000000
      dxy     :     0.000000


                     *******************************
                     * LOEWDIN POPULATION ANALYSIS *
                     *******************************

----------------------
LOEWDIN ATOMIC CHARGES
----------------------
   0 Ar:   16.000000

-------------------------------
LOEWDIN REDUCED ORBITAL CHARGES
-------------------------------
  0 Ars       :     2.000000  s :     2.000000
      pz      :     0.000000  p :     0.000000
      px      :     0.000000
      py      :     0.000000
      dz2     :     0.000000  d :     0.000000
      dxz     :     0.000000
      dyz     :     0.000000
      dx2y2   :     0.000000
      dxy     :     0.000000


                      *****************************
                      * MAYER POPULATION ANALYSIS *
                      *****************************

  NA   - Mulliken gross atomic population
  ZA   - Total nuclear charge
  QA   - Mulliken gross atomic charge
  VA   - Mayer's total valence
  BVA  - Mayer's bonded valence
  FA   - Mayer's free valence

  ATOM       NA         ZA         QA         VA         BVA        FA
  0 Ar     2.0000    18.0000    16.0000     0.0000     0.0000     0.0000

  Mayer bond orders larger than 0.100000


--------------------------
ATOM BASIS FOR ELEMENT Ar
--------------------------
 NewGTO Ar
 S 68
    1     455476.770000000019         0.000319337963
    2      64817.743000000002         0.001009968955
    3      19256.987000000001         0.002166678028
    4       6877.007300000000         0.005953217990
    5       2643.487700000000         0.015882156679
    6       1054.237500000000         0.043975001960
    7        429.371220000000         0.114273411787
    8        177.188590000000         0.254213095690
    9         73.763945000000         0.397827312659
   10         30.897007000000         0.278494691404
   11         12.999482000000         0.038272773666
   12          5.487679300000         0.003113520180
   13          2.322571600000        -0.001382410108
   14          0.984980700000         0.001001103448
   15          0.418397300000        -0.000642130279
   16          0.177959400000         0.000281559721
   17          0.071183800000        -0.000076155505
   18     455476.770000000019         0.000004815800
   19      64817.743000000002         0.000015251873
   20      19256.987000000001         0.000032810890
   21       6877.007300000000         0.000090450007
   22       2643.487700000000         0.000243670090
   23       1054.237500000000         0.000686979877
   24        429.371220000000         0.001869881876
   25        177.188590000000         0.004607475802
   26         73.763945000000         0.009193685375
   27         30.897007000000         0.009775664197
   28         12.999482000000        -0.007203384308
   29          5.487679300000        -0.033392741194
   30          2.322571600000        -0.020099539795
   31          0.984980700000        -0.000261757881
   32          0.418397300000        -0.000617238388
   33          0.177959400000         0.000234445727
   34          0.071183800000        -0.000067939445
   35     455476.770000000019         0.000000425553
   36      64817.743000000002         0.000001346578
   37      19256.987000000001         0.000002907479
   38       6877.007300000000         0.000007967747
   39       2643.487700000000         0.000021670669
   40       1054.237500000000         0.000060591910
   41        429.371220000000         0.000167482537
   42        177.188590000000         0.000412088045
   43         73.763945000000         0.000856026175
   44         30.897007000000         0.000929597376
   45         12.999482000000        -0.000717626818
   46          5.487679300000        -0.004858831509
   47          2.322571600000        -0.005144663103
   48          0.984980700000         0.005048418365
   49          0.418397300000         0.010025803832
   50          0.177959400000         0.003767454977
   51          0.071183800000         0.000066837425
   52     455476.770000000019         0.000000567748
   53      64817.743000000002         0.000001796040
   54      19256.987000000001         0.000003880778
   55       6877.007300000000         0.000010629733
   56       2643.487700000000         0.000028933713
   57       1054.237500000000         0.000080983465
   58        429.371220000000         0.000224240145
   59        177.188590000000         0.000554808547
   60         73.763945000000         0.001166843932
   61         30.897007000000         0.001297063685
   62         12.999482000000        -0.001419058738
   63          5.487679300000        -0.006835938790
   64          2.322571600000        -0.010951371654
   65          0.984980700000         0.031156758420
   66          0.418397300000         0.000043838189
   67          0.177959400000        -0.019460411790
   68          0.071183800000        -0.000753956675
 S 68
    1     455476.770000000019        -0.000017709332
    2      64817.743000000002        -0.000056009237
    3      19256.987000000001        -0.000120156152
    4       6877.007300000000        -0.000330144008
    5       2643.487700000000        -0.000880767152
    6       1054.237500000000        -0.002438695074
    7        429.371220000000        -0.006337191449
    8        177.188590000000        -0.014097741820
    9         73.763945000000        -0.022062068548
   10         30.897007000000        -0.015444311581
   11         12.999482000000        -0.002122470050
   12          5.487679300000        -0.000172664605
   13          2.322571600000         0.000076663481
   14          0.984980700000        -0.000055517588
   15          0.418397300000         0.000035610230
   16          0.177959400000        -0.000015614287
   17          0.071183800000         0.000004223310
   18     455476.770000000019         0.000090325367
   19      64817.743000000002         0.000286064869
   20      19256.987000000001         0.000615402626
   21       6877.007300000000         0.001696484675
   22       2643.487700000000         0.004570287933
   23       1054.237500000000         0.012885027639
   24        429.371220000000         0.035071594442
   25        177.188590000000         0.086418037859
   26         73.763945000000         0.172437205289
   27         30.897007000000         0.183352828078
   28         12.999482000000        -0.135107022716
   29          5.487679300000        -0.626315860692
   30          2.322571600000        -0.376987935587
   31          0.984980700000        -0.004909543421
   32          0.418397300000        -0.011576952899
   33          0.177959400000         0.004397275332
   34          0.071183800000        -0.001274275507
   35     455476.770000000019         0.000003257136
   36      64817.743000000002         0.000010306564
   37      19256.987000000001         0.000022253526
   38       6877.007300000000         0.000060984260
   39       2643.487700000000         0.000165864929
   40       1054.237500000000         0.000463763840
   41        429.371220000000         0.001281892997
   42        177.188590000000         0.003154076766
   43         73.763945000000         0.006551930588
   44         30.897007000000         0.007115036501
   45         12.999482000000        -0.005492637068
   46          5.487679300000        -0.037188964218
   47          2.322571600000        -0.039376687932
   48          0.984980700000         0.038640041246
   49          0.418397300000         0.076736404473
   50          0.177959400000         0.028835687774
   51          0.071183800000         0.000511566333
   52     455476.770000000019         0.000003479970
   53      64817.743000000002         0.000011008692
   54      19256.987000000001         0.000023786930
   55       6877.007300000000         0.000065154129
   56       2643.487700000000         0.000177346972
   57       1054.237500000000         0.000496381928
   58        429.371220000000         0.001374462733
   59        177.188590000000         0.003400656348
   60         73.763945000000         0.007152080207
   61         30.897007000000         0.007950252178
   62         12.999482000000        -0.008698011474
   63          5.487679300000        -0.041900361455
   64          2.322571600000        -0.067125590915
   65          0.984980700000         0.190972956272
   66          0.418397300000         0.000268702807
   67          0.177959400000        -0.119281098495
   68          0.071183800000        -0.004621319497
 S 67
    1     455476.770000000019        -0.000004194179
    2      64817.743000000002        -0.000013264913
    3      19256.987000000001        -0.000028457108
    4       6877.007300000000        -0.000078189452
    5       2643.487700000000        -0.000208595945
    6       1054.237500000000        -0.000577566842
    7        429.371220000000        -0.001500864823
    8        177.188590000000        -0.003338829978
    9         73.763945000000        -0.005225056381
   10         30.897007000000        -0.003657743996
   11         12.999482000000        -0.000502673884
   12          5.487679300000        -0.000040892915
   13          2.322571600000         0.000018156548
   14          0.984980700000        -0.000013148474
   15          0.418397300000         0.000008433727
   16          0.177959400000        -0.000003698000
   17     455476.770000000019        -0.000013760129
   18      64817.743000000002        -0.000043579002
   19      19256.987000000001        -0.000093750178
   20       6877.007300000000        -0.000258441763
   21       2643.487700000000        -0.000696235744
   22       1054.237500000000        -0.001962899699
   23        429.371220000000        -0.005342791967
   24        177.188590000000        -0.013164887591
   25         73.763945000000        -0.026269011429
   26         30.897007000000        -0.027931892820
   27         12.999482000000         0.020582147095
   28          5.487679300000         0.095412695161
   29          2.322571600000         0.057430183770
   30          0.984980700000         0.000747917783
   31          0.418397300000         0.001763628142
   32          0.177959400000        -0.000669879077
   33          0.071183800000         0.000194122596
   34     455476.770000000019         0.000024357737
   35      64817.743000000002         0.000077075262
   36      19256.987000000001         0.000166417858
   37       6877.007300000000         0.000456056716
   38       2643.487700000000         0.001240382598
   39       1054.237500000000         0.003468150861
   40        429.371220000000         0.009586340976
   41        177.188590000000         0.023587035282
   42         73.763945000000         0.048997101023
   43         30.897007000000         0.053208158660
   44         12.999482000000        -0.041075418875
   45          5.487679300000        -0.278109087452
   46          2.322571600000        -0.294469474423
   47          0.984980700000         0.288960632159
   48          0.418397300000         0.573855493718
   49          0.177959400000         0.215641037103
   50          0.071183800000         0.003825630777
   51     455476.770000000019         0.000017652704
   52      64817.743000000002         0.000055843351
   53      19256.987000000001         0.000120663004
   54       6877.007300000000         0.000330504738
   55       2643.487700000000         0.000899620876
   56       1054.237500000000         0.002517976707
   57        429.371220000000         0.006972182009
   58        177.188590000000         0.017250373140
   59         73.763945000000         0.036280070571
   60         30.897007000000         0.040328925533
   61         12.999482000000        -0.044122054141
   62          5.487679300000        -0.212546283959
   63          2.322571600000        -0.340505294273
   64          0.984980700000         0.968740860040
   65          0.418397300000         0.001363037960
   66          0.177959400000        -0.605072446893
   67          0.071183800000        -0.023442382167
 S 67
    1     455476.770000000019        -0.000001573233
    2      64817.743000000002        -0.000004975657
    3      19256.987000000001        -0.000010674236
    4       6877.007300000000        -0.000029328793
    5       2643.487700000000        -0.000078244151
    6       1054.237500000000        -0.000216644803
    7        429.371220000000        -0.000562973045
    8        177.188590000000        -0.001252392121
    9         73.763945000000        -0.001959913947
   10         30.897007000000        -0.001372016482
   11         12.999482000000        -0.000188552521
   12          5.487679300000        -0.000015338896
   13          2.322571600000         0.000006810505
   14          0.984980700000        -0.000004931981
   15          0.418397300000         0.000003163483
   16          0.177959400000        -0.000001387116
   17     455476.770000000019        -0.000002556507
   18      64817.743000000002        -0.000008096582
   19      19256.987000000001        -0.000017417929
   20       6877.007300000000        -0.000048016125
   21       2643.487700000000        -0.000129354259
   22       1054.237500000000        -0.000364688884
   23        429.371220000000        -0.000992642081
   24        177.188590000000        -0.002445916199
   25         73.763945000000        -0.004880543045
   26         30.897007000000        -0.005189491261
   27         12.999482000000         0.003823975452
   28          5.487679300000         0.017726809669
   29          2.322571600000         0.010670005026
   30          0.984980700000         0.000138956311
   31          0.418397300000         0.000327666044
   32          0.177959400000        -0.000124457431
   33          0.071183800000         0.000036066210
   34     455476.770000000019        -0.000015221652
   35      64817.743000000002        -0.000048165920
   36      19256.987000000001        -0.000103997951
   37       6877.007300000000        -0.000284999245
   38       2643.487700000000        -0.000775140661
   39       1054.237500000000        -0.002167318982
   40        429.371220000000        -0.005990702134
   41        177.188590000000        -0.014740024682
   42         73.763945000000        -0.030619298688
   43         30.897007000000        -0.033250875432
   44         12.999482000000         0.025668876178
   45          5.487679300000         0.173796103008
   46          2.322571600000         0.184020046157
   47          0.984980700000        -0.180577457041
   48          0.418397300000        -0.358614130202
   49          0.177959400000        -0.134758530332
   50          0.071183800000        -0.002390715552
   51     455476.770000000019         0.000029008432
   52      64817.743000000002         0.000091766568
   53      19256.987000000001         0.000198283763
   54       6877.007300000000         0.000543113638
   55       2643.487700000000         0.001478333926
   56       1054.237500000000         0.004137754569
   57        429.371220000000         0.011457285480
   58        177.188590000000         0.028347287760
   59         73.763945000000         0.059618513296
   60         30.897007000000         0.066271937877
   61         12.999482000000        -0.072505131054
   62          5.487679300000        -0.349274222917
   63          2.322571600000        -0.559547406997
   64          0.984980700000         1.591917792190
   65          0.418397300000         0.002239860493
   66          0.177959400000        -0.994306768203
   67          0.071183800000        -0.038522526304
 P 36
    1       1462.496200000000         0.000951943310
    2        354.067310000000         0.006142958603
    3        126.697790000000         0.025493679058
    4         49.989095000000         0.092028477907
    5         20.509295000000         0.241418609633
    6          8.580464100000         0.412023639179
    7          3.630104900000         0.340593833194
    8          1.546528000000         0.072171266482
    9          0.661936900000         0.003477875629
   10          0.284242800000         0.000287377432
   11          0.122346300000         0.000471166360
   12          0.048938500000        -0.000084585071
   13       1462.496200000000         0.000028802668
   14        354.067310000000         0.000186632135
   15        126.697790000000         0.000781067289
   16         49.989095000000         0.002880095431
   17         20.509295000000         0.007804922180
   18          8.580464100000         0.013997139479
   19          3.630104900000         0.011570011515
   20          1.546528000000        -0.016989349206
   21          0.661936900000        -0.046896109861
   22          0.284242800000        -0.043018220701
   23          0.122346300000        -0.015387567853
   24          0.048938500000        -0.000709569540
   25       1462.496200000000         0.000032595574
   26        354.067310000000         0.000198263331
   27        126.697790000000         0.000902395774
   28         49.989095000000         0.003070681924
   29         20.509295000000         0.009319293278
   30          8.580464100000         0.013934916936
   31          3.630104900000         0.017004672419
   32          1.546528000000        -0.043613087721
   33          0.661936900000        -0.071274680303
   34          0.284242800000         0.049450633213
   35          0.122346300000         0.058582147600
   36          0.048938500000         0.006029599818
 P 36
    1       1462.496200000000        -0.000135627471
    2        354.067310000000        -0.000875213819
    3        126.697790000000        -0.003632194461
    4         49.989095000000        -0.013111694353
    5         20.509295000000        -0.034395951044
    6          8.580464100000        -0.058702785769
    7          3.630104900000        -0.048525873089
    8          1.546528000000        -0.010282551757
    9          0.661936900000        -0.000495507948
   10          0.284242800000        -0.000040943903
   11          0.122346300000        -0.000067129104
   12          0.048938500000         0.000012051200
   13       1462.496200000000         0.000226324061
   14        354.067310000000         0.001466507984
   15        126.697790000000         0.006137428661
   16         49.989095000000         0.022631059438
   17         20.509295000000         0.061329098990
   18          8.580464100000         0.109985972035
   19          3.630104900000         0.090914216067
   20          1.546528000000        -0.133497997183
   21          0.661936900000        -0.368497737384
   22          0.284242800000        -0.338026267883
   23          0.122346300000        -0.120911605553
   24          0.048938500000        -0.005575617486
   25       1462.496200000000         0.000185428792
   26        354.067310000000         0.001127874916
   27        126.697790000000         0.005133523949
   28         49.989095000000         0.017468409811
   29         20.509295000000         0.053015336061
   30          8.580464100000         0.079272567382
   31          3.630104900000         0.096735706879
   32          1.546528000000        -0.248104918814
   33          0.661936900000        -0.405465416327
   34          0.284242800000         0.281313385032
   35          0.122346300000         0.333260489766
   36          0.048938500000         0.034301019520
 P 35
    1       1462.496200000000        -0.000021192473
    2        354.067310000000        -0.000136756549
    3        126.697790000000        -0.000567548602
    4         49.989095000000        -0.002048768005
    5         20.509295000000        -0.005374539864
    6          8.580464100000        -0.009172604701
    7          3.630104900000        -0.007582411052
    8          1.546528000000        -0.001606700284
    9          0.661936900000        -0.000077425602
   10          0.284242800000        -0.000006397690
   11          0.122346300000        -0.000010489259
   12       1462.496200000000        -0.000154642203
   13        354.067310000000        -0.001002032327
   14        126.697790000000        -0.004193568661
   15         49.989095000000        -0.015463300163
   16         20.509295000000        -0.041904810907
   17          8.580464100000        -0.075150971341
   18          3.630104900000        -0.062119664169
   19          1.546528000000         0.091216215802
   20          0.661936900000         0.251786317737
   21          0.284242800000         0.230965839554
   22          0.122346300000         0.082616214010
   23          0.048938500000         0.003809695565
   24       1462.496200000000         0.000277452306
   25        354.067310000000         0.001687610061
   26        126.697790000000         0.007681159093
   27         49.989095000000         0.026137529733
   28         20.509295000000         0.079325475966
   29          8.580464100000         0.118613491978
   30          3.630104900000         0.144743135877
   31          1.546528000000        -0.371232972127
   32          0.661936900000        -0.606687414007
   33          0.284242800000         0.420921941103
   34          0.122346300000         0.498649050166
   35          0.048938500000         0.051323728221
 D 5
    1          4.328841700000         0.027886140074
    2          1.774230200000         0.193753660516
    3          0.727190600000         0.602274991605
    4          0.298048200000         0.305103490813
    5          0.119219300000         0.028800580077
 end
  // -----------------------------------------------
  // The basis set
  // -----------------------------------------------
  BAS[ATNO] = new BFNGauss[NSH];
  // Basis function   1 L = s
  InitBFNGauss(BAS[ATNO][  0]);
  BAS[ATNO][  0].l  = 0;
  BAS[ATNO][  0].ng = 68;
  BAS[ATNO][  0].a[  0] =    455476.770000000019;     BAS[ATNO][  0].d[  0] =         0.000319337963;
  BAS[ATNO][  0].a[  1] =     64817.743000000002;     BAS[ATNO][  0].d[  1] =         0.001009968955;
  BAS[ATNO][  0].a[  2] =     19256.987000000001;     BAS[ATNO][  0].d[  2] =         0.002166678028;
  BAS[ATNO][  0].a[  3] =      6877.007300000000;     BAS[ATNO][  0].d[  3] =         0.005953217990;
  BAS[ATNO][  0].a[  4] =      2643.487700000000;     BAS[ATNO][  0].d[  4] =         0.015882156679;
  BAS[ATNO][  0].a[  5] =      1054.237500000000;     BAS[ATNO][  0].d[  5] =         0.043975001960;
  BAS[ATNO][  0].a[  6] =       429.371220000000;     BAS[ATNO][  0].d[  6] =         0.114273411787;
  BAS[ATNO][  0].a[  7] =       177.188590000000;     BAS[ATNO][  0].d[  7] =         0.254213095690;
  BAS[ATNO][  0].a[  8] =        73.763945000000;     BAS[ATNO][  0].d[  8] =         0.397827312659;
  BAS[ATNO][  0].a[  9] =        30.897007000000;     BAS[ATNO][  0].d[  9] =         0.278494691404;
  BAS[ATNO][  0].a[ 10] =        12.999482000000;     BAS[ATNO][  0].d[ 10] =         0.038272773666;
  BAS[ATNO][  0].a[ 11] =         5.487679300000;     BAS[ATNO][  0].d[ 11] =         0.003113520180;
  BAS[ATNO][  0].a[ 12] =         2.322571600000;     BAS[ATNO][  0].d[ 12] =        -0.001382410108;
  BAS[ATNO][  0].a[ 13] =         0.984980700000;     BAS[ATNO][  0].d[ 13] =         0.001001103448;
  BAS[ATNO][  0].a[ 14] =         0.418397300000;     BAS[ATNO][  0].d[ 14] =        -0.000642130279;
  BAS[ATNO][  0].a[ 15] =         0.177959400000;     BAS[ATNO][  0].d[ 15] =         0.000281559721;
  BAS[ATNO][  0].a[ 16] =         0.071183800000;     BAS[ATNO][  0].d[ 16] =        -0.000076155505;
  BAS[ATNO][  0].a[ 17] =    455476.770000000019;     BAS[ATNO][  0].d[ 17] =         0.000004815800;
  BAS[ATNO][  0].a[ 18] =     64817.743000000002;     BAS[ATNO][  0].d[ 18] =         0.000015251873;
  BAS[ATNO][  0].a[ 19] =     19256.987000000001;     BAS[ATNO][  0].d[ 19] =         0.000032810890;
  BAS[ATNO][  0].a[ 20] =      6877.007300000000;     BAS[ATNO][  0].d[ 20] =         0.000090450007;
  BAS[ATNO][  0].a[ 21] =      2643.487700000000;     BAS[ATNO][  0].d[ 21] =         0.000243670090;
  BAS[ATNO][  0].a[ 22] =      1054.237500000000;     BAS[ATNO][  0].d[ 22] =         0.000686979877;
  BAS[ATNO][  0].a[ 23] =       429.371220000000;     BAS[ATNO][  0].d[ 23] =         0.001869881876;
  BAS[ATNO][  0].a[ 24] =       177.188590000000;     BAS[ATNO][  0].d[ 24] =         0.004607475802;
  BAS[ATNO][  0].a[ 25] =        73.763945000000;     BAS[ATNO][  0].d[ 25] =         0.009193685375;
  BAS[ATNO][  0].a[ 26] =        30.897007000000;     BAS[ATNO][  0].d[ 26] =         0.009775664197;
  BAS[ATNO][  0].a[ 27] =        12.999482000000;     BAS[ATNO][  0].d[ 27] =        -0.007203384308;
  BAS[ATNO][  0].a[ 28] =         5.487679300000;     BAS[ATNO][  0].d[ 28] =        -0.033392741194;
  BAS[ATNO][  0].a[ 29] =         2.322571600000;     BAS[ATNO][  0].d[ 29] =        -0.020099539795;
  BAS[ATNO][  0].a[ 30] =         0.984980700000;     BAS[ATNO][  0].d[ 30] =        -0.000261757881;
  BAS[ATNO][  0].a[ 31] =         0.418397300000;     BAS[ATNO][  0].d[ 31] =        -0.000617238388;
  BAS[ATNO][  0].a[ 32] =         0.177959400000;     BAS[ATNO][  0].d[ 32] =         0.000234445727;
  BAS[ATNO][  0].a[ 33] =         0.071183800000;     BAS[ATNO][  0].d[ 33] =        -0.000067939445;
  BAS[ATNO][  0].a[ 34] =    455476.770000000019;     BAS[ATNO][  0].d[ 34] =         0.000000425553;
  BAS[ATNO][  0].a[ 35] =     64817.743000000002;     BAS[ATNO][  0].d[ 35] =         0.000001346578;
  BAS[ATNO][  0].a[ 36] =     19256.987000000001;     BAS[ATNO][  0].d[ 36] =         0.000002907479;
  BAS[ATNO][  0].a[ 37] =      6877.007300000000;     BAS[ATNO][  0].d[ 37] =         0.000007967747;
  BAS[ATNO][  0].a[ 38] =      2643.487700000000;     BAS[ATNO][  0].d[ 38] =         0.000021670669;
  BAS[ATNO][  0].a[ 39] =      1054.237500000000;     BAS[ATNO][  0].d[ 39] =         0.000060591910;
  BAS[ATNO][  0].a[ 40] =       429.371220000000;     BAS[ATNO][  0].d[ 40] =         0.000167482537;
  BAS[ATNO][  0].a[ 41] =       177.188590000000;     BAS[ATNO][  0].d[ 41] =         0.000412088045;
  BAS[ATNO][  0].a[ 42] =        73.763945000000;     BAS[ATNO][  0].d[ 42] =         0.000856026175;
  BAS[ATNO][  0].a[ 43] =        30.897007000000;     BAS[ATNO][  0].d[ 43] =         0.000929597376;
  BAS[ATNO][  0].a[ 44] =        12.999482000000;     BAS[ATNO][  0].d[ 44] =        -0.000717626818;
  BAS[ATNO][  0].a[ 45] =         5.487679300000;     BAS[ATNO][  0].d[ 45] =        -0.004858831509;
  BAS[ATNO][  0].a[ 46] =         2.322571600000;     BAS[ATNO][  0].d[ 46] =        -0.005144663103;
  BAS[ATNO][  0].a[ 47] =         0.984980700000;     BAS[ATNO][  0].d[ 47] =         0.005048418365;
  BAS[ATNO][  0].a[ 48] =         0.418397300000;     BAS[ATNO][  0].d[ 48] =         0.010025803832;
  BAS[ATNO][  0].a[ 49] =         0.177959400000;     BAS[ATNO][  0].d[ 49] =         0.003767454977;
  BAS[ATNO][  0].a[ 50] =         0.071183800000;     BAS[ATNO][  0].d[ 50] =         0.000066837425;
  BAS[ATNO][  0].a[ 51] =    455476.770000000019;     BAS[ATNO][  0].d[ 51] =         0.000000567748;
  BAS[ATNO][  0].a[ 52] =     64817.743000000002;     BAS[ATNO][  0].d[ 52] =         0.000001796040;
  BAS[ATNO][  0].a[ 53] =     19256.987000000001;     BAS[ATNO][  0].d[ 53] =         0.000003880778;
  BAS[ATNO][  0].a[ 54] =      6877.007300000000;     BAS[ATNO][  0].d[ 54] =         0.000010629733;
  BAS[ATNO][  0].a[ 55] =      2643.487700000000;     BAS[ATNO][  0].d[ 55] =         0.000028933713;
  BAS[ATNO][  0].a[ 56] =      1054.237500000000;     BAS[ATNO][  0].d[ 56] =         0.000080983465;
  BAS[ATNO][  0].a[ 57] =       429.371220000000;     BAS[ATNO][  0].d[ 57] =         0.000224240145;
  BAS[ATNO][  0].a[ 58] =       177.188590000000;     BAS[ATNO][  0].d[ 58] =         0.000554808547;
  BAS[ATNO][  0].a[ 59] =        73.763945000000;     BAS[ATNO][  0].d[ 59] =         0.001166843932;
  BAS[ATNO][  0].a[ 60] =        30.897007000000;     BAS[ATNO][  0].d[ 60] =         0.001297063685;
  BAS[ATNO][  0].a[ 61] =        12.999482000000;     BAS[ATNO][  0].d[ 61] =        -0.001419058738;
  BAS[ATNO][  0].a[ 62] =         5.487679300000;     BAS[ATNO][  0].d[ 62] =        -0.006835938790;
  BAS[ATNO][  0].a[ 63] =         2.322571600000;     BAS[ATNO][  0].d[ 63] =        -0.010951371654;
  BAS[ATNO][  0].a[ 64] =         0.984980700000;     BAS[ATNO][  0].d[ 64] =         0.031156758420;
  BAS[ATNO][  0].a[ 65] =         0.418397300000;     BAS[ATNO][  0].d[ 65] =         0.000043838189;
  BAS[ATNO][  0].a[ 66] =         0.177959400000;     BAS[ATNO][  0].d[ 66] =        -0.019460411790;
  BAS[ATNO][  0].a[ 67] =         0.071183800000;     BAS[ATNO][  0].d[ 67] =        -0.000753956675;

  // Basis function   2 L = s
  InitBFNGauss(BAS[ATNO][  1]);
  BAS[ATNO][  1].l  = 0;
  BAS[ATNO][  1].ng = 68;
  BAS[ATNO][  1].a[  0] =    455476.770000000019;     BAS[ATNO][  1].d[  0] =         0.000017709332;
  BAS[ATNO][  1].a[  1] =     64817.743000000002;     BAS[ATNO][  1].d[  1] =         0.000056009237;
  BAS[ATNO][  1].a[  2] =     19256.987000000001;     BAS[ATNO][  1].d[  2] =         0.000120156152;
  BAS[ATNO][  1].a[  3] =      6877.007300000000;     BAS[ATNO][  1].d[  3] =         0.000330144008;
  BAS[ATNO][  1].a[  4] =      2643.487700000000;     BAS[ATNO][  1].d[  4] =         0.000880767152;
  BAS[ATNO][  1].a[  5] =      1054.237500000000;     BAS[ATNO][  1].d[  5] =         0.002438695074;
  BAS[ATNO][  1].a[  6] =       429.371220000000;     BAS[ATNO][  1].d[  6] =         0.006337191449;
  BAS[ATNO][  1].a[  7] =       177.188590000000;     BAS[ATNO][  1].d[  7] =         0.014097741820;
  BAS[ATNO][  1].a[  8] =        73.763945000000;     BAS[ATNO][  1].d[  8] =         0.022062068548;
  BAS[ATNO][  1].a[  9] =        30.897007000000;     BAS[ATNO][  1].d[  9] =         0.015444311581;
  BAS[ATNO][  1].a[ 10] =        12.999482000000;     BAS[ATNO][  1].d[ 10] =         0.002122470050;
  BAS[ATNO][  1].a[ 11] =         5.487679300000;     BAS[ATNO][  1].d[ 11] =         0.000172664605;
  BAS[ATNO][  1].a[ 12] =         2.322571600000;     BAS[ATNO][  1].d[ 12] =        -0.000076663481;
  BAS[ATNO][  1].a[ 13] =         0.984980700000;     BAS[ATNO][  1].d[ 13] =         0.000055517588;
  BAS[ATNO][  1].a[ 14] =         0.418397300000;     BAS[ATNO][  1].d[ 14] =        -0.000035610230;
  BAS[ATNO][  1].a[ 15] =         0.177959400000;     BAS[ATNO][  1].d[ 15] =         0.000015614287;
  BAS[ATNO][  1].a[ 16] =         0.071183800000;     BAS[ATNO][  1].d[ 16] =        -0.000004223310;
  BAS[ATNO][  1].a[ 17] =    455476.770000000019;     BAS[ATNO][  1].d[ 17] =        -0.000090325367;
  BAS[ATNO][  1].a[ 18] =     64817.743000000002;     BAS[ATNO][  1].d[ 18] =        -0.000286064869;
  BAS[ATNO][  1].a[ 19] =     19256.987000000001;     BAS[ATNO][  1].d[ 19] =        -0.000615402626;
  BAS[ATNO][  1].a[ 20] =      6877.007300000000;     BAS[ATNO][  1].d[ 20] =        -0.001696484675;
  BAS[ATNO][  1].a[ 21] =      2643.487700000000;     BAS[ATNO][  1].d[ 21] =        -0.004570287933;
  BAS[ATNO][  1].a[ 22] =      1054.237500000000;     BAS[ATNO][  1].d[ 22] =        -0.012885027639;
  BAS[ATNO][  1].a[ 23] =       429.371220000000;     BAS[ATNO][  1].d[ 23] =        -0.035071594442;
  BAS[ATNO][  1].a[ 24] =       177.188590000000;     BAS[ATNO][  1].d[ 24] =        -0.086418037859;
  BAS[ATNO][  1].a[ 25] =        73.763945000000;     BAS[ATNO][  1].d[ 25] =        -0.172437205289;
  BAS[ATNO][  1].a[ 26] =        30.897007000000;     BAS[ATNO][  1].d[ 26] =        -0.183352828078;
  BAS[ATNO][  1].a[ 27] =        12.999482000000;     BAS[ATNO][  1].d[ 27] =         0.135107022716;
  BAS[ATNO][  1].a[ 28] =         5.487679300000;     BAS[ATNO][  1].d[ 28] =         0.626315860692;
  BAS[ATNO][  1].a[ 29] =         2.322571600000;     BAS[ATNO][  1].d[ 29] =         0.376987935587;
  BAS[ATNO][  1].a[ 30] =         0.984980700000;     BAS[ATNO][  1].d[ 30] =         0.004909543421;
  BAS[ATNO][  1].a[ 31] =         0.418397300000;     BAS[ATNO][  1].d[ 31] =         0.011576952899;
  BAS[ATNO][  1].a[ 32] =         0.177959400000;     BAS[ATNO][  1].d[ 32] =        -0.004397275332;
  BAS[ATNO][  1].a[ 33] =         0.071183800000;     BAS[ATNO][  1].d[ 33] =         0.001274275507;
  BAS[ATNO][  1].a[ 34] =    455476.770000000019;     BAS[ATNO][  1].d[ 34] =        -0.000003257136;
  BAS[ATNO][  1].a[ 35] =     64817.743000000002;     BAS[ATNO][  1].d[ 35] =        -0.000010306564;
  BAS[ATNO][  1].a[ 36] =     19256.987000000001;     BAS[ATNO][  1].d[ 36] =        -0.000022253526;
  BAS[ATNO][  1].a[ 37] =      6877.007300000000;     BAS[ATNO][  1].d[ 37] =        -0.000060984260;
  BAS[ATNO][  1].a[ 38] =      2643.487700000000;     BAS[ATNO][  1].d[ 38] =        -0.000165864929;
  BAS[ATNO][  1].a[ 39] =      1054.237500000000;     BAS[ATNO][  1].d[ 39] =        -0.000463763840;
  BAS[ATNO][  1].a[ 40] =       429.371220000000;     BAS[ATNO][  1].d[ 40] =        -0.001281892997;
  BAS[ATNO][  1].a[ 41] =       177.188590000000;     BAS[ATNO][  1].d[ 41] =        -0.003154076766;
  BAS[ATNO][  1].a[ 42] =        73.763945000000;     BAS[ATNO][  1].d[ 42] =        -0.006551930588;
  BAS[ATNO][  1].a[ 43] =        30.897007000000;     BAS[ATNO][  1].d[ 43] =        -0.007115036501;
  BAS[ATNO][  1].a[ 44] =        12.999482000000;     BAS[ATNO][  1].d[ 44] =         0.005492637068;
  BAS[ATNO][  1].a[ 45] =         5.487679300000;     BAS[ATNO][  1].d[ 45] =         0.037188964218;
  BAS[ATNO][  1].a[ 46] =         2.322571600000;     BAS[ATNO][  1].d[ 46] =         0.039376687932;
  BAS[ATNO][  1].a[ 47] =         0.984980700000;     BAS[ATNO][  1].d[ 47] =        -0.038640041246;
  BAS[ATNO][  1].a[ 48] =         0.418397300000;     BAS[ATNO][  1].d[ 48] =        -0.076736404473;
  BAS[ATNO][  1].a[ 49] =         0.177959400000;     BAS[ATNO][  1].d[ 49] =        -0.028835687774;
  BAS[ATNO][  1].a[ 50] =         0.071183800000;     BAS[ATNO][  1].d[ 50] =        -0.000511566333;
  BAS[ATNO][  1].a[ 51] =    455476.770000000019;     BAS[ATNO][  1].d[ 51] =        -0.000003479970;
  BAS[ATNO][  1].a[ 52] =     64817.743000000002;     BAS[ATNO][  1].d[ 52] =        -0.000011008692;
  BAS[ATNO][  1].a[ 53] =     19256.987000000001;     BAS[ATNO][  1].d[ 53] =        -0.000023786930;
  BAS[ATNO][  1].a[ 54] =      6877.007300000000;     BAS[ATNO][  1].d[ 54] =        -0.000065154129;
  BAS[ATNO][  1].a[ 55] =      2643.487700000000;     BAS[ATNO][  1].d[ 55] =        -0.000177346972;
  BAS[ATNO][  1].a[ 56] =      1054.237500000000;     BAS[ATNO][  1].d[ 56] =        -0.000496381928;
  BAS[ATNO][  1].a[ 57] =       429.371220000000;     BAS[ATNO][  1].d[ 57] =        -0.001374462733;
  BAS[ATNO][  1].a[ 58] =       177.188590000000;     BAS[ATNO][  1].d[ 58] =        -0.003400656348;
  BAS[ATNO][  1].a[ 59] =        73.763945000000;     BAS[ATNO][  1].d[ 59] =        -0.007152080207;
  BAS[ATNO][  1].a[ 60] =        30.897007000000;     BAS[ATNO][  1].d[ 60] =        -0.007950252178;
  BAS[ATNO][  1].a[ 61] =        12.999482000000;     BAS[ATNO][  1].d[ 61] =         0.008698011474;
  BAS[ATNO][  1].a[ 62] =         5.487679300000;     BAS[ATNO][  1].d[ 62] =         0.041900361455;
  BAS[ATNO][  1].a[ 63] =         2.322571600000;     BAS[ATNO][  1].d[ 63] =         0.067125590915;
  BAS[ATNO][  1].a[ 64] =         0.984980700000;     BAS[ATNO][  1].d[ 64] =        -0.190972956272;
  BAS[ATNO][  1].a[ 65] =         0.418397300000;     BAS[ATNO][  1].d[ 65] =        -0.000268702807;
  BAS[ATNO][  1].a[ 66] =         0.177959400000;     BAS[ATNO][  1].d[ 66] =         0.119281098495;
  BAS[ATNO][  1].a[ 67] =         0.071183800000;     BAS[ATNO][  1].d[ 67] =         0.004621319497;

  // Basis function   3 L = s
  InitBFNGauss(BAS[ATNO][  2]);
  BAS[ATNO][  2].l  = 0;
  BAS[ATNO][  2].ng = 67;
  BAS[ATNO][  2].a[  0] =    455476.770000000019;     BAS[ATNO][  2].d[  0] =        -0.000004194179;
  BAS[ATNO][  2].a[  1] =     64817.743000000002;     BAS[ATNO][  2].d[  1] =        -0.000013264913;
  BAS[ATNO][  2].a[  2] =     19256.987000000001;     BAS[ATNO][  2].d[  2] =        -0.000028457108;
  BAS[ATNO][  2].a[  3] =      6877.007300000000;     BAS[ATNO][  2].d[  3] =        -0.000078189452;
  BAS[ATNO][  2].a[  4] =      2643.487700000000;     BAS[ATNO][  2].d[  4] =        -0.000208595945;
  BAS[ATNO][  2].a[  5] =      1054.237500000000;     BAS[ATNO][  2].d[  5] =        -0.000577566842;
  BAS[ATNO][  2].a[  6] =       429.371220000000;     BAS[ATNO][  2].d[  6] =        -0.001500864823;
  BAS[ATNO][  2].a[  7] =       177.188590000000;     BAS[ATNO][  2].d[  7] =        -0.003338829978;
  BAS[ATNO][  2].a[  8] =        73.763945000000;     BAS[ATNO][  2].d[  8] =        -0.005225056381;
  BAS[ATNO][  2].a[  9] =        30.897007000000;     BAS[ATNO][  2].d[  9] =        -0.003657743996;
  BAS[ATNO][  2].a[ 10] =        12.999482000000;     BAS[ATNO][  2].d[ 10] =        -0.000502673884;
  BAS[ATNO][  2].a[ 11] =         5.487679300000;     BAS[ATNO][  2].d[ 11] =        -0.000040892915;
  BAS[ATNO][  2].a[ 12] =         2.322571600000;     BAS[ATNO][  2].d[ 12] =         0.000018156548;
  BAS[ATNO][  2].a[ 13] =         0.984980700000;     BAS[ATNO][  2].d[ 13] =        -0.000013148474;
  BAS[ATNO][  2].a[ 14] =         0.418397300000;     BAS[ATNO][  2].d[ 14] =         0.000008433727;
  BAS[ATNO][  2].a[ 15] =         0.177959400000;     BAS[ATNO][  2].d[ 15] =        -0.000003698000;
  BAS[ATNO][  2].a[ 16] =    455476.770000000019;     BAS[ATNO][  2].d[ 16] =        -0.000013760129;
  BAS[ATNO][  2].a[ 17] =     64817.743000000002;     BAS[ATNO][  2].d[ 17] =        -0.000043579002;
  BAS[ATNO][  2].a[ 18] =     19256.987000000001;     BAS[ATNO][  2].d[ 18] =        -0.000093750178;
  BAS[ATNO][  2].a[ 19] =      6877.007300000000;     BAS[ATNO][  2].d[ 19] =        -0.000258441763;
  BAS[ATNO][  2].a[ 20] =      2643.487700000000;     BAS[ATNO][  2].d[ 20] =        -0.000696235744;
  BAS[ATNO][  2].a[ 21] =      1054.237500000000;     BAS[ATNO][  2].d[ 21] =        -0.001962899699;
  BAS[ATNO][  2].a[ 22] =       429.371220000000;     BAS[ATNO][  2].d[ 22] =        -0.005342791967;
  BAS[ATNO][  2].a[ 23] =       177.188590000000;     BAS[ATNO][  2].d[ 23] =        -0.013164887591;
  BAS[ATNO][  2].a[ 24] =        73.763945000000;     BAS[ATNO][  2].d[ 24] =        -0.026269011429;
  BAS[ATNO][  2].a[ 25] =        30.897007000000;     BAS[ATNO][  2].d[ 25] =        -0.027931892820;
  BAS[ATNO][  2].a[ 26] =        12.999482000000;     BAS[ATNO][  2].d[ 26] =         0.020582147095;
  BAS[ATNO][  2].a[ 27] =         5.487679300000;     BAS[ATNO][  2].d[ 27] =         0.095412695161;
  BAS[ATNO][  2].a[ 28] =         2.322571600000;     BAS[ATNO][  2].d[ 28] =         0.057430183770;
  BAS[ATNO][  2].a[ 29] =         0.984980700000;     BAS[ATNO][  2].d[ 29] =         0.000747917783;
  BAS[ATNO][  2].a[ 30] =         0.418397300000;     BAS[ATNO][  2].d[ 30] =         0.001763628142;
  BAS[ATNO][  2].a[ 31] =         0.177959400000;     BAS[ATNO][  2].d[ 31] =        -0.000669879077;
  BAS[ATNO][  2].a[ 32] =         0.071183800000;     BAS[ATNO][  2].d[ 32] =         0.000194122596;
  BAS[ATNO][  2].a[ 33] =    455476.770000000019;     BAS[ATNO][  2].d[ 33] =         0.000024357737;
  BAS[ATNO][  2].a[ 34] =     64817.743000000002;     BAS[ATNO][  2].d[ 34] =         0.000077075262;
  BAS[ATNO][  2].a[ 35] =     19256.987000000001;     BAS[ATNO][  2].d[ 35] =         0.000166417858;
  BAS[ATNO][  2].a[ 36] =      6877.007300000000;     BAS[ATNO][  2].d[ 36] =         0.000456056716;
  BAS[ATNO][  2].a[ 37] =      2643.487700000000;     BAS[ATNO][  2].d[ 37] =         0.001240382598;
  BAS[ATNO][  2].a[ 38] =      1054.237500000000;     BAS[ATNO][  2].d[ 38] =         0.003468150861;
  BAS[ATNO][  2].a[ 39] =       429.371220000000;     BAS[ATNO][  2].d[ 39] =         0.009586340976;
  BAS[ATNO][  2].a[ 40] =       177.188590000000;     BAS[ATNO][  2].d[ 40] =         0.023587035282;
  BAS[ATNO][  2].a[ 41] =        73.763945000000;     BAS[ATNO][  2].d[ 41] =         0.048997101023;
  BAS[ATNO][  2].a[ 42] =        30.897007000000;     BAS[ATNO][  2].d[ 42] =         0.053208158660;
  BAS[ATNO][  2].a[ 43] =        12.999482000000;     BAS[ATNO][  2].d[ 43] =        -0.041075418875;
  BAS[ATNO][  2].a[ 44] =         5.487679300000;     BAS[ATNO][  2].d[ 44] =        -0.278109087452;
  BAS[ATNO][  2].a[ 45] =         2.322571600000;     BAS[ATNO][  2].d[ 45] =        -0.294469474423;
  BAS[ATNO][  2].a[ 46] =         0.984980700000;     BAS[ATNO][  2].d[ 46] =         0.288960632159;
  BAS[ATNO][  2].a[ 47] =         0.418397300000;     BAS[ATNO][  2].d[ 47] =         0.573855493718;
  BAS[ATNO][  2].a[ 48] =         0.177959400000;     BAS[ATNO][  2].d[ 48] =         0.215641037103;
  BAS[ATNO][  2].a[ 49] =         0.071183800000;     BAS[ATNO][  2].d[ 49] =         0.003825630777;
  BAS[ATNO][  2].a[ 50] =    455476.770000000019;     BAS[ATNO][  2].d[ 50] =         0.000017652704;
  BAS[ATNO][  2].a[ 51] =     64817.743000000002;     BAS[ATNO][  2].d[ 51] =         0.000055843351;
  BAS[ATNO][  2].a[ 52] =     19256.987000000001;     BAS[ATNO][  2].d[ 52] =         0.000120663004;
  BAS[ATNO][  2].a[ 53] =      6877.007300000000;     BAS[ATNO][  2].d[ 53] =         0.000330504738;
  BAS[ATNO][  2].a[ 54] =      2643.487700000000;     BAS[ATNO][  2].d[ 54] =         0.000899620876;
  BAS[ATNO][  2].a[ 55] =      1054.237500000000;     BAS[ATNO][  2].d[ 55] =         0.002517976707;
  BAS[ATNO][  2].a[ 56] =       429.371220000000;     BAS[ATNO][  2].d[ 56] =         0.006972182009;
  BAS[ATNO][  2].a[ 57] =       177.188590000000;     BAS[ATNO][  2].d[ 57] =         0.017250373140;
  BAS[ATNO][  2].a[ 58] =        73.763945000000;     BAS[ATNO][  2].d[ 58] =         0.036280070571;
  BAS[ATNO][  2].a[ 59] =        30.897007000000;     BAS[ATNO][  2].d[ 59] =         0.040328925533;
  BAS[ATNO][  2].a[ 60] =        12.999482000000;     BAS[ATNO][  2].d[ 60] =        -0.044122054141;
  BAS[ATNO][  2].a[ 61] =         5.487679300000;     BAS[ATNO][  2].d[ 61] =        -0.212546283959;
  BAS[ATNO][  2].a[ 62] =         2.322571600000;     BAS[ATNO][  2].d[ 62] =        -0.340505294273;
  BAS[ATNO][  2].a[ 63] =         0.984980700000;     BAS[ATNO][  2].d[ 63] =         0.968740860040;
  BAS[ATNO][  2].a[ 64] =         0.418397300000;     BAS[ATNO][  2].d[ 64] =         0.001363037960;
  BAS[ATNO][  2].a[ 65] =         0.177959400000;     BAS[ATNO][  2].d[ 65] =        -0.605072446893;
  BAS[ATNO][  2].a[ 66] =         0.071183800000;     BAS[ATNO][  2].d[ 66] =        -0.023442382167;

  // Basis function   4 L = s
  InitBFNGauss(BAS[ATNO][  3]);
  BAS[ATNO][  3].l  = 0;
  BAS[ATNO][  3].ng = 67;
  BAS[ATNO][  3].a[  0] =    455476.770000000019;     BAS[ATNO][  3].d[  0] =        -0.000001573233;
  BAS[ATNO][  3].a[  1] =     64817.743000000002;     BAS[ATNO][  3].d[  1] =        -0.000004975657;
  BAS[ATNO][  3].a[  2] =     19256.987000000001;     BAS[ATNO][  3].d[  2] =        -0.000010674236;
  BAS[ATNO][  3].a[  3] =      6877.007300000000;     BAS[ATNO][  3].d[  3] =        -0.000029328793;
  BAS[ATNO][  3].a[  4] =      2643.487700000000;     BAS[ATNO][  3].d[  4] =        -0.000078244151;
  BAS[ATNO][  3].a[  5] =      1054.237500000000;     BAS[ATNO][  3].d[  5] =        -0.000216644803;
  BAS[ATNO][  3].a[  6] =       429.371220000000;     BAS[ATNO][  3].d[  6] =        -0.000562973045;
  BAS[ATNO][  3].a[  7] =       177.188590000000;     BAS[ATNO][  3].d[  7] =        -0.001252392121;
  BAS[ATNO][  3].a[  8] =        73.763945000000;     BAS[ATNO][  3].d[  8] =        -0.001959913947;
  BAS[ATNO][  3].a[  9] =        30.897007000000;     BAS[ATNO][  3].d[  9] =        -0.001372016482;
  BAS[ATNO][  3].a[ 10] =        12.999482000000;     BAS[ATNO][  3].d[ 10] =        -0.000188552521;
  BAS[ATNO][  3].a[ 11] =         5.487679300000;     BAS[ATNO][  3].d[ 11] =        -0.000015338896;
  BAS[ATNO][  3].a[ 12] =         2.322571600000;     BAS[ATNO][  3].d[ 12] =         0.000006810505;
  BAS[ATNO][  3].a[ 13] =         0.984980700000;     BAS[ATNO][  3].d[ 13] =        -0.000004931981;
  BAS[ATNO][  3].a[ 14] =         0.418397300000;     BAS[ATNO][  3].d[ 14] =         0.000003163483;
  BAS[ATNO][  3].a[ 15] =         0.177959400000;     BAS[ATNO][  3].d[ 15] =        -0.000001387116;
  BAS[ATNO][  3].a[ 16] =    455476.770000000019;     BAS[ATNO][  3].d[ 16] =        -0.000002556507;
  BAS[ATNO][  3].a[ 17] =     64817.743000000002;     BAS[ATNO][  3].d[ 17] =        -0.000008096582;
  BAS[ATNO][  3].a[ 18] =     19256.987000000001;     BAS[ATNO][  3].d[ 18] =        -0.000017417929;
  BAS[ATNO][  3].a[ 19] =      6877.007300000000;     BAS[ATNO][  3].d[ 19] =        -0.000048016125;
  BAS[ATNO][  3].a[ 20] =      2643.487700000000;     BAS[ATNO][  3].d[ 20] =        -0.000129354259;
  BAS[ATNO][  3].a[ 21] =      1054.237500000000;     BAS[ATNO][  3].d[ 21] =        -0.000364688884;
  BAS[ATNO][  3].a[ 22] =       429.371220000000;     BAS[ATNO][  3].d[ 22] =        -0.000992642081;
  BAS[ATNO][  3].a[ 23] =       177.188590000000;     BAS[ATNO][  3].d[ 23] =        -0.002445916199;
  BAS[ATNO][  3].a[ 24] =        73.763945000000;     BAS[ATNO][  3].d[ 24] =        -0.004880543045;
  BAS[ATNO][  3].a[ 25] =        30.897007000000;     BAS[ATNO][  3].d[ 25] =        -0.005189491261;
  BAS[ATNO][  3].a[ 26] =        12.999482000000;     BAS[ATNO][  3].d[ 26] =         0.003823975452;
  BAS[ATNO][  3].a[ 27] =         5.487679300000;     BAS[ATNO][  3].d[ 27] =         0.017726809669;
  BAS[ATNO][  3].a[ 28] =         2.322571600000;     BAS[ATNO][  3].d[ 28] =         0.010670005026;
  BAS[ATNO][  3].a[ 29] =         0.984980700000;     BAS[ATNO][  3].d[ 29] =         0.000138956311;
  BAS[ATNO][  3].a[ 30] =         0.418397300000;     BAS[ATNO][  3].d[ 30] =         0.000327666044;
  BAS[ATNO][  3].a[ 31] =         0.177959400000;     BAS[ATNO][  3].d[ 31] =        -0.000124457431;
  BAS[ATNO][  3].a[ 32] =         0.071183800000;     BAS[ATNO][  3].d[ 32] =         0.000036066210;
  BAS[ATNO][  3].a[ 33] =    455476.770000000019;     BAS[ATNO][  3].d[ 33] =        -0.000015221652;
  BAS[ATNO][  3].a[ 34] =     64817.743000000002;     BAS[ATNO][  3].d[ 34] =        -0.000048165920;
  BAS[ATNO][  3].a[ 35] =     19256.987000000001;     BAS[ATNO][  3].d[ 35] =        -0.000103997951;
  BAS[ATNO][  3].a[ 36] =      6877.007300000000;     BAS[ATNO][  3].d[ 36] =        -0.000284999245;
  BAS[ATNO][  3].a[ 37] =      2643.487700000000;     BAS[ATNO][  3].d[ 37] =        -0.000775140661;
  BAS[ATNO][  3].a[ 38] =      1054.237500000000;     BAS[ATNO][  3].d[ 38] =        -0.002167318982;
  BAS[ATNO][  3].a[ 39] =       429.371220000000;     BAS[ATNO][  3].d[ 39] =        -0.005990702134;
  BAS[ATNO][  3].a[ 40] =       177.188590000000;     BAS[ATNO][  3].d[ 40] =        -0.014740024682;
  BAS[ATNO][  3].a[ 41] =        73.763945000000;     BAS[ATNO][  3].d[ 41] =        -0.030619298688;
  BAS[ATNO][  3].a[ 42] =        30.897007000000;     BAS[ATNO][  3].d[ 42] =        -0.033250875432;
  BAS[ATNO][  3].a[ 43] =        12.999482000000;     BAS[ATNO][  3].d[ 43] =         0.025668876178;
  BAS[ATNO][  3].a[ 44] =         5.487679300000;     BAS[ATNO][  3].d[ 44] =         0.173796103008;
  BAS[ATNO][  3].a[ 45] =         2.322571600000;     BAS[ATNO][  3].d[ 45] =         0.184020046157;
  BAS[ATNO][  3].a[ 46] =         0.984980700000;     BAS[ATNO][  3].d[ 46] =        -0.180577457041;
  BAS[ATNO][  3].a[ 47] =         0.418397300000;     BAS[ATNO][  3].d[ 47] =        -0.358614130202;
  BAS[ATNO][  3].a[ 48] =         0.177959400000;     BAS[ATNO][  3].d[ 48] =        -0.134758530332;
  BAS[ATNO][  3].a[ 49] =         0.071183800000;     BAS[ATNO][  3].d[ 49] =        -0.002390715552;
  BAS[ATNO][  3].a[ 50] =    455476.770000000019;     BAS[ATNO][  3].d[ 50] =         0.000029008432;
  BAS[ATNO][  3].a[ 51] =     64817.743000000002;     BAS[ATNO][  3].d[ 51] =         0.000091766568;
  BAS[ATNO][  3].a[ 52] =     19256.987000000001;     BAS[ATNO][  3].d[ 52] =         0.000198283763;
  BAS[ATNO][  3].a[ 53] =      6877.007300000000;     BAS[ATNO][  3].d[ 53] =         0.000543113638;
  BAS[ATNO][  3].a[ 54] =      2643.487700000000;     BAS[ATNO][  3].d[ 54] =         0.001478333926;
  BAS[ATNO][  3].a[ 55] =      1054.237500000000;     BAS[ATNO][  3].d[ 55] =         0.004137754569;
  BAS[ATNO][  3].a[ 56] =       429.371220000000;     BAS[ATNO][  3].d[ 56] =         0.011457285480;
  BAS[ATNO][  3].a[ 57] =       177.188590000000;     BAS[ATNO][  3].d[ 57] =         0.028347287760;
  BAS[ATNO][  3].a[ 58] =        73.763945000000;     BAS[ATNO][  3].d[ 58] =         0.059618513296;
  BAS[ATNO][  3].a[ 59] =        30.897007000000;     BAS[ATNO][  3].d[ 59] =         0.066271937877;
  BAS[ATNO][  3].a[ 60] =        12.999482000000;     BAS[ATNO][  3].d[ 60] =        -0.072505131054;
  BAS[ATNO][  3].a[ 61] =         5.487679300000;     BAS[ATNO][  3].d[ 61] =        -0.349274222917;
  BAS[ATNO][  3].a[ 62] =         2.322571600000;     BAS[ATNO][  3].d[ 62] =        -0.559547406997;
  BAS[ATNO][  3].a[ 63] =         0.984980700000;     BAS[ATNO][  3].d[ 63] =         1.591917792190;
  BAS[ATNO][  3].a[ 64] =         0.418397300000;     BAS[ATNO][  3].d[ 64] =         0.002239860493;
  BAS[ATNO][  3].a[ 65] =         0.177959400000;     BAS[ATNO][  3].d[ 65] =        -0.994306768203;
  BAS[ATNO][  3].a[ 66] =         0.071183800000;     BAS[ATNO][  3].d[ 66] =        -0.038522526304;

  // Basis function   5 L = p
  InitBFNGauss(BAS[ATNO][  4]);
  BAS[ATNO][  4].l  = 1;
  BAS[ATNO][  4].ng = 36;
  BAS[ATNO][  4].a[  0] =      1462.496200000000;     BAS[ATNO][  4].d[  0] =         0.000951943310;
  BAS[ATNO][  4].a[  1] =       354.067310000000;     BAS[ATNO][  4].d[  1] =         0.006142958603;
  BAS[ATNO][  4].a[  2] =       126.697790000000;     BAS[ATNO][  4].d[  2] =         0.025493679058;
  BAS[ATNO][  4].a[  3] =        49.989095000000;     BAS[ATNO][  4].d[  3] =         0.092028477907;
  BAS[ATNO][  4].a[  4] =        20.509295000000;     BAS[ATNO][  4].d[  4] =         0.241418609633;
  BAS[ATNO][  4].a[  5] =         8.580464100000;     BAS[ATNO][  4].d[  5] =         0.412023639179;
  BAS[ATNO][  4].a[  6] =         3.630104900000;     BAS[ATNO][  4].d[  6] =         0.340593833194;
  BAS[ATNO][  4].a[  7] =         1.546528000000;     BAS[ATNO][  4].d[  7] =         0.072171266482;
  BAS[ATNO][  4].a[  8] =         0.661936900000;     BAS[ATNO][  4].d[  8] =         0.003477875629;
  BAS[ATNO][  4].a[  9] =         0.284242800000;     BAS[ATNO][  4].d[  9] =         0.000287377432;
  BAS[ATNO][  4].a[ 10] =         0.122346300000;     BAS[ATNO][  4].d[ 10] =         0.000471166360;
  BAS[ATNO][  4].a[ 11] =         0.048938500000;     BAS[ATNO][  4].d[ 11] =        -0.000084585071;
  BAS[ATNO][  4].a[ 12] =      1462.496200000000;     BAS[ATNO][  4].d[ 12] =         0.000028802668;
  BAS[ATNO][  4].a[ 13] =       354.067310000000;     BAS[ATNO][  4].d[ 13] =         0.000186632135;
  BAS[ATNO][  4].a[ 14] =       126.697790000000;     BAS[ATNO][  4].d[ 14] =         0.000781067289;
  BAS[ATNO][  4].a[ 15] =        49.989095000000;     BAS[ATNO][  4].d[ 15] =         0.002880095431;
  BAS[ATNO][  4].a[ 16] =        20.509295000000;     BAS[ATNO][  4].d[ 16] =         0.007804922180;
  BAS[ATNO][  4].a[ 17] =         8.580464100000;     BAS[ATNO][  4].d[ 17] =         0.013997139479;
  BAS[ATNO][  4].a[ 18] =         3.630104900000;     BAS[ATNO][  4].d[ 18] =         0.011570011515;
  BAS[ATNO][  4].a[ 19] =         1.546528000000;     BAS[ATNO][  4].d[ 19] =        -0.016989349206;
  BAS[ATNO][  4].a[ 20] =         0.661936900000;     BAS[ATNO][  4].d[ 20] =        -0.046896109861;
  BAS[ATNO][  4].a[ 21] =         0.284242800000;     BAS[ATNO][  4].d[ 21] =        -0.043018220701;
  BAS[ATNO][  4].a[ 22] =         0.122346300000;     BAS[ATNO][  4].d[ 22] =        -0.015387567853;
  BAS[ATNO][  4].a[ 23] =         0.048938500000;     BAS[ATNO][  4].d[ 23] =        -0.000709569540;
  BAS[ATNO][  4].a[ 24] =      1462.496200000000;     BAS[ATNO][  4].d[ 24] =         0.000032595574;
  BAS[ATNO][  4].a[ 25] =       354.067310000000;     BAS[ATNO][  4].d[ 25] =         0.000198263331;
  BAS[ATNO][  4].a[ 26] =       126.697790000000;     BAS[ATNO][  4].d[ 26] =         0.000902395774;
  BAS[ATNO][  4].a[ 27] =        49.989095000000;     BAS[ATNO][  4].d[ 27] =         0.003070681924;
  BAS[ATNO][  4].a[ 28] =        20.509295000000;     BAS[ATNO][  4].d[ 28] =         0.009319293278;
  BAS[ATNO][  4].a[ 29] =         8.580464100000;     BAS[ATNO][  4].d[ 29] =         0.013934916936;
  BAS[ATNO][  4].a[ 30] =         3.630104900000;     BAS[ATNO][  4].d[ 30] =         0.017004672419;
  BAS[ATNO][  4].a[ 31] =         1.546528000000;     BAS[ATNO][  4].d[ 31] =        -0.043613087721;
  BAS[ATNO][  4].a[ 32] =         0.661936900000;     BAS[ATNO][  4].d[ 32] =        -0.071274680303;
  BAS[ATNO][  4].a[ 33] =         0.284242800000;     BAS[ATNO][  4].d[ 33] =         0.049450633213;
  BAS[ATNO][  4].a[ 34] =         0.122346300000;     BAS[ATNO][  4].d[ 34] =         0.058582147600;
  BAS[ATNO][  4].a[ 35] =         0.048938500000;     BAS[ATNO][  4].d[ 35] =         0.006029599818;

  // Basis function   6 L = p
  InitBFNGauss(BAS[ATNO][  5]);
  BAS[ATNO][  5].l  = 1;
  BAS[ATNO][  5].ng = 36;
  BAS[ATNO][  5].a[  0] =      1462.496200000000;     BAS[ATNO][  5].d[  0] =         0.000135627471;
  BAS[ATNO][  5].a[  1] =       354.067310000000;     BAS[ATNO][  5].d[  1] =         0.000875213819;
  BAS[ATNO][  5].a[  2] =       126.697790000000;     BAS[ATNO][  5].d[  2] =         0.003632194461;
  BAS[ATNO][  5].a[  3] =        49.989095000000;     BAS[ATNO][  5].d[  3] =         0.013111694353;
  BAS[ATNO][  5].a[  4] =        20.509295000000;     BAS[ATNO][  5].d[  4] =         0.034395951044;
  BAS[ATNO][  5].a[  5] =         8.580464100000;     BAS[ATNO][  5].d[  5] =         0.058702785769;
  BAS[ATNO][  5].a[  6] =         3.630104900000;     BAS[ATNO][  5].d[  6] =         0.048525873089;
  BAS[ATNO][  5].a[  7] =         1.546528000000;     BAS[ATNO][  5].d[  7] =         0.010282551757;
  BAS[ATNO][  5].a[  8] =         0.661936900000;     BAS[ATNO][  5].d[  8] =         0.000495507948;
  BAS[ATNO][  5].a[  9] =         0.284242800000;     BAS[ATNO][  5].d[  9] =         0.000040943903;
  BAS[ATNO][  5].a[ 10] =         0.122346300000;     BAS[ATNO][  5].d[ 10] =         0.000067129104;
  BAS[ATNO][  5].a[ 11] =         0.048938500000;     BAS[ATNO][  5].d[ 11] =        -0.000012051200;
  BAS[ATNO][  5].a[ 12] =      1462.496200000000;     BAS[ATNO][  5].d[ 12] =        -0.000226324061;
  BAS[ATNO][  5].a[ 13] =       354.067310000000;     BAS[ATNO][  5].d[ 13] =        -0.001466507984;
  BAS[ATNO][  5].a[ 14] =       126.697790000000;     BAS[ATNO][  5].d[ 14] =        -0.006137428661;
  BAS[ATNO][  5].a[ 15] =        49.989095000000;     BAS[ATNO][  5].d[ 15] =        -0.022631059438;
  BAS[ATNO][  5].a[ 16] =        20.509295000000;     BAS[ATNO][  5].d[ 16] =        -0.061329098990;
  BAS[ATNO][  5].a[ 17] =         8.580464100000;     BAS[ATNO][  5].d[ 17] =        -0.109985972035;
  BAS[ATNO][  5].a[ 18] =         3.630104900000;     BAS[ATNO][  5].d[ 18] =        -0.090914216067;
  BAS[ATNO][  5].a[ 19] =         1.546528000000;     BAS[ATNO][  5].d[ 19] =         0.133497997183;
  BAS[ATNO][  5].a[ 20] =         0.661936900000;     BAS[ATNO][  5].d[ 20] =         0.368497737384;
  BAS[ATNO][  5].a[ 21] =         0.284242800000;     BAS[ATNO][  5].d[ 21] =         0.338026267883;
  BAS[ATNO][  5].a[ 22] =         0.122346300000;     BAS[ATNO][  5].d[ 22] =         0.120911605553;
  BAS[ATNO][  5].a[ 23] =         0.048938500000;     BAS[ATNO][  5].d[ 23] =         0.005575617486;
  BAS[ATNO][  5].a[ 24] =      1462.496200000000;     BAS[ATNO][  5].d[ 24] =        -0.000185428792;
  BAS[ATNO][  5].a[ 25] =       354.067310000000;     BAS[ATNO][  5].d[ 25] =        -0.001127874916;
  BAS[ATNO][  5].a[ 26] =       126.697790000000;     BAS[ATNO][  5].d[ 26] =        -0.005133523949;
  BAS[ATNO][  5].a[ 27] =        49.989095000000;     BAS[ATNO][  5].d[ 27] =        -0.017468409811;
  BAS[ATNO][  5].a[ 28] =        20.509295000000;     BAS[ATNO][  5].d[ 28] =        -0.053015336061;
  BAS[ATNO][  5].a[ 29] =         8.580464100000;     BAS[ATNO][  5].d[ 29] =        -0.079272567382;
  BAS[ATNO][  5].a[ 30] =         3.630104900000;     BAS[ATNO][  5].d[ 30] =        -0.096735706879;
  BAS[ATNO][  5].a[ 31] =         1.546528000000;     BAS[ATNO][  5].d[ 31] =         0.248104918814;
  BAS[ATNO][  5].a[ 32] =         0.661936900000;     BAS[ATNO][  5].d[ 32] =         0.405465416327;
  BAS[ATNO][  5].a[ 33] =         0.284242800000;     BAS[ATNO][  5].d[ 33] =        -0.281313385032;
  BAS[ATNO][  5].a[ 34] =         0.122346300000;     BAS[ATNO][  5].d[ 34] =        -0.333260489766;
  BAS[ATNO][  5].a[ 35] =         0.048938500000;     BAS[ATNO][  5].d[ 35] =        -0.034301019520;

  // Basis function   7 L = p
  InitBFNGauss(BAS[ATNO][  6]);
  BAS[ATNO][  6].l  = 1;
  BAS[ATNO][  6].ng = 35;
  BAS[ATNO][  6].a[  0] =      1462.496200000000;     BAS[ATNO][  6].d[  0] =         0.000021192473;
  BAS[ATNO][  6].a[  1] =       354.067310000000;     BAS[ATNO][  6].d[  1] =         0.000136756549;
  BAS[ATNO][  6].a[  2] =       126.697790000000;     BAS[ATNO][  6].d[  2] =         0.000567548602;
  BAS[ATNO][  6].a[  3] =        49.989095000000;     BAS[ATNO][  6].d[  3] =         0.002048768005;
  BAS[ATNO][  6].a[  4] =        20.509295000000;     BAS[ATNO][  6].d[  4] =         0.005374539864;
  BAS[ATNO][  6].a[  5] =         8.580464100000;     BAS[ATNO][  6].d[  5] =         0.009172604701;
  BAS[ATNO][  6].a[  6] =         3.630104900000;     BAS[ATNO][  6].d[  6] =         0.007582411052;
  BAS[ATNO][  6].a[  7] =         1.546528000000;     BAS[ATNO][  6].d[  7] =         0.001606700284;
  BAS[ATNO][  6].a[  8] =         0.661936900000;     BAS[ATNO][  6].d[  8] =         0.000077425602;
  BAS[ATNO][  6].a[  9] =         0.284242800000;     BAS[ATNO][  6].d[  9] =         0.000006397690;
  BAS[ATNO][  6].a[ 10] =         0.122346300000;     BAS[ATNO][  6].d[ 10] =         0.000010489259;
  BAS[ATNO][  6].a[ 11] =      1462.496200000000;     BAS[ATNO][  6].d[ 11] =         0.000154642203;
  BAS[ATNO][  6].a[ 12] =       354.067310000000;     BAS[ATNO][  6].d[ 12] =         0.001002032327;
  BAS[ATNO][  6].a[ 13] =       126.697790000000;     BAS[ATNO][  6].d[ 13] =         0.004193568661;
  BAS[ATNO][  6].a[ 14] =        49.989095000000;     BAS[ATNO][  6].d[ 14] =         0.015463300163;
  BAS[ATNO][  6].a[ 15] =        20.509295000000;     BAS[ATNO][  6].d[ 15] =         0.041904810907;
  BAS[ATNO][  6].a[ 16] =         8.580464100000;     BAS[ATNO][  6].d[ 16] =         0.075150971341;
  BAS[ATNO][  6].a[ 17] =         3.630104900000;     BAS[ATNO][  6].d[ 17] =         0.062119664169;
  BAS[ATNO][  6].a[ 18] =         1.546528000000;     BAS[ATNO][  6].d[ 18] =        -0.091216215802;
  BAS[ATNO][  6].a[ 19] =         0.661936900000;     BAS[ATNO][  6].d[ 19] =        -0.251786317737;
  BAS[ATNO][  6].a[ 20] =         0.284242800000;     BAS[ATNO][  6].d[ 20] =        -0.230965839554;
  BAS[ATNO][  6].a[ 21] =         0.122346300000;     BAS[ATNO][  6].d[ 21] =        -0.082616214010;
  BAS[ATNO][  6].a[ 22] =         0.048938500000;     BAS[ATNO][  6].d[ 22] =        -0.003809695565;
  BAS[ATNO][  6].a[ 23] =      1462.496200000000;     BAS[ATNO][  6].d[ 23] =        -0.000277452306;
  BAS[ATNO][  6].a[ 24] =       354.067310000000;     BAS[ATNO][  6].d[ 24] =        -0.001687610061;
  BAS[ATNO][  6].a[ 25] =       126.697790000000;     BAS[ATNO][  6].d[ 25] =        -0.007681159093;
  BAS[ATNO][  6].a[ 26] =        49.989095000000;     BAS[ATNO][  6].d[ 26] =        -0.026137529733;
  BAS[ATNO][  6].a[ 27] =        20.509295000000;     BAS[ATNO][  6].d[ 27] =        -0.079325475966;
  BAS[ATNO][  6].a[ 28] =         8.580464100000;     BAS[ATNO][  6].d[ 28] =        -0.118613491978;
  BAS[ATNO][  6].a[ 29] =         3.630104900000;     BAS[ATNO][  6].d[ 29] =        -0.144743135877;
  BAS[ATNO][  6].a[ 30] =         1.546528000000;     BAS[ATNO][  6].d[ 30] =         0.371232972127;
  BAS[ATNO][  6].a[ 31] =         0.661936900000;     BAS[ATNO][  6].d[ 31] =         0.606687414007;
  BAS[ATNO][  6].a[ 32] =         0.284242800000;     BAS[ATNO][  6].d[ 32] =        -0.420921941103;
  BAS[ATNO][  6].a[ 33] =         0.122346300000;     BAS[ATNO][  6].d[ 33] =        -0.498649050166;
  BAS[ATNO][  6].a[ 34] =         0.048938500000;     BAS[ATNO][  6].d[ 34] =        -0.051323728221;

  // Basis function   8 L = d
  InitBFNGauss(BAS[ATNO][  7]);
  BAS[ATNO][  7].l  = 2;
  BAS[ATNO][  7].ng = 5;
  BAS[ATNO][  7].a[  0] =         4.328841700000;     BAS[ATNO][  7].d[  0] =         0.027886140074;
  BAS[ATNO][  7].a[  1] =         1.774230200000;     BAS[ATNO][  7].d[  1] =         0.193753660516;
  BAS[ATNO][  7].a[  2] =         0.727190600000;     BAS[ATNO][  7].d[  2] =         0.602274991605;
  BAS[ATNO][  7].a[  3] =         0.298048200000;     BAS[ATNO][  7].d[  3] =         0.305103490813;
  BAS[ATNO][  7].a[  4] =         0.119219300000;     BAS[ATNO][  7].d[  4] =         0.028800580077;

-------
TIMINGS
-------

Total SCF time: 0 days 0 hours 0 min 3 sec 

Total time                  ....       3.598 sec
Sum of individual times     ....       3.331 sec  ( 92.6%)

Fock matrix formation       ....       2.859 sec  ( 79.4%)
  XC integration            ....       0.020 sec  (  0.7% of F)
    Basis function eval.    ....       0.006 sec  ( 30.7% of XC)
    Density eval.           ....       0.001 sec  (  3.0% of XC)
    XC-Functional eval.     ....       0.001 sec  (  6.5% of XC)
    XC-Potential eval.      ....       0.000 sec  (  1.4% of XC)
Diagonalization             ....       0.000 sec  (  0.0%)
Density matrix formation    ....       0.000 sec  (  0.0%)
Population analysis         ....       0.000 sec  (  0.0%)
Initial guess               ....       0.096 sec  (  2.7%)
Orbital Transformation      ....       0.000 sec  (  0.0%)
Orbital Orthonormalization  ....       0.000 sec  (  0.0%)
DIIS solution               ....       0.000 sec  (  0.0%)
SOSCF solution              ....       0.000 sec  (  0.0%)
Grid generation             ....       0.375 sec  ( 10.4%)

-------------------------   --------------------
FINAL SINGLE POINT ENERGY      -349.532628672221
-------------------------   --------------------


                            ***************************************
                            *     ORCA property calculations      *
                            ***************************************

                                    ---------------------
                                    Active property flags
                                    ---------------------
   (+) Dipole Moment


------------------------------------------------------------------------------
                       ORCA ELECTRIC PROPERTIES CALCULATION
------------------------------------------------------------------------------

Dipole Moment Calculation                       ... on
Quadrupole Moment Calculation                   ... off
Polarizability Calculation                      ... off
GBWName                                         ... Ar_ano-rcc-dzp_34.25899725_.gbw
Electron density file                           ... Ar_ano-rcc-dzp_34.25899725_.scfp
The origin for moment calculation is the CENTER OF MASS  = ( 0.000000,  0.000000  0.000000)

-------------
DIPOLE MOMENT
-------------
                                X             Y             Z
Electronic contribution:     -0.00000       0.00000      -0.00000
Nuclear contribution   :      0.00000       0.00000       0.00000
                        -----------------------------------------
Total Dipole Moment    :     -0.00000       0.00000      -0.00000
                        -----------------------------------------
Magnitude (a.u.)       :      0.00000
Magnitude (Debye)      :      0.00000



--------------------
Rotational spectrum 
--------------------
 
Rotational constants in cm-1:     0.000000     0.000000     0.000000 
Rotational constants in MHz :     0.000000     0.000000     0.000000 

 Dipole components along the rotational axes: 
x,y,z [a.u.] :    -0.000000     0.000000    -0.000000 
x,y,z [Debye]:    -0.000000     0.000000    -0.000000 

 

Timings for individual modules:

Sum of individual times         ...        4.615 sec (=   0.077 min)
GTO integral calculation        ...        0.362 sec (=   0.006 min)   7.8 %
Relativistic integrals          ...        0.375 sec (=   0.006 min)   8.1 %
SCF iterations                  ...        3.879 sec (=   0.065 min)  84.0 %
                             ****ORCA TERMINATED NORMALLY****
TOTAL RUN TIME: 0 days 0 hours 0 minutes 4 seconds 975 msec
