
                                 *****************
                                 * O   R   C   A *
                                 *****************

           --- An Ab Initio, DFT and Semiempirical electronic structure package ---

                  #######################################################
                  #                        -***-                        #
                  #          Department of theory and spectroscopy      #
                  #               Directorship: Frank Neese             #
                  #        Max Planck Institute fuer Kohlenforschung    #
                  #                Kaiser Wilhelm Platz 1               #
                  #                 D-45470 Muelheim/Ruhr               #
                  #                      Germany                        #
                  #                                                     #
                  #                  All rights reserved                #
                  #                        -***-                        #
                  #######################################################


                         Program Version 4.2.1 -  RELEASE  -


 With contributions from (in alphabetic order):
   Daniel Aravena         : Magnetic Suceptibility
   Michael Atanasov       : Ab Initio Ligand Field Theory (pilot matlab implementation)
   Alexander A. Auer      : GIAO ZORA, VPT2
   Ute Becker             : Parallelization
   Giovanni Bistoni       : ED, misc. LED, open-shell LED, HFLD
   Martin Brehm           : Molecular dynamics
   Dmytro Bykov           : SCF Hessian
   Vijay G. Chilkuri      : MRCI spin determinant printing, contributions to CSF-ICE
   Dipayan Datta          : RHF DLPNO-CCSD density
   Achintya Kumar Dutta   : EOM-CC, STEOM-CC
   Dmitry Ganyushin       : Spin-Orbit,Spin-Spin,Magnetic field MRCI
   Miquel Garcia          : C-PCM Hessian, Gaussian charge scheme
   Yang Guo               : DLPNO-NEVPT2, CIM, IAO-localization
   Andreas Hansen         : Spin unrestricted coupled pair/coupled cluster methods
   Benjamin Helmich-Paris : CASSCF linear response (MC-RPA)
   Lee Huntington         : MR-EOM, pCC
   Robert Izsak           : Overlap fitted RIJCOSX, COSX-SCS-MP3, EOM
   Christian Kollmar      : KDIIS, OOCD, Brueckner-CCSD(T), CCSD density
   Simone Kossmann        : Meta GGA functionals, TD-DFT gradient, OOMP2, MP2 Hessian
   Martin Krupicka        : AUTO-CI
   Lucas Lang             : DCDCAS
   Dagmar Lenk            : GEPOL surface, SMD
   Dimitrios Liakos       : Extrapolation schemes; Compound Job, initial MDCI parallelization
   Dimitrios Manganas     : Further ROCIS development; embedding schemes
   Dimitrios Pantazis     : SARC Basis sets
   Taras Petrenko         : DFT Hessian,TD-DFT gradient, ASA, ECA, R-Raman, ABS, FL, XAS/XES, NRVS
   Peter Pinski           : DLPNO-MP2, DLPNO-MP2 Gradient
   Christoph Reimann      : Effective Core Potentials
   Marius Retegan         : Local ZFS, SOC
   Christoph Riplinger    : Optimizer, TS searches, QM/MM, DLPNO-CCSD(T), (RO)-DLPNO pert. Triples
   Tobias Risthaus        : Range-separated hybrids, TD-DFT gradient, RPA, STAB
   Michael Roemelt        : Original ROCIS implementation
   Masaaki Saitow         : Open-shell DLPNO-CCSD energy and density
   Barbara Sandhoefer     : DKH picture change effects
   Avijit Sen             : IP-ROCIS
   Kantharuban Sivalingam : CASSCF convergence, NEVPT2, FIC-MRCI
   Bernardo de Souza      : ESD, SOC TD-DFT
   Georgi Stoychev        : AutoAux, RI-MP2 NMR
   Willem Van den Heuvel  : Paramagnetic NMR
   Boris Wezisla          : Elementary symmetry handling
   Frank Wennmohs         : Technical directorship


 We gratefully acknowledge several colleagues who have allowed us to
 interface, adapt or use parts of their codes:
   Stefan Grimme, W. Hujo, H. Kruse,             : VdW corrections, initial TS optimization,
                  C. Bannwarth                     DFT functionals, gCP, sTDA/sTD-DF
   Ed Valeev, F. Pavosevic, A. Kumar             : LibInt (2-el integral package), F12 methods
   Garnet Chan, S. Sharma, J. Yang, R. Olivares  : DMRG
   Ulf Ekstrom                                   : XCFun DFT Library
   Mihaly Kallay                                 : mrcc  (arbitrary order and MRCC methods)
   Andreas Klamt, Michael Diedenhofen            : otool_cosmo (COSMO solvation model)
   Jiri Pittner, Ondrej Demel                    : Mk-CCSD
   Frank Weinhold                                : gennbo (NPA and NBO analysis)
   Christopher J. Cramer and Donald G. Truhlar   : smd solvation model
   Lars Goerigk                                  : TD-DFT with DH, B97 family of functionals
   V. Asgeirsson, H. Jonsson                     : NEB implementation
   FAccTs GmbH                                   : IRC, NEB, NEB-TS, Multilevel, MM, QM/MM, CI optimization
   S Lehtola, MJT Oliveira, MAL Marques          : LibXC Library


 Your calculation uses the libint2 library for the computation of 2-el integrals
 For citations please refer to: http://libint.valeyev.net

 Your ORCA version has been built with support for libXC version: 4.2.3
 For citations please refer to: https://tddft.org/programs/libxc/

 This ORCA versions uses:
   CBLAS   interface :  Fast vector & matrix operations
   LAPACKE interface :  Fast linear algebra routines
   SCALAPACK package :  Parallel linear algebra routines


----- Orbital basis set information -----
Your calculation utilizes the basis: ANO-RCC-TZP
   H, He:       P.-O. Widmark, P.-A. Malmqvist, and B. O. Roos, Theor. Chim. Acta 77, 291 (1990).
   s block:     B. O. Roos, V. Veryazov and P.-O. Widmark, Theor. Chem. Acc. 111, 345 (2004).
   p block:     B. O. Roos, R. Lindh, P.-A. Malmqvist, V. Veryazov, and P.-O. Widmark, J. Phys. Chem. A 108, 2851 (2004).
   d block:     B. O. Roos, R. Lindh, P.-A. Malmqvist, V. Veryazov, and P.-O. Widmark, J. Phys. Chem. A 109, 6575 (2005).
   actinides:   B. O. Roos, R. Lindh, P.-A. Malmqvist, V. Veryazov, and P.-O. Widmark, Chem. Phys. Letters 409, 295 (2005).
   lanthanides: B. O. Roos, R. Lindh, P.-A. Malmqvist, V. Veryazov, P.-O. Widmark and A. C. Borin, J. Phys. Chem. A 112, 11431 (2008).

================================================================================
                                        WARNINGS
                       Please study these warnings very carefully!
================================================================================


INFO   : the flag for use of LIBINT has been found!

================================================================================
                                       INPUT FILE
================================================================================
NAME = Ar_ano-rcc-tzp_274.071978_.inp
|  1> ! LDA ano-rcc-tzp nori grid5 finalgrid6 verytightscf
|  2> %Pal NProcs 18 End
|  3> 
|  4> % REL
|  5>   Method ZORA
|  6>   ModelPot 1, 0, 0, 0
|  7>   velit 274.071978
|  8> END
|  9> 
| 10> *xyz 16 1
| 11> Ar 0.0 0.0 0.0
| 12> **                         ****END OF INPUT****
================================================================================

                       ****************************
                       * Single Point Calculation *
                       ****************************

---------------------------------
CARTESIAN COORDINATES (ANGSTROEM)
---------------------------------
  Ar     0.000000    0.000000    0.000000

----------------------------
CARTESIAN COORDINATES (A.U.)
----------------------------
  NO LB      ZA    FRAG     MASS         X           Y           Z
   0 Ar   18.0000    0    39.948    0.000000    0.000000    0.000000

--------------------------------
INTERNAL COORDINATES (ANGSTROEM)
--------------------------------
 Ar     0   0   0     0.000000000000     0.00000000     0.00000000

---------------------------
INTERNAL COORDINATES (A.U.)
---------------------------
 Ar     0   0   0     0.000000000000     0.00000000     0.00000000

---------------------
BASIS SET INFORMATION
---------------------
There are 1 groups of distinct atoms

 Group   1 Type Ar  : 85s48p10d4f contracted to 5s4p2d1f pattern {1717171717/12121212/55/4}

Atom   0Ar   basis set group =>   1


           ************************************************************
           *        Program running with 18 parallel MPI-processes    *
           *              working on a common directory               *
           ************************************************************


------------------------------------------------------------------------------
                       ORCA GTO INTEGRAL CALCULATION
                     -- ANO INTEGRAL GENERATION BRANCH --
------------------------------------------------------------------------------


Gathering ANO information                         ... done
Calculation Information:
Number of atoms                                   ... 1
Number of basis functions                         ... 34
Highest angular momentum                          ... 3
Number of primitive shells                        ... 38
Total number of shells                            ... 12
Maximum number of shells                          ... 12

Getting memory                                    ... done
Making prescreening integrals                     ... done
Gathering atom contracted prescreening            ... done
Making one-electron integrals                     ... done

Timings:

Total time                                        ...    0.2 sec
Prescreening matrix                               ...    0.1 sec
One-electron matrix                               ...    0.0 sec
Two-index integrals + Cholesky                    ...    0.0 sec


           ************************************************************
           *        Program running with 18 parallel MPI-processes    *
           *              working on a common directory               *
           ************************************************************
------------------------------------------------------------------------------
                          ORCA RELATIVISTIC HAMILTONIAN
------------------------------------------------------------------------------

Relativistic Method            ... ZORA(MP)
Treatment of potential         ... Van Wuellen
Nucleus model                  ... Point Nucleus
Speed of light used            ... 274.07197800000000


            *************************************************
            *         ZERO ORDER REGULAR APPROXIMATION      *
            *                     ZORA(MP)                  *
            *            Programmed by FN according to      *
            *                   C. van Wuellen              *
            *       J. Chem. Phys. (1998) vol 109, 392-399  *
            *************************************************

Terms included in model potential: +V(e,N)
Basis function cutoff value   ... 1.000000e-12
Loading the fitted atomic densities  (DKH4)  ... done
Calculating the cutoffs                      ... done
Number of fit functions                      ... 15
Setting up the integration grid ... done


           ************************************************************
           *        Program running with 18 parallel MPI-processes    *
           *              working on a common directory               *
           ************************************************************
-------------------------------------------------------------------------------
                                 ORCA SCF
-------------------------------------------------------------------------------

------------
SCF SETTINGS
------------
Hamiltonian:
 Density Functional     Method          .... DFT(GTOs)
 Exchange Functional    Exchange        .... Slater
   X-Alpha parameter    XAlpha          ....  0.666667
 Correlation Functional Correlation     .... VWN-5
 Gradients option       PostSCFGGA      .... off
   Density functional embedding theory  .... OFF

Relativistic Settings:
 Scalar relativistic method             .... ZORA
 Speed of light used       Velit        ....       274.071978
Orbital energies will be scaled


General Settings:
 Integral files         IntName         .... Ar_ano-rcc-tzp_274.071978_
 Hartree-Fock type      HFTyp           .... RHF
 Total Charge           Charge          ....   16
 Multiplicity           Mult            ....    1
 Number of Electrons    NEL             ....    2
 Basis Dimension        Dim             ....   34
 Nuclear Repulsion      ENuc            ....      0.0000000000 Eh

Convergence Acceleration:
 DIIS                   CNVDIIS         .... on
   Start iteration      DIISMaxIt       ....    12
   Startup error        DIISStart       ....  0.200000
   # of expansion vecs  DIISMaxEq       ....     5
   Bias factor          DIISBfac        ....   1.050
   Max. coefficient     DIISMaxC        ....  10.000
 Newton-Raphson         CNVNR           .... off
 SOSCF                  CNVSOSCF        .... on
   Start iteration      SOSCFMaxIt      ....   150
   Startup grad/error   SOSCFStart      ....  0.003300
 Level Shifting         CNVShift        .... on
   Level shift para.    LevelShift      ....    0.2500
   Turn off err/grad.   ShiftErr        ....    0.0010
 Zerner damping         CNVZerner       .... off
 Static damping         CNVDamp         .... on
   Fraction old density DampFac         ....    0.7000
   Max. Damping (<1)    DampMax         ....    0.9800
   Min. Damping (>=0)   DampMin         ....    0.0000
   Turn off err/grad.   DampErr         ....    0.1000
 Fernandez-Rico         CNVRico         .... off

SCF Procedure:
 Maximum # iterations   MaxIter         ....   125
 SCF integral mode      SCFMode         .... Direct
   Integral package                     .... LIBINT
 Reset frequency        DirectResetFreq ....    20
 Integral Threshold     Thresh          ....  1.000e-12 Eh
 Primitive CutOff       TCut            ....  1.000e-14 Eh

Convergence Tolerance:
 Convergence Check Mode ConvCheckMode   .... Total+1el-Energy
 Convergence forced     ConvForced      .... 0
 Energy Change          TolE            ....  1.000e-09 Eh
 1-El. energy change                    ....  1.000e-06 Eh
 Orbital Gradient       TolG            ....  2.000e-06
 Orbital Rotation angle TolX            ....  2.000e-06
 DIIS Error             TolErr          ....  1.000e-08


Diagonalization of the overlap matrix:
Smallest eigenvalue                        ... 1.000e+00
Time for diagonalization                   ...    0.001 sec
Threshold for overlap eigenvalues          ... 1.000e-08
Number of eigenvalues below threshold      ... 0
Time for construction of square roots      ...    0.001 sec
Total time needed                          ...    0.002 sec

-------------------
DFT GRID GENERATION
-------------------

General Integration Accuracy     IntAcc      ...  5.010
Radial Grid Type                 RadialGrid  ... Gauss-Chebyshev
Angular Grid (max. acc.)         AngularGrid ... Lebedev-434
Angular grid pruning method      GridPruning ... 3 (G Style)
Weight generation scheme         WeightScheme... Becke
Basis function cutoff            BFCut       ...    1.0000e-12
Integration weight cutoff        WCut        ...    1.0000e-14
Grids for H and He will be reduced by one unit

# of grid points (after initial pruning)     ...  11992 (   0.0 sec)
# of grid points (after weights+screening)   ...  11992 (   0.0 sec)
Grid point division into batches done        ...    0.1 sec
Reduced shell lists constructed in    0.1 sec

Total number of grid points                  ...    11992
Total number of batches                      ...      188
Average number of points per batch           ...       63
Average number of grid points per atom       ...    11992
Average number of shells per batch           ...     6.67 (55.56%)
Average number of basis functions per batch  ...    16.33 (48.04%)
Average number of large shells per batch     ...     3.58 (53.75%)
Average number of large basis fcns per batch ...     9.08 (55.61%)
Maximum spatial batch extension              ...  18.71, 18.71, 18.71 au
Average spatial batch extension              ...   0.97,  0.98,  0.97 au

Time for grid setup =    0.157 sec

------------------------------
INITIAL GUESS: MODEL POTENTIAL
------------------------------
Loading ZORA relativistic densities                ... done
Calculating cut-offs                               ... done
Setting up the integral package                    ... done
Initializing the effective Hamiltonian             ... done
Starting the Coulomb interaction                   ... done (   0.0 sec)
Reading the grid                                   ... done
Mapping shells                                     ... done
Starting the XC term evaluation                    ... done (   0.0 sec)
  promolecular density results
     # of electrons  =     18.000000116
     EX              =    -28.047870263
     EC              =     -1.433252902
     EX+EC           =    -29.481123164
Transforming the Hamiltonian                       ... done (   0.0 sec)
Diagonalizing the Hamiltonian                      ... done (   0.0 sec)
Back transforming the eigenvectors                 ... done (   0.0 sec)
Now organizing SCF variables                       ... done
                      ------------------
                      INITIAL GUESS DONE (   0.2 sec)
                      ------------------
--------------
SCF ITERATIONS
--------------
ITER       Energy         Delta-E        Max-DP      RMS-DP      [F,P]     Damp
               ***  Starting incremental Fock matrix formation  ***
  0   -311.7886044584   0.000000000000 0.00514560  0.00016818  1.9163334 0.7000
                      *** Initiating the SOSCF procedure ***
                      *** Re-Reading the Fockian *** 
                      *** Removing any level shift *** 
ITER      Energy       Delta-E        Grad      Rot      Max-DP    RMS-DP
  1   -311.79506020  -0.0064557377  0.000328  0.000328  0.012004  0.000392
               *** Restarting incremental Fock matrix formation ***
  2   -311.81000032  -0.0149401259  0.005643  0.000050  0.000093  0.000003
  3   -311.81000100  -0.0000006769  0.000044  0.000000  0.000001  0.000000
                 **** Energy Check signals convergence ****
              ***Rediagonalizing the Fockian in SOSCF/NRSCF***

               *****************************************************
               *                     SUCCESS                       *
               *           SCF CONVERGED AFTER   4 CYCLES          *
               *****************************************************

Setting up the final grid:

General Integration Accuracy     IntAcc      ...  5.340
Radial Grid Type                 RadialGrid  ... Gauss-Chebyshev
Angular Grid (max. acc.)         AngularGrid ... Lebedev-590
Angular grid pruning method      GridPruning ... 3 (G Style)
Weight generation scheme         WeightScheme... Becke
Basis function cutoff            BFCut       ...    1.0000e-12
Integration weight cutoff        WCut        ...    1.0000e-14
Grids for H and He will be reduced by one unit

# of grid points (after initial pruning)     ...  18110 (   0.0 sec)
# of grid points (after weights+screening)   ...  18110 (   0.0 sec)
Grid point division into batches done        ...    0.2 sec
Reduced shell lists constructed in    0.2 sec

Total number of grid points                  ...    18110
Total number of batches                      ...      283
Average number of points per batch           ...       63
Average number of grid points per atom       ...    18110
Average number of shells per batch           ...     2.35 (19.61%)
Average number of basis functions per batch  ...     5.88 (17.30%)
Average number of large shells per batch     ...     1.18 (50.00%)
Average number of large basis fcns per batch ...     3.53 (60.00%)
Maximum spatial batch extension              ...  19.03, 19.03, 19.03 au
Average spatial batch extension              ...   0.84,  0.84,  0.80 au

Final grid set up in    0.2 sec
Final integration                            ... done (   0.0 sec)
Change in XC energy                          ...     0.000014083
Integrated number of electrons               ...     2.000000249
Previous integrated no of electrons          ...     2.000000961

----------------
TOTAL SCF ENERGY
----------------

Total Energy       :         -311.80998692 Eh           -8484.78110 eV

Components:
Nuclear Repulsion  :            0.00000000 Eh               0.00000 eV
Electronic Energy  :         -311.80998692 Eh           -8484.78110 eV
One Electron Energy:         -324.18888989 Eh           -8821.62818 eV
Two Electron Energy:           12.37890297 Eh             336.84707 eV

Virial components:
Potential Energy   :         -630.89550984 Eh          -17167.53960 eV
Kinetic Energy     :          319.08552293 Eh            8682.75850 eV
Virial Ratio       :            1.97719879


DFT components:
N(Alpha)           :        1.000000124514 electrons
N(Beta)            :        1.000000124514 electrons
N(Total)           :        2.000000249028 electrons
E(X)               :       -9.494202379752 Eh       
E(C)               :       -0.237136135516 Eh       
E(XC)              :       -9.731338515268 Eh       
DFET-embed. en.    :        0.000000000000 Eh       

---------------
SCF CONVERGENCE
---------------

  Last Energy change         ...   -4.0075e-11  Tolerance :   1.0000e-09
  Last MAX-Density change    ...    0.0000e+00  Tolerance :   1.0000e-08
  Last RMS-Density change    ...    0.0000e+00  Tolerance :   1.0000e-09
  Last Orbital Gradient      ...    9.6999e-11  Tolerance :   2.0000e-06
  Last Orbital Rotation      ...    0.0000e+00  Tolerance :   2.0000e-06

================================================================================
                                        WARNING
Number of found core electrons (2) does not match given number of chemical core electrons (10)
================================================================================
             **** THE GBW FILE WAS UPDATED (Ar_ano-rcc-tzp_274.071978_.gbw) ****
             **** DENSITY FILE WAS UPDATED (Ar_ano-rcc-tzp_274.071978_.scfp) ****
             **** ENERGY FILE WAS UPDATED (Ar_ano-rcc-tzp_274.071978_.en.tmp) ****
             **** THE GBW FILE WAS UPDATED (Ar_ano-rcc-tzp_274.071978_.gbw) ****
             **** DENSITY FILE WAS UPDATED (Ar_ano-rcc-tzp_274.071978_.scfp) ****
----------------
ORBITAL ENERGIES
----------------

  NO   OCC          E(Eh)            E(eV) 
   0   2.0000    -146.441801     -3984.8840 
   1   0.0000     -33.895728      -922.3496 
   2   0.0000     -32.784581      -892.1138 
   3   0.0000     -32.784581      -892.1138 
   4   0.0000     -32.784581      -892.1138 
   5   0.0000     -14.293285      -388.9401 
   6   0.0000     -13.468446      -366.4951 
   7   0.0000     -13.468446      -366.4950 
   8   0.0000     -13.468446      -366.4950 
   9   0.0000     -10.761800      -292.8435 
  10   0.0000     -10.761800      -292.8435 
  11   0.0000     -10.761800      -292.8435 
  12   0.0000     -10.761800      -292.8435 
  13   0.0000     -10.761800      -292.8435 
  14   0.0000      -7.851457      -213.6490 
  15   0.0000      -7.214797      -196.3246 
  16   0.0000      -7.214797      -196.3246 
  17   0.0000      -7.214797      -196.3246 
  18   0.0000      -7.116885      -193.6603 
  19   0.0000      -7.116885      -193.6603 
  20   0.0000      -7.116885      -193.6603 
  21   0.0000      -7.116885      -193.6603 
  22   0.0000      -7.116885      -193.6603 
  23   0.0000      -7.116885      -193.6603 
  24   0.0000      -7.116885      -193.6603 
  25   0.0000      -5.646703      -153.6546 
  26   0.0000      -5.646703      -153.6546 
  27   0.0000      -5.646703      -153.6546 
  28   0.0000      -5.646703      -153.6546 
  29   0.0000      -5.646703      -153.6546 
  30   0.0000      -4.874574      -132.6439 
  31   0.0000      -4.273409      -116.2854 
  32   0.0000      -4.273408      -116.2854 
  33   0.0000      -4.273408      -116.2854 

                    ********************************
                    * MULLIKEN POPULATION ANALYSIS *
                    ********************************

-----------------------
MULLIKEN ATOMIC CHARGES
-----------------------
   0 Ar:   16.000000
Sum of atomic charges:   16.0000000

--------------------------------
MULLIKEN REDUCED ORBITAL CHARGES
--------------------------------
  0 Ars       :     2.000000  s :     2.000000
      pz      :     0.000000  p :     0.000000
      px      :     0.000000
      py      :     0.000000
      dz2     :     0.000000  d :     0.000000
      dxz     :     0.000000
      dyz     :     0.000000
      dx2y2   :     0.000000
      dxy     :     0.000000
      f0      :     0.000000  f :     0.000000
      f+1     :     0.000000
      f-1     :     0.000000
      f+2     :     0.000000
      f-2     :     0.000000
      f+3     :     0.000000
      f-3     :     0.000000


                     *******************************
                     * LOEWDIN POPULATION ANALYSIS *
                     *******************************

----------------------
LOEWDIN ATOMIC CHARGES
----------------------
   0 Ar:   16.000000

-------------------------------
LOEWDIN REDUCED ORBITAL CHARGES
-------------------------------
  0 Ars       :     2.000000  s :     2.000000
      pz      :     0.000000  p :     0.000000
      px      :     0.000000
      py      :     0.000000
      dz2     :     0.000000  d :     0.000000
      dxz     :     0.000000
      dyz     :     0.000000
      dx2y2   :     0.000000
      dxy     :     0.000000
      f0      :     0.000000  f :     0.000000
      f+1     :     0.000000
      f-1     :     0.000000
      f+2     :     0.000000
      f-2     :     0.000000
      f+3     :     0.000000
      f-3     :     0.000000


                      *****************************
                      * MAYER POPULATION ANALYSIS *
                      *****************************

  NA   - Mulliken gross atomic population
  ZA   - Total nuclear charge
  QA   - Mulliken gross atomic charge
  VA   - Mayer's total valence
  BVA  - Mayer's bonded valence
  FA   - Mayer's free valence

  ATOM       NA         ZA         QA         VA         BVA        FA
  0 Ar     2.0000    18.0000    16.0000     0.0000     0.0000     0.0000

  Mayer bond orders larger than 0.100000


--------------------------
ATOM BASIS FOR ELEMENT Ar
--------------------------
 NewGTO Ar
 S 85
    1     455476.770000000019         0.000319855423
    2      64817.743000000002         0.001011605525
    3      19256.987000000001         0.002170188947
    4       6877.007300000000         0.005962864679
    5       2643.487700000000         0.015907892377
    6       1054.237500000000         0.044046259751
    7        429.371220000000         0.114458582236
    8        177.188590000000         0.254625026623
    9         73.763945000000         0.398471958346
   10         30.897007000000         0.278945968619
   11         12.999482000000         0.038334791475
   12          5.487679300000         0.003118565377
   13          2.322571600000        -0.001384650187
   14          0.984980700000         0.001002725652
   15          0.418397300000        -0.000643170797
   16          0.177959400000         0.000282015965
   17          0.071183800000        -0.000076278909
   18     455476.770000000019         0.000000467770
   19      64817.743000000002         0.000001481450
   20      19256.987000000001         0.000003186998
   21       6877.007300000000         0.000008785619
   22       2643.487700000000         0.000023668242
   23       1054.237500000000         0.000066727951
   24        429.371220000000         0.000181625969
   25        177.188590000000         0.000447534825
   26         73.763945000000         0.000893004013
   27         30.897007000000         0.000949532967
   28         12.999482000000        -0.000699681448
   29          5.487679300000        -0.003243514506
   30          2.322571600000        -0.001952314981
   31          0.984980700000        -0.000025425151
   32          0.418397300000        -0.000059953798
   33          0.177959400000         0.000022772258
   34          0.071183800000        -0.000006599116
   35     455476.770000000019         0.000000027813
   36      64817.743000000002         0.000000088007
   37      19256.987000000001         0.000000190022
   38       6877.007300000000         0.000000520742
   39       2643.487700000000         0.000001416312
   40       1054.237500000000         0.000003960057
   41        429.371220000000         0.000010946021
   42        177.188590000000         0.000026932506
   43         73.763945000000         0.000055946613
   44         30.897007000000         0.000060754947
   45         12.999482000000        -0.000046901358
   46          5.487679300000        -0.000317554735
   47          2.322571600000        -0.000336235600
   48          0.984980700000         0.000329945411
   49          0.418397300000         0.000655248381
   50          0.177959400000         0.000246226519
   51          0.071183800000         0.000004368240
   52     455476.770000000019         0.000000031007
   53      64817.743000000002         0.000000098090
   54      19256.987000000001         0.000000211947
   55       6877.007300000000         0.000000580538
   56       2643.487700000000         0.000001580202
   57       1054.237500000000         0.000004422875
   58        429.371220000000         0.000012246774
   59        177.188590000000         0.000030300617
   60         73.763945000000         0.000063726652
   61         30.897007000000         0.000070838545
   62         12.999482000000        -0.000077501249
   63          5.487679300000        -0.000373341695
   64          2.322571600000        -0.000598104194
   65          0.984980700000         0.001701612224
   66          0.418397300000         0.000002394203
   67          0.177959400000        -0.001062821560
   68          0.071183800000        -0.000041177002
   69     455476.770000000019         0.000000040093
   70      64817.743000000002         0.000000121198
   71      19256.987000000001         0.000000300449
   72       6877.007300000000         0.000000625558
   73       2643.487700000000         0.000002441039
   74       1054.237500000000         0.000004430744
   75        429.371220000000         0.000019451362
   76        177.188590000000         0.000029473191
   77         73.763945000000         0.000111880233
   78         30.897007000000         0.000024154014
   79         12.999482000000         0.000030157686
   80          5.487679300000        -0.001073452140
   81          2.322571600000         0.000565968325
   82          0.984980700000         0.002292411171
   83          0.418397300000        -0.003637097840
   84          0.177959400000         0.001706231620
   85          0.071183800000         0.000201807325
 S 84
    1     455476.770000000019        -0.000001692572
    2      64817.743000000002        -0.000005353092
    3      19256.987000000001        -0.000011483944
    4       6877.007300000000        -0.000031553567
    5       2643.487700000000        -0.000084179463
    6       1054.237500000000        -0.000233078675
    7        429.371220000000        -0.000605678095
    8        177.188590000000        -0.001347393948
    9         73.763945000000        -0.002108585760
   10         30.897007000000        -0.001476092570
   11         12.999482000000        -0.000202855417
   12          5.487679300000        -0.000016502447
   13          2.322571600000         0.000007327125
   14          0.984980700000        -0.000005306102
   15          0.418397300000         0.000003403454
   16          0.177959400000        -0.000001492338
   17     455476.770000000019         0.000090470688
   18      64817.743000000002         0.000286525107
   19      19256.987000000001         0.000616392722
   20       6877.007300000000         0.001699214078
   21       2643.487700000000         0.004577640877
   22       1054.237500000000         0.012905757820
   23        429.371220000000         0.035128019659
   24        177.188590000000         0.086557072214
   25         73.763945000000         0.172714632275
   26         30.897007000000         0.183647816751
   27         12.999482000000        -0.135324390737
   28          5.487679300000        -0.627323514004
   29          2.322571600000        -0.377594455661
   30          0.984980700000        -0.004917442179
   31          0.418397300000        -0.011595578573
   32          0.177959400000         0.004404349923
   33          0.071183800000        -0.001276325635
   34     455476.770000000019         0.000002806280
   35      64817.743000000002         0.000008879921
   36      19256.987000000001         0.000019173175
   37       6877.007300000000         0.000052542771
   38       2643.487700000000         0.000142905775
   39       1054.237500000000         0.000399569283
   40        429.371220000000         0.001104452356
   41        177.188590000000         0.002717486969
   42         73.763945000000         0.005645007182
   43         30.897007000000         0.006130167531
   44         12.999482000000        -0.004732341908
   45          5.487679300000        -0.032041238427
   46          2.322571600000        -0.033926135697
   47          0.984980700000         0.033291456227
   48          0.418397300000         0.066114490776
   49          0.177959400000         0.024844229104
   50          0.071183800000         0.000440754917
   51     455476.770000000019         0.000002961846
   52      64817.743000000002         0.000009369635
   53      19256.987000000001         0.000020245352
   54       6877.007300000000         0.000055453490
   55       2643.487700000000         0.000150942214
   56       1054.237500000000         0.000422476835
   57        429.371220000000         0.001169822333
   58        177.188590000000         0.002894340929
   59         73.763945000000         0.006087224450
   60         30.897007000000         0.006766558545
   61         12.999482000000        -0.007402985786
   62          5.487679300000        -0.035661918958
   63          2.322571600000        -0.057131425603
   64          0.984980700000         0.162539459166
   65          0.418397300000         0.000228696303
   66          0.177959400000        -0.101521627022
   67          0.071183800000        -0.003933262523
   68     455476.770000000019         0.000003562086
   69      64817.743000000002         0.000010767833
   70      19256.987000000001         0.000026693504
   71       6877.007300000000         0.000055577866
   72       2643.487700000000         0.000216874720
   73       1054.237500000000         0.000393650528
   74        429.371220000000         0.001728161041
   75        177.188590000000         0.002618552831
   76         73.763945000000         0.009940026595
   77         30.897007000000         0.002145969272
   78         12.999482000000         0.002679367003
   79          5.487679300000        -0.095371117685
   80          2.322571600000         0.050283594136
   81          0.984980700000         0.203669830604
   82          0.418397300000        -0.323138846301
   83          0.177959400000         0.151590565155
   84          0.071183800000         0.017929621081
 S 83
    1     455476.770000000019         0.000000240340
    2      64817.743000000002         0.000000760122
    3      19256.987000000001         0.000001630684
    4       6877.007300000000         0.000004480508
    5       2643.487700000000         0.000011953222
    6       1054.237500000000         0.000033096446
    7        429.371220000000         0.000086004405
    8        177.188590000000         0.000191325747
    9         73.763945000000         0.000299412616
   10         30.897007000000         0.000209600551
   11         12.999482000000         0.000028804838
   12          5.487679300000         0.000002343296
   13          2.322571600000        -0.000001040429
   14          0.984980700000         0.000000753450
   15          0.418397300000        -0.000000483280
   16     455476.770000000019         0.000013513065
   17      64817.743000000002         0.000042796539
   18      19256.987000000001         0.000092066889
   19       6877.007300000000         0.000253801430
   20       2643.487700000000         0.000683734803
   21       1054.237500000000         0.001927655754
   22        429.371220000000         0.005246861918
   23        177.188590000000         0.012928511494
   24         73.763945000000         0.025797350249
   25         30.897007000000         0.027430374537
   26         12.999482000000        -0.020212593798
   27          5.487679300000        -0.093699556299
   28          2.322571600000        -0.056399022461
   29          0.984980700000        -0.000734488888
   30          0.418397300000        -0.001731962126
   31          0.177959400000         0.000657851371
   32          0.071183800000        -0.000190637116
   33     455476.770000000019        -0.000022193420
   34      64817.743000000002        -0.000070226706
   35      19256.987000000001        -0.000151630728
   36       6877.007300000000        -0.000415533602
   37       2643.487700000000        -0.001130167874
   38       1054.237500000000        -0.003159986838
   39        429.371220000000        -0.008734542564
   40        177.188590000000        -0.021491199212
   41         73.763945000000        -0.044643442735
   42         30.897007000000        -0.048480325052
   43         12.999482000000         0.037425645029
   44          5.487679300000         0.253397585990
   45          2.322571600000         0.268304263806
   46          0.984980700000        -0.263284912068
   47          0.418397300000        -0.522865319315
   48          0.177959400000        -0.196480160871
   49          0.071183800000        -0.003485702724
   50     455476.770000000019        -0.000018184421
   51      64817.743000000002        -0.000057525408
   52      19256.987000000001        -0.000124297493
   53       6877.007300000000        -0.000340459867
   54       2643.487700000000        -0.000926718346
   55       1054.237500000000        -0.002593820654
   56        429.371220000000        -0.007182191024
   57        177.188590000000        -0.017769971434
   58         73.763945000000        -0.037372862166
   59         30.897007000000        -0.041543672642
   60         12.999482000000         0.045451054033
   61          5.487679300000         0.218948388168
   62          2.322571600000         0.350761650381
   63          0.984980700000        -0.997920292503
   64          0.418397300000        -0.001404094011
   65          0.177959400000         0.623297827206
   66          0.071183800000         0.024148489894
   67     455476.770000000019        -0.000014869369
   68      64817.743000000002        -0.000044948627
   69      19256.987000000001        -0.000111427840
   70       6877.007300000000        -0.000232001072
   71       2643.487700000000        -0.000905309447
   72       1054.237500000000        -0.001643232284
   73        429.371220000000        -0.007213936768
   74        177.188590000000        -0.010930737413
   75         73.763945000000        -0.041493079413
   76         30.897007000000        -0.008958011588
   77         12.999482000000        -0.011184596619
   78          5.487679300000         0.398111747700
   79          2.322571600000        -0.209900964022
   80          0.984980700000        -0.850187710743
   81          0.418397300000         1.348892347841
   82          0.177959400000        -0.632790998928
   83          0.071183800000        -0.074844386409
 S 82
    1     455476.770000000019         0.000000073848
    2      64817.743000000002         0.000000233558
    3      19256.987000000001         0.000000501051
    4       6877.007300000000         0.000001376700
    5       2643.487700000000         0.000003672797
    6       1054.237500000000         0.000010169352
    7        429.371220000000         0.000026426072
    8        177.188590000000         0.000058787548
    9         73.763945000000         0.000091998770
   10         30.897007000000         0.000064402740
   11         12.999482000000         0.000008850695
   12          5.487679300000         0.000000720011
   13          2.322571600000        -0.000000319687
   14          0.984980700000         0.000000231508
   15     455476.770000000019         0.000002842653
   16      64817.743000000002         0.000009002821
   17      19256.987000000001         0.000019367495
   18       6877.007300000000         0.000053390506
   19       2643.487700000000         0.000143832709
   20       1054.237500000000         0.000405508025
   21        429.371220000000         0.001103747185
   22        177.188590000000         0.002719684336
   23         73.763945000000         0.005426815718
   24         30.897007000000         0.005770344095
   25         12.999482000000        -0.004251987924
   26          5.487679300000        -0.019710947828
   27          2.322571600000        -0.011864284456
   28          0.984980700000        -0.000154509506
   29          0.418397300000        -0.000364341268
   30          0.177959400000         0.000138387785
   31          0.071183800000        -0.000040103053
   32     455476.770000000019         0.000017946664
   33      64817.743000000002         0.000056788683
   34      19256.987000000001         0.000122615879
   35       6877.007300000000         0.000336020399
   36       2643.487700000000         0.000913907945
   37       1054.237500000000         0.002555316909
   38        429.371220000000         0.007063170023
   39        177.188590000000         0.017378814392
   40         73.763945000000         0.036100828878
   41         30.897007000000         0.039203515934
   42         12.999482000000        -0.030264171490
   43          5.487679300000        -0.204909440880
   44          2.322571600000        -0.216963695481
   45          0.984980700000         0.212904806940
   46          0.418397300000         0.422813973614
   47          0.177959400000         0.158883281192
   48          0.071183800000         0.002818706396
   49     455476.770000000019        -0.000018480558
   50      64817.743000000002        -0.000058462221
   51      19256.987000000001        -0.000126321703
   52       6877.007300000000        -0.000346004325
   53       2643.487700000000        -0.000941810143
   54       1054.237500000000        -0.002636061551
   55        429.371220000000        -0.007299154465
   56        177.188590000000        -0.018059359033
   57         73.763945000000        -0.037981486827
   58         30.897007000000        -0.042220219800
   59         12.999482000000         0.046191233692
   60          5.487679300000         0.222514007202
   61          2.322571600000         0.356473875199
   62          0.984980700000        -1.014171627433
   63          0.418397300000        -0.001426959968
   64          0.177959400000         0.633448359094
   65          0.071183800000         0.024541752964
   66     455476.770000000019        -0.000025962897
   67      64817.743000000002        -0.000078483262
   68      19256.987000000001        -0.000194560346
   69       6877.007300000000        -0.000405089148
   70       2643.487700000000        -0.001580729905
   71       1054.237500000000        -0.002869191767
   72        429.371220000000        -0.012596008598
   73        177.188590000000        -0.019085787258
   74         73.763945000000        -0.072449648770
   75         30.897007000000        -0.015641278073
   76         12.999482000000        -0.019529042147
   77          5.487679300000         0.695129325185
   78          2.322571600000        -0.366500904128
   79          0.984980700000        -1.484483723636
   80          0.418397300000         2.355254857257
   81          0.177959400000        -1.104894750303
   82          0.071183800000        -0.130683226804
 S 81
    1     455476.770000000019         0.000000037729
    2      64817.743000000002         0.000000119326
    3      19256.987000000001         0.000000255989
    4       6877.007300000000         0.000000703362
    5       2643.487700000000         0.000001876447
    6       1054.237500000000         0.000005195565
    7        429.371220000000         0.000013501192
    8        177.188590000000         0.000030034806
    9         73.763945000000         0.000047002559
   10         30.897007000000         0.000032903631
   11         12.999482000000         0.000004521857
   12          5.487679300000         0.000000367857
   13          2.322571600000        -0.000000163329
   14     455476.770000000019         0.000001375854
   15      64817.743000000002         0.000004357396
   16      19256.987000000001         0.000009373934
   17       6877.007300000000         0.000025841188
   18       2643.487700000000         0.000069615524
   19       1054.237500000000         0.000196267275
   20        429.371220000000         0.000534217423
   21        177.188590000000         0.001316336545
   22         73.763945000000         0.002626597417
   23         30.897007000000         0.002792866330
   24         12.999482000000        -0.002057976736
   25          5.487679300000        -0.009540166342
   26          2.322571600000        -0.005742354362
   27          0.984980700000        -0.000074783131
   28          0.418397300000        -0.000176342423
   29          0.177959400000         0.000066980162
   30          0.071183800000        -0.000019410015
   31     455476.770000000019        -0.000003644374
   32      64817.743000000002        -0.000011531904
   33      19256.987000000001        -0.000024899232
   34       6877.007300000000        -0.000068234636
   35       2643.487700000000        -0.000185584494
   36       1054.237500000000        -0.000518900397
   37        429.371220000000        -0.001434296354
   38        177.188590000000        -0.003529062736
   39         73.763945000000        -0.007330885011
   40         30.897007000000        -0.007960938192
   41         12.999482000000         0.006145652830
   42          5.487679300000         0.041610334044
   43          2.322571600000         0.044058154693
   44          0.984980700000        -0.043233928599
   45          0.418397300000        -0.085859541683
   46          0.177959400000        -0.032263942432
   47          0.071183800000        -0.000572386095
   48     455476.770000000019         0.000022012768
   49      64817.743000000002         0.000069636172
   50      19256.987000000001         0.000150465714
   51       6877.007300000000         0.000412136526
   52       2643.487700000000         0.001121819387
   53       1054.237500000000         0.003139894995
   54        429.371220000000         0.008694250163
   55        177.188590000000         0.021511064872
   56         73.763945000000         0.045240931618
   57         30.897007000000         0.050289818446
   58         12.999482000000        -0.055019816742
   59          5.487679300000        -0.265043362561
   60          2.322571600000        -0.424607132541
   61          0.984980700000         1.208011404449
   62          0.418397300000         0.001699696450
   63          0.177959400000        -0.754520064668
   64          0.071183800000        -0.029232446130
   65     455476.770000000019        -0.000034559547
   66      64817.743000000002        -0.000104470081
   67      19256.987000000001        -0.000258981782
   68       6877.007300000000        -0.000539219381
   69       2643.487700000000        -0.002104129933
   70       1054.237500000000        -0.003819218110
   71        429.371220000000        -0.016766709253
   72        177.188590000000        -0.025405337199
   73         73.763945000000        -0.096438660461
   74         30.897007000000        -0.020820306666
   75         12.999482000000        -0.025995359491
   76          5.487679300000         0.925295596404
   77          2.322571600000        -0.487854073165
   78          0.984980700000        -1.976015401234
   79          0.418397300000         3.135110070705
   80          0.177959400000        -1.470739630606
   81          0.071183800000        -0.173954126095
 P 48
    1       1462.496200000000         0.000947056744
    2        354.067310000000         0.006111425238
    3        126.697790000000         0.025362813535
    4         49.989095000000         0.091556072381
    5         20.509295000000         0.240179346660
    6          8.580464100000         0.409908617304
    7          3.630104900000         0.338845478636
    8          1.546528000000         0.071800793061
    9          0.661936900000         0.003460022811
   10          0.284242800000         0.000285902251
   11          0.122346300000         0.000468747744
   12          0.048938500000        -0.000084150874
   13       1462.496200000000         0.000028343643
   14        354.067310000000         0.000183657801
   15        126.697790000000         0.000768619511
   16         49.989095000000         0.002834195687
   17         20.509295000000         0.007680536048
   18          8.580464100000         0.013774068703
   19          3.630104900000         0.011385621594
   20          1.546528000000        -0.016718591934
   21          0.661936900000        -0.046148732041
   22          0.284242800000        -0.042332644347
   23          0.122346300000        -0.015142337983
   24          0.048938500000        -0.000698261214
   25       1462.496200000000         0.000033197575
   26        354.067310000000         0.000201925016
   27        126.697790000000         0.000919061938
   28         49.989095000000         0.003127393722
   29         20.509295000000         0.009491409405
   30          8.580464100000         0.014192278075
   31          3.630104900000         0.017318728245
   32          1.546528000000        -0.044418568943
   33          0.661936900000        -0.072591037836
   34          0.284242800000         0.050363926871
   35          0.122346300000         0.059664089335
   36          0.048938500000         0.006140959267
   37       1462.496200000000         0.000050274624
   38        354.067310000000         0.000294411875
   39        126.697790000000         0.001424265790
   40         49.989095000000         0.004630009222
   41         20.509295000000         0.015606833037
   42          8.580464100000         0.018415587862
   43          3.630104900000         0.025082871268
   44          1.546528000000        -0.148109921372
   45          0.661936900000         0.072071403345
   46          0.284242800000         0.110361338139
   47          0.122346300000        -0.109277636795
   48          0.048938500000        -0.011675475185
 P 48
    1       1462.496200000000        -0.000164763745
    2        354.067310000000        -0.001063232288
    3        126.697790000000        -0.004412483374
    4         49.989095000000        -0.015928423976
    5         20.509295000000        -0.041785087153
    6          8.580464100000        -0.071313655970
    7          3.630104900000        -0.058950480352
    8          1.546528000000        -0.012491508689
    9          0.661936900000        -0.000601955816
   10          0.284242800000        -0.000049739708
   11          0.122346300000        -0.000081550165
   12          0.048938500000         0.000014640108
   13       1462.496200000000         0.000190912214
   14        354.067310000000         0.001237050468
   15        126.697790000000         0.005177134446
   16         49.989095000000         0.019090085415
   17         20.509295000000         0.051733227132
   18          8.580464100000         0.092776991123
   19          3.630104900000         0.076689301926
   20          1.546528000000        -0.112610201742
   21          0.661936900000        -0.310840652473
   22          0.284242800000        -0.285136908595
   23          0.122346300000        -0.101993142831
   24          0.048938500000        -0.004703227188
   25       1462.496200000000         0.000189139776
   26        354.067310000000         0.001150447059
   27        126.697790000000         0.005236261084
   28         49.989095000000         0.017818004825
   29         20.509295000000         0.054076331156
   30          8.580464100000         0.080859048039
   31          3.630104900000         0.098671677075
   32          1.546528000000        -0.253070238691
   33          0.661936900000        -0.413579989391
   34          0.284242800000         0.286943305426
   35          0.122346300000         0.339930026759
   36          0.048938500000         0.034987485290
   37       1462.496200000000         0.000208652978
   38        354.067310000000         0.001221887096
   39        126.697790000000         0.005911079481
   40         49.989095000000         0.019215762041
   41         20.509295000000         0.064772482182
   42          8.580464100000         0.076429557091
   43          3.630104900000         0.104100545472
   44          1.546528000000        -0.614695320961
   45          0.661936900000         0.299115373239
   46          0.284242800000         0.458028723130
   47          0.122346300000        -0.453531076116
   48          0.048938500000        -0.048456307989
 P 47
    1       1462.496200000000        -0.000028486442
    2        354.067310000000        -0.000183825059
    3        126.697790000000        -0.000762885992
    4         49.989095000000        -0.002753907604
    5         20.509295000000        -0.007224334902
    6          8.580464100000        -0.012329607736
    7          3.630104900000        -0.010192105406
    8          1.546528000000        -0.002159690175
    9          0.661936900000        -0.000104073743
   10          0.284242800000        -0.000008599630
   11          0.122346300000        -0.000014099425
   12       1462.496200000000        -0.000188038107
   13        354.067310000000        -0.001218427170
   14        126.697790000000        -0.005099194764
   15         49.989095000000        -0.018802691836
   16         20.509295000000        -0.050954404146
   17          8.580464100000        -0.091380270732
   18          3.630104900000        -0.075534775244
   19          1.546528000000         0.110914900319
   20          0.661936900000         0.306161071119
   21          0.284242800000         0.280844286796
   22          0.122346300000         0.100457676972
   23          0.048938500000         0.004632421989
   24       1462.496200000000         0.000120984845
   25        354.067310000000         0.000735893116
   26        126.697790000000         0.003349418347
   27         49.989095000000         0.011397436321
   28         20.509295000000         0.034590379050
   29          8.580464100000         0.051722168674
   30          3.630104900000         0.063116166326
   31          1.546528000000        -0.161878502027
   32          0.661936900000        -0.264549911113
   33          0.284242800000         0.183545693438
   34          0.122346300000         0.217439094420
   35          0.048938500000         0.022380038592
   36       1462.496200000000         0.000318953577
   37        354.067310000000         0.001867815471
   38        126.697790000000         0.009035864065
   39         49.989095000000         0.029373824913
   40         20.509295000000         0.099013276014
   41          8.580464100000         0.116832651412
   42          3.630104900000         0.159131404182
   43          1.546528000000        -0.939642814798
   44          0.661936900000         0.457237271336
   45          0.284242800000         0.700157271390
   46          0.122346300000        -0.693282025140
   47          0.048938500000        -0.074071853292
 P 47
    1       1462.496200000000        -0.000012843400
    2        354.067310000000        -0.000082879383
    3        126.697790000000        -0.000343954848
    4         49.989095000000        -0.001241627036
    5         20.509295000000        -0.003257164298
    6          8.580464100000        -0.005558928077
    7          3.630104900000        -0.004595213581
    8          1.546528000000        -0.000973718111
    9          0.661936900000        -0.000046922697
   10          0.284242800000        -0.000003877230
   11          0.122346300000        -0.000006356868
   12       1462.496200000000         0.000057941523
   13        354.067310000000         0.000375442657
   14        126.697790000000         0.001571251262
   15         49.989095000000         0.005793807582
   16         20.509295000000         0.015700944080
   17          8.580464100000         0.028157654767
   18          3.630104900000         0.023275069193
   19          1.546528000000        -0.034176999550
   20          0.661936900000        -0.094339595128
   21          0.284242800000        -0.086538553754
   22          0.122346300000        -0.030954740713
   23          0.048938500000        -0.001427421237
   24       1462.496200000000        -0.000246805235
   25        354.067310000000        -0.001501198543
   26        126.697790000000        -0.006832706860
   27         49.989095000000        -0.023250407464
   28         20.509295000000        -0.070563272709
   29          8.580464100000        -0.105511578462
   30          3.630104900000        -0.128754971152
   31          1.546528000000         0.330226993684
   32          0.661936900000         0.539673401546
   33          0.284242800000        -0.374427374783
   34          0.122346300000        -0.443568834408
   35          0.048938500000        -0.045654566668
   36       1462.496200000000         0.000323016329
   37        354.067310000000         0.001891607242
   38        126.697790000000         0.009150960665
   39         49.989095000000         0.029747981423
   40         20.509295000000         0.100274482611
   41          8.580464100000         0.118320836803
   42          3.630104900000         0.161158380614
   43          1.546528000000        -0.951611752350
   44          0.661936900000         0.463061446503
   45          0.284242800000         0.709075701379
   46          0.122346300000        -0.702112879945
   47          0.048938500000        -0.075015362222
 D 10
    1          4.328841700000         0.023696068634
    2          1.774230200000         0.164640930063
    3          0.727190600000         0.511779310426
    4          0.298048200000         0.259259734031
    5          0.119219300000         0.024473108160
    6          4.328841700000        -0.069711649763
    7          1.774230200000         0.386985074094
    8          0.727190600000         0.171190613975
    9          0.298048200000        -0.503830199735
   10          0.119219300000        -0.036197228178
 D 10
    1          4.328841700000        -0.014701467258
    2          1.774230200000        -0.102146194797
    3          0.727190600000        -0.317517090772
    4          0.298048200000        -0.160849402910
    5          0.119219300000        -0.015183556558
    6          4.328841700000        -0.112362393704
    7          1.774230200000         0.623748963061
    8          0.727190600000         0.275927871902
    9          0.298048200000        -0.812081875199
   10          0.119219300000        -0.058343292940
 F 4
    1          1.631174000000         0.245409970118
    2          0.820328800000         0.580760500278
    3          0.412549100000         0.264213740127
    4          0.165019600000         0.038934170019
 end
  // -----------------------------------------------
  // The basis set
  // -----------------------------------------------
  BAS[ATNO] = new BFNGauss[NSH];
  // Basis function   1 L = s
  InitBFNGauss(BAS[ATNO][  0]);
  BAS[ATNO][  0].l  = 0;
  BAS[ATNO][  0].ng = 85;
  BAS[ATNO][  0].a[  0] =    455476.770000000019;     BAS[ATNO][  0].d[  0] =         0.000319855423;
  BAS[ATNO][  0].a[  1] =     64817.743000000002;     BAS[ATNO][  0].d[  1] =         0.001011605525;
  BAS[ATNO][  0].a[  2] =     19256.987000000001;     BAS[ATNO][  0].d[  2] =         0.002170188947;
  BAS[ATNO][  0].a[  3] =      6877.007300000000;     BAS[ATNO][  0].d[  3] =         0.005962864679;
  BAS[ATNO][  0].a[  4] =      2643.487700000000;     BAS[ATNO][  0].d[  4] =         0.015907892377;
  BAS[ATNO][  0].a[  5] =      1054.237500000000;     BAS[ATNO][  0].d[  5] =         0.044046259751;
  BAS[ATNO][  0].a[  6] =       429.371220000000;     BAS[ATNO][  0].d[  6] =         0.114458582236;
  BAS[ATNO][  0].a[  7] =       177.188590000000;     BAS[ATNO][  0].d[  7] =         0.254625026623;
  BAS[ATNO][  0].a[  8] =        73.763945000000;     BAS[ATNO][  0].d[  8] =         0.398471958346;
  BAS[ATNO][  0].a[  9] =        30.897007000000;     BAS[ATNO][  0].d[  9] =         0.278945968619;
  BAS[ATNO][  0].a[ 10] =        12.999482000000;     BAS[ATNO][  0].d[ 10] =         0.038334791475;
  BAS[ATNO][  0].a[ 11] =         5.487679300000;     BAS[ATNO][  0].d[ 11] =         0.003118565377;
  BAS[ATNO][  0].a[ 12] =         2.322571600000;     BAS[ATNO][  0].d[ 12] =        -0.001384650187;
  BAS[ATNO][  0].a[ 13] =         0.984980700000;     BAS[ATNO][  0].d[ 13] =         0.001002725652;
  BAS[ATNO][  0].a[ 14] =         0.418397300000;     BAS[ATNO][  0].d[ 14] =        -0.000643170797;
  BAS[ATNO][  0].a[ 15] =         0.177959400000;     BAS[ATNO][  0].d[ 15] =         0.000282015965;
  BAS[ATNO][  0].a[ 16] =         0.071183800000;     BAS[ATNO][  0].d[ 16] =        -0.000076278909;
  BAS[ATNO][  0].a[ 17] =    455476.770000000019;     BAS[ATNO][  0].d[ 17] =         0.000000467770;
  BAS[ATNO][  0].a[ 18] =     64817.743000000002;     BAS[ATNO][  0].d[ 18] =         0.000001481450;
  BAS[ATNO][  0].a[ 19] =     19256.987000000001;     BAS[ATNO][  0].d[ 19] =         0.000003186998;
  BAS[ATNO][  0].a[ 20] =      6877.007300000000;     BAS[ATNO][  0].d[ 20] =         0.000008785619;
  BAS[ATNO][  0].a[ 21] =      2643.487700000000;     BAS[ATNO][  0].d[ 21] =         0.000023668242;
  BAS[ATNO][  0].a[ 22] =      1054.237500000000;     BAS[ATNO][  0].d[ 22] =         0.000066727951;
  BAS[ATNO][  0].a[ 23] =       429.371220000000;     BAS[ATNO][  0].d[ 23] =         0.000181625969;
  BAS[ATNO][  0].a[ 24] =       177.188590000000;     BAS[ATNO][  0].d[ 24] =         0.000447534825;
  BAS[ATNO][  0].a[ 25] =        73.763945000000;     BAS[ATNO][  0].d[ 25] =         0.000893004013;
  BAS[ATNO][  0].a[ 26] =        30.897007000000;     BAS[ATNO][  0].d[ 26] =         0.000949532967;
  BAS[ATNO][  0].a[ 27] =        12.999482000000;     BAS[ATNO][  0].d[ 27] =        -0.000699681448;
  BAS[ATNO][  0].a[ 28] =         5.487679300000;     BAS[ATNO][  0].d[ 28] =        -0.003243514506;
  BAS[ATNO][  0].a[ 29] =         2.322571600000;     BAS[ATNO][  0].d[ 29] =        -0.001952314981;
  BAS[ATNO][  0].a[ 30] =         0.984980700000;     BAS[ATNO][  0].d[ 30] =        -0.000025425151;
  BAS[ATNO][  0].a[ 31] =         0.418397300000;     BAS[ATNO][  0].d[ 31] =        -0.000059953798;
  BAS[ATNO][  0].a[ 32] =         0.177959400000;     BAS[ATNO][  0].d[ 32] =         0.000022772258;
  BAS[ATNO][  0].a[ 33] =         0.071183800000;     BAS[ATNO][  0].d[ 33] =        -0.000006599116;
  BAS[ATNO][  0].a[ 34] =    455476.770000000019;     BAS[ATNO][  0].d[ 34] =         0.000000027813;
  BAS[ATNO][  0].a[ 35] =     64817.743000000002;     BAS[ATNO][  0].d[ 35] =         0.000000088007;
  BAS[ATNO][  0].a[ 36] =     19256.987000000001;     BAS[ATNO][  0].d[ 36] =         0.000000190022;
  BAS[ATNO][  0].a[ 37] =      6877.007300000000;     BAS[ATNO][  0].d[ 37] =         0.000000520742;
  BAS[ATNO][  0].a[ 38] =      2643.487700000000;     BAS[ATNO][  0].d[ 38] =         0.000001416312;
  BAS[ATNO][  0].a[ 39] =      1054.237500000000;     BAS[ATNO][  0].d[ 39] =         0.000003960057;
  BAS[ATNO][  0].a[ 40] =       429.371220000000;     BAS[ATNO][  0].d[ 40] =         0.000010946021;
  BAS[ATNO][  0].a[ 41] =       177.188590000000;     BAS[ATNO][  0].d[ 41] =         0.000026932506;
  BAS[ATNO][  0].a[ 42] =        73.763945000000;     BAS[ATNO][  0].d[ 42] =         0.000055946613;
  BAS[ATNO][  0].a[ 43] =        30.897007000000;     BAS[ATNO][  0].d[ 43] =         0.000060754947;
  BAS[ATNO][  0].a[ 44] =        12.999482000000;     BAS[ATNO][  0].d[ 44] =        -0.000046901358;
  BAS[ATNO][  0].a[ 45] =         5.487679300000;     BAS[ATNO][  0].d[ 45] =        -0.000317554735;
  BAS[ATNO][  0].a[ 46] =         2.322571600000;     BAS[ATNO][  0].d[ 46] =        -0.000336235600;
  BAS[ATNO][  0].a[ 47] =         0.984980700000;     BAS[ATNO][  0].d[ 47] =         0.000329945411;
  BAS[ATNO][  0].a[ 48] =         0.418397300000;     BAS[ATNO][  0].d[ 48] =         0.000655248381;
  BAS[ATNO][  0].a[ 49] =         0.177959400000;     BAS[ATNO][  0].d[ 49] =         0.000246226519;
  BAS[ATNO][  0].a[ 50] =         0.071183800000;     BAS[ATNO][  0].d[ 50] =         0.000004368240;
  BAS[ATNO][  0].a[ 51] =    455476.770000000019;     BAS[ATNO][  0].d[ 51] =         0.000000031007;
  BAS[ATNO][  0].a[ 52] =     64817.743000000002;     BAS[ATNO][  0].d[ 52] =         0.000000098090;
  BAS[ATNO][  0].a[ 53] =     19256.987000000001;     BAS[ATNO][  0].d[ 53] =         0.000000211947;
  BAS[ATNO][  0].a[ 54] =      6877.007300000000;     BAS[ATNO][  0].d[ 54] =         0.000000580538;
  BAS[ATNO][  0].a[ 55] =      2643.487700000000;     BAS[ATNO][  0].d[ 55] =         0.000001580202;
  BAS[ATNO][  0].a[ 56] =      1054.237500000000;     BAS[ATNO][  0].d[ 56] =         0.000004422875;
  BAS[ATNO][  0].a[ 57] =       429.371220000000;     BAS[ATNO][  0].d[ 57] =         0.000012246774;
  BAS[ATNO][  0].a[ 58] =       177.188590000000;     BAS[ATNO][  0].d[ 58] =         0.000030300617;
  BAS[ATNO][  0].a[ 59] =        73.763945000000;     BAS[ATNO][  0].d[ 59] =         0.000063726652;
  BAS[ATNO][  0].a[ 60] =        30.897007000000;     BAS[ATNO][  0].d[ 60] =         0.000070838545;
  BAS[ATNO][  0].a[ 61] =        12.999482000000;     BAS[ATNO][  0].d[ 61] =        -0.000077501249;
  BAS[ATNO][  0].a[ 62] =         5.487679300000;     BAS[ATNO][  0].d[ 62] =        -0.000373341695;
  BAS[ATNO][  0].a[ 63] =         2.322571600000;     BAS[ATNO][  0].d[ 63] =        -0.000598104194;
  BAS[ATNO][  0].a[ 64] =         0.984980700000;     BAS[ATNO][  0].d[ 64] =         0.001701612224;
  BAS[ATNO][  0].a[ 65] =         0.418397300000;     BAS[ATNO][  0].d[ 65] =         0.000002394203;
  BAS[ATNO][  0].a[ 66] =         0.177959400000;     BAS[ATNO][  0].d[ 66] =        -0.001062821560;
  BAS[ATNO][  0].a[ 67] =         0.071183800000;     BAS[ATNO][  0].d[ 67] =        -0.000041177002;
  BAS[ATNO][  0].a[ 68] =    455476.770000000019;     BAS[ATNO][  0].d[ 68] =         0.000000040093;
  BAS[ATNO][  0].a[ 69] =     64817.743000000002;     BAS[ATNO][  0].d[ 69] =         0.000000121198;
  BAS[ATNO][  0].a[ 70] =     19256.987000000001;     BAS[ATNO][  0].d[ 70] =         0.000000300449;
  BAS[ATNO][  0].a[ 71] =      6877.007300000000;     BAS[ATNO][  0].d[ 71] =         0.000000625558;
  BAS[ATNO][  0].a[ 72] =      2643.487700000000;     BAS[ATNO][  0].d[ 72] =         0.000002441039;
  BAS[ATNO][  0].a[ 73] =      1054.237500000000;     BAS[ATNO][  0].d[ 73] =         0.000004430744;
  BAS[ATNO][  0].a[ 74] =       429.371220000000;     BAS[ATNO][  0].d[ 74] =         0.000019451362;
  BAS[ATNO][  0].a[ 75] =       177.188590000000;     BAS[ATNO][  0].d[ 75] =         0.000029473191;
  BAS[ATNO][  0].a[ 76] =        73.763945000000;     BAS[ATNO][  0].d[ 76] =         0.000111880233;
  BAS[ATNO][  0].a[ 77] =        30.897007000000;     BAS[ATNO][  0].d[ 77] =         0.000024154014;
  BAS[ATNO][  0].a[ 78] =        12.999482000000;     BAS[ATNO][  0].d[ 78] =         0.000030157686;
  BAS[ATNO][  0].a[ 79] =         5.487679300000;     BAS[ATNO][  0].d[ 79] =        -0.001073452140;
  BAS[ATNO][  0].a[ 80] =         2.322571600000;     BAS[ATNO][  0].d[ 80] =         0.000565968325;
  BAS[ATNO][  0].a[ 81] =         0.984980700000;     BAS[ATNO][  0].d[ 81] =         0.002292411171;
  BAS[ATNO][  0].a[ 82] =         0.418397300000;     BAS[ATNO][  0].d[ 82] =        -0.003637097840;
  BAS[ATNO][  0].a[ 83] =         0.177959400000;     BAS[ATNO][  0].d[ 83] =         0.001706231620;
  BAS[ATNO][  0].a[ 84] =         0.071183800000;     BAS[ATNO][  0].d[ 84] =         0.000201807325;

  // Basis function   2 L = s
  InitBFNGauss(BAS[ATNO][  1]);
  BAS[ATNO][  1].l  = 0;
  BAS[ATNO][  1].ng = 84;
  BAS[ATNO][  1].a[  0] =    455476.770000000019;     BAS[ATNO][  1].d[  0] =         0.000001692572;
  BAS[ATNO][  1].a[  1] =     64817.743000000002;     BAS[ATNO][  1].d[  1] =         0.000005353092;
  BAS[ATNO][  1].a[  2] =     19256.987000000001;     BAS[ATNO][  1].d[  2] =         0.000011483944;
  BAS[ATNO][  1].a[  3] =      6877.007300000000;     BAS[ATNO][  1].d[  3] =         0.000031553567;
  BAS[ATNO][  1].a[  4] =      2643.487700000000;     BAS[ATNO][  1].d[  4] =         0.000084179463;
  BAS[ATNO][  1].a[  5] =      1054.237500000000;     BAS[ATNO][  1].d[  5] =         0.000233078675;
  BAS[ATNO][  1].a[  6] =       429.371220000000;     BAS[ATNO][  1].d[  6] =         0.000605678095;
  BAS[ATNO][  1].a[  7] =       177.188590000000;     BAS[ATNO][  1].d[  7] =         0.001347393948;
  BAS[ATNO][  1].a[  8] =        73.763945000000;     BAS[ATNO][  1].d[  8] =         0.002108585760;
  BAS[ATNO][  1].a[  9] =        30.897007000000;     BAS[ATNO][  1].d[  9] =         0.001476092570;
  BAS[ATNO][  1].a[ 10] =        12.999482000000;     BAS[ATNO][  1].d[ 10] =         0.000202855417;
  BAS[ATNO][  1].a[ 11] =         5.487679300000;     BAS[ATNO][  1].d[ 11] =         0.000016502447;
  BAS[ATNO][  1].a[ 12] =         2.322571600000;     BAS[ATNO][  1].d[ 12] =        -0.000007327125;
  BAS[ATNO][  1].a[ 13] =         0.984980700000;     BAS[ATNO][  1].d[ 13] =         0.000005306102;
  BAS[ATNO][  1].a[ 14] =         0.418397300000;     BAS[ATNO][  1].d[ 14] =        -0.000003403454;
  BAS[ATNO][  1].a[ 15] =         0.177959400000;     BAS[ATNO][  1].d[ 15] =         0.000001492338;
  BAS[ATNO][  1].a[ 16] =    455476.770000000019;     BAS[ATNO][  1].d[ 16] =        -0.000090470688;
  BAS[ATNO][  1].a[ 17] =     64817.743000000002;     BAS[ATNO][  1].d[ 17] =        -0.000286525107;
  BAS[ATNO][  1].a[ 18] =     19256.987000000001;     BAS[ATNO][  1].d[ 18] =        -0.000616392722;
  BAS[ATNO][  1].a[ 19] =      6877.007300000000;     BAS[ATNO][  1].d[ 19] =        -0.001699214078;
  BAS[ATNO][  1].a[ 20] =      2643.487700000000;     BAS[ATNO][  1].d[ 20] =        -0.004577640877;
  BAS[ATNO][  1].a[ 21] =      1054.237500000000;     BAS[ATNO][  1].d[ 21] =        -0.012905757820;
  BAS[ATNO][  1].a[ 22] =       429.371220000000;     BAS[ATNO][  1].d[ 22] =        -0.035128019659;
  BAS[ATNO][  1].a[ 23] =       177.188590000000;     BAS[ATNO][  1].d[ 23] =        -0.086557072214;
  BAS[ATNO][  1].a[ 24] =        73.763945000000;     BAS[ATNO][  1].d[ 24] =        -0.172714632275;
  BAS[ATNO][  1].a[ 25] =        30.897007000000;     BAS[ATNO][  1].d[ 25] =        -0.183647816751;
  BAS[ATNO][  1].a[ 26] =        12.999482000000;     BAS[ATNO][  1].d[ 26] =         0.135324390737;
  BAS[ATNO][  1].a[ 27] =         5.487679300000;     BAS[ATNO][  1].d[ 27] =         0.627323514004;
  BAS[ATNO][  1].a[ 28] =         2.322571600000;     BAS[ATNO][  1].d[ 28] =         0.377594455661;
  BAS[ATNO][  1].a[ 29] =         0.984980700000;     BAS[ATNO][  1].d[ 29] =         0.004917442179;
  BAS[ATNO][  1].a[ 30] =         0.418397300000;     BAS[ATNO][  1].d[ 30] =         0.011595578573;
  BAS[ATNO][  1].a[ 31] =         0.177959400000;     BAS[ATNO][  1].d[ 31] =        -0.004404349923;
  BAS[ATNO][  1].a[ 32] =         0.071183800000;     BAS[ATNO][  1].d[ 32] =         0.001276325635;
  BAS[ATNO][  1].a[ 33] =    455476.770000000019;     BAS[ATNO][  1].d[ 33] =        -0.000002806280;
  BAS[ATNO][  1].a[ 34] =     64817.743000000002;     BAS[ATNO][  1].d[ 34] =        -0.000008879921;
  BAS[ATNO][  1].a[ 35] =     19256.987000000001;     BAS[ATNO][  1].d[ 35] =        -0.000019173175;
  BAS[ATNO][  1].a[ 36] =      6877.007300000000;     BAS[ATNO][  1].d[ 36] =        -0.000052542771;
  BAS[ATNO][  1].a[ 37] =      2643.487700000000;     BAS[ATNO][  1].d[ 37] =        -0.000142905775;
  BAS[ATNO][  1].a[ 38] =      1054.237500000000;     BAS[ATNO][  1].d[ 38] =        -0.000399569283;
  BAS[ATNO][  1].a[ 39] =       429.371220000000;     BAS[ATNO][  1].d[ 39] =        -0.001104452356;
  BAS[ATNO][  1].a[ 40] =       177.188590000000;     BAS[ATNO][  1].d[ 40] =        -0.002717486969;
  BAS[ATNO][  1].a[ 41] =        73.763945000000;     BAS[ATNO][  1].d[ 41] =        -0.005645007182;
  BAS[ATNO][  1].a[ 42] =        30.897007000000;     BAS[ATNO][  1].d[ 42] =        -0.006130167531;
  BAS[ATNO][  1].a[ 43] =        12.999482000000;     BAS[ATNO][  1].d[ 43] =         0.004732341908;
  BAS[ATNO][  1].a[ 44] =         5.487679300000;     BAS[ATNO][  1].d[ 44] =         0.032041238427;
  BAS[ATNO][  1].a[ 45] =         2.322571600000;     BAS[ATNO][  1].d[ 45] =         0.033926135697;
  BAS[ATNO][  1].a[ 46] =         0.984980700000;     BAS[ATNO][  1].d[ 46] =        -0.033291456227;
  BAS[ATNO][  1].a[ 47] =         0.418397300000;     BAS[ATNO][  1].d[ 47] =        -0.066114490776;
  BAS[ATNO][  1].a[ 48] =         0.177959400000;     BAS[ATNO][  1].d[ 48] =        -0.024844229104;
  BAS[ATNO][  1].a[ 49] =         0.071183800000;     BAS[ATNO][  1].d[ 49] =        -0.000440754917;
  BAS[ATNO][  1].a[ 50] =    455476.770000000019;     BAS[ATNO][  1].d[ 50] =        -0.000002961846;
  BAS[ATNO][  1].a[ 51] =     64817.743000000002;     BAS[ATNO][  1].d[ 51] =        -0.000009369635;
  BAS[ATNO][  1].a[ 52] =     19256.987000000001;     BAS[ATNO][  1].d[ 52] =        -0.000020245352;
  BAS[ATNO][  1].a[ 53] =      6877.007300000000;     BAS[ATNO][  1].d[ 53] =        -0.000055453490;
  BAS[ATNO][  1].a[ 54] =      2643.487700000000;     BAS[ATNO][  1].d[ 54] =        -0.000150942214;
  BAS[ATNO][  1].a[ 55] =      1054.237500000000;     BAS[ATNO][  1].d[ 55] =        -0.000422476835;
  BAS[ATNO][  1].a[ 56] =       429.371220000000;     BAS[ATNO][  1].d[ 56] =        -0.001169822333;
  BAS[ATNO][  1].a[ 57] =       177.188590000000;     BAS[ATNO][  1].d[ 57] =        -0.002894340929;
  BAS[ATNO][  1].a[ 58] =        73.763945000000;     BAS[ATNO][  1].d[ 58] =        -0.006087224450;
  BAS[ATNO][  1].a[ 59] =        30.897007000000;     BAS[ATNO][  1].d[ 59] =        -0.006766558545;
  BAS[ATNO][  1].a[ 60] =        12.999482000000;     BAS[ATNO][  1].d[ 60] =         0.007402985786;
  BAS[ATNO][  1].a[ 61] =         5.487679300000;     BAS[ATNO][  1].d[ 61] =         0.035661918958;
  BAS[ATNO][  1].a[ 62] =         2.322571600000;     BAS[ATNO][  1].d[ 62] =         0.057131425603;
  BAS[ATNO][  1].a[ 63] =         0.984980700000;     BAS[ATNO][  1].d[ 63] =        -0.162539459166;
  BAS[ATNO][  1].a[ 64] =         0.418397300000;     BAS[ATNO][  1].d[ 64] =        -0.000228696303;
  BAS[ATNO][  1].a[ 65] =         0.177959400000;     BAS[ATNO][  1].d[ 65] =         0.101521627022;
  BAS[ATNO][  1].a[ 66] =         0.071183800000;     BAS[ATNO][  1].d[ 66] =         0.003933262523;
  BAS[ATNO][  1].a[ 67] =    455476.770000000019;     BAS[ATNO][  1].d[ 67] =        -0.000003562086;
  BAS[ATNO][  1].a[ 68] =     64817.743000000002;     BAS[ATNO][  1].d[ 68] =        -0.000010767833;
  BAS[ATNO][  1].a[ 69] =     19256.987000000001;     BAS[ATNO][  1].d[ 69] =        -0.000026693504;
  BAS[ATNO][  1].a[ 70] =      6877.007300000000;     BAS[ATNO][  1].d[ 70] =        -0.000055577866;
  BAS[ATNO][  1].a[ 71] =      2643.487700000000;     BAS[ATNO][  1].d[ 71] =        -0.000216874720;
  BAS[ATNO][  1].a[ 72] =      1054.237500000000;     BAS[ATNO][  1].d[ 72] =        -0.000393650528;
  BAS[ATNO][  1].a[ 73] =       429.371220000000;     BAS[ATNO][  1].d[ 73] =        -0.001728161041;
  BAS[ATNO][  1].a[ 74] =       177.188590000000;     BAS[ATNO][  1].d[ 74] =        -0.002618552831;
  BAS[ATNO][  1].a[ 75] =        73.763945000000;     BAS[ATNO][  1].d[ 75] =        -0.009940026595;
  BAS[ATNO][  1].a[ 76] =        30.897007000000;     BAS[ATNO][  1].d[ 76] =        -0.002145969272;
  BAS[ATNO][  1].a[ 77] =        12.999482000000;     BAS[ATNO][  1].d[ 77] =        -0.002679367003;
  BAS[ATNO][  1].a[ 78] =         5.487679300000;     BAS[ATNO][  1].d[ 78] =         0.095371117685;
  BAS[ATNO][  1].a[ 79] =         2.322571600000;     BAS[ATNO][  1].d[ 79] =        -0.050283594136;
  BAS[ATNO][  1].a[ 80] =         0.984980700000;     BAS[ATNO][  1].d[ 80] =        -0.203669830604;
  BAS[ATNO][  1].a[ 81] =         0.418397300000;     BAS[ATNO][  1].d[ 81] =         0.323138846301;
  BAS[ATNO][  1].a[ 82] =         0.177959400000;     BAS[ATNO][  1].d[ 82] =        -0.151590565155;
  BAS[ATNO][  1].a[ 83] =         0.071183800000;     BAS[ATNO][  1].d[ 83] =        -0.017929621081;

  // Basis function   3 L = s
  InitBFNGauss(BAS[ATNO][  2]);
  BAS[ATNO][  2].l  = 0;
  BAS[ATNO][  2].ng = 83;
  BAS[ATNO][  2].a[  0] =    455476.770000000019;     BAS[ATNO][  2].d[  0] =         0.000000240340;
  BAS[ATNO][  2].a[  1] =     64817.743000000002;     BAS[ATNO][  2].d[  1] =         0.000000760122;
  BAS[ATNO][  2].a[  2] =     19256.987000000001;     BAS[ATNO][  2].d[  2] =         0.000001630684;
  BAS[ATNO][  2].a[  3] =      6877.007300000000;     BAS[ATNO][  2].d[  3] =         0.000004480508;
  BAS[ATNO][  2].a[  4] =      2643.487700000000;     BAS[ATNO][  2].d[  4] =         0.000011953222;
  BAS[ATNO][  2].a[  5] =      1054.237500000000;     BAS[ATNO][  2].d[  5] =         0.000033096446;
  BAS[ATNO][  2].a[  6] =       429.371220000000;     BAS[ATNO][  2].d[  6] =         0.000086004405;
  BAS[ATNO][  2].a[  7] =       177.188590000000;     BAS[ATNO][  2].d[  7] =         0.000191325747;
  BAS[ATNO][  2].a[  8] =        73.763945000000;     BAS[ATNO][  2].d[  8] =         0.000299412616;
  BAS[ATNO][  2].a[  9] =        30.897007000000;     BAS[ATNO][  2].d[  9] =         0.000209600551;
  BAS[ATNO][  2].a[ 10] =        12.999482000000;     BAS[ATNO][  2].d[ 10] =         0.000028804838;
  BAS[ATNO][  2].a[ 11] =         5.487679300000;     BAS[ATNO][  2].d[ 11] =         0.000002343296;
  BAS[ATNO][  2].a[ 12] =         2.322571600000;     BAS[ATNO][  2].d[ 12] =        -0.000001040429;
  BAS[ATNO][  2].a[ 13] =         0.984980700000;     BAS[ATNO][  2].d[ 13] =         0.000000753450;
  BAS[ATNO][  2].a[ 14] =         0.418397300000;     BAS[ATNO][  2].d[ 14] =        -0.000000483280;
  BAS[ATNO][  2].a[ 15] =    455476.770000000019;     BAS[ATNO][  2].d[ 15] =         0.000013513065;
  BAS[ATNO][  2].a[ 16] =     64817.743000000002;     BAS[ATNO][  2].d[ 16] =         0.000042796539;
  BAS[ATNO][  2].a[ 17] =     19256.987000000001;     BAS[ATNO][  2].d[ 17] =         0.000092066889;
  BAS[ATNO][  2].a[ 18] =      6877.007300000000;     BAS[ATNO][  2].d[ 18] =         0.000253801430;
  BAS[ATNO][  2].a[ 19] =      2643.487700000000;     BAS[ATNO][  2].d[ 19] =         0.000683734803;
  BAS[ATNO][  2].a[ 20] =      1054.237500000000;     BAS[ATNO][  2].d[ 20] =         0.001927655754;
  BAS[ATNO][  2].a[ 21] =       429.371220000000;     BAS[ATNO][  2].d[ 21] =         0.005246861918;
[...]
  BAS[ATNO][  6].a[ 12] =      1462.496200000000;     BAS[ATNO][  6].d[ 12] =        -0.000190912214;
  BAS[ATNO][  6].a[ 13] =       354.067310000000;     BAS[ATNO][  6].d[ 13] =        -0.001237050468;
  BAS[ATNO][  6].a[ 14] =       126.697790000000;     BAS[ATNO][  6].d[ 14] =        -0.005177134446;
  BAS[ATNO][  6].a[ 15] =        49.989095000000;     BAS[ATNO][  6].d[ 15] =        -0.019090085415;
  BAS[ATNO][  6].a[ 16] =        20.509295000000;     BAS[ATNO][  6].d[ 16] =        -0.051733227132;
  BAS[ATNO][  6].a[ 17] =         8.580464100000;     BAS[ATNO][  6].d[ 17] =        -0.092776991123;
  BAS[ATNO][  6].a[ 18] =         3.630104900000;     BAS[ATNO][  6].d[ 18] =        -0.076689301926;
  BAS[ATNO][  6].a[ 19] =         1.546528000000;     BAS[ATNO][  6].d[ 19] =         0.112610201742;
  BAS[ATNO][  6].a[ 20] =         0.661936900000;     BAS[ATNO][  6].d[ 20] =         0.310840652473;
  BAS[ATNO][  6].a[ 21] =         0.284242800000;     BAS[ATNO][  6].d[ 21] =         0.285136908595;
  BAS[ATNO][  6].a[ 22] =         0.122346300000;     BAS[ATNO][  6].d[ 22] =         0.101993142831;
  BAS[ATNO][  6].a[ 23] =         0.048938500000;     BAS[ATNO][  6].d[ 23] =         0.004703227188;
  BAS[ATNO][  6].a[ 24] =      1462.496200000000;     BAS[ATNO][  6].d[ 24] =        -0.000189139776;
  BAS[ATNO][  6].a[ 25] =       354.067310000000;     BAS[ATNO][  6].d[ 25] =        -0.001150447059;
  BAS[ATNO][  6].a[ 26] =       126.697790000000;     BAS[ATNO][  6].d[ 26] =        -0.005236261084;
  BAS[ATNO][  6].a[ 27] =        49.989095000000;     BAS[ATNO][  6].d[ 27] =        -0.017818004825;
  BAS[ATNO][  6].a[ 28] =        20.509295000000;     BAS[ATNO][  6].d[ 28] =        -0.054076331156;
  BAS[ATNO][  6].a[ 29] =         8.580464100000;     BAS[ATNO][  6].d[ 29] =        -0.080859048039;
  BAS[ATNO][  6].a[ 30] =         3.630104900000;     BAS[ATNO][  6].d[ 30] =        -0.098671677075;
  BAS[ATNO][  6].a[ 31] =         1.546528000000;     BAS[ATNO][  6].d[ 31] =         0.253070238691;
  BAS[ATNO][  6].a[ 32] =         0.661936900000;     BAS[ATNO][  6].d[ 32] =         0.413579989391;
  BAS[ATNO][  6].a[ 33] =         0.284242800000;     BAS[ATNO][  6].d[ 33] =        -0.286943305426;
  BAS[ATNO][  6].a[ 34] =         0.122346300000;     BAS[ATNO][  6].d[ 34] =        -0.339930026759;
  BAS[ATNO][  6].a[ 35] =         0.048938500000;     BAS[ATNO][  6].d[ 35] =        -0.034987485290;
  BAS[ATNO][  6].a[ 36] =      1462.496200000000;     BAS[ATNO][  6].d[ 36] =        -0.000208652978;
  BAS[ATNO][  6].a[ 37] =       354.067310000000;     BAS[ATNO][  6].d[ 37] =        -0.001221887096;
  BAS[ATNO][  6].a[ 38] =       126.697790000000;     BAS[ATNO][  6].d[ 38] =        -0.005911079481;
  BAS[ATNO][  6].a[ 39] =        49.989095000000;     BAS[ATNO][  6].d[ 39] =        -0.019215762041;
  BAS[ATNO][  6].a[ 40] =        20.509295000000;     BAS[ATNO][  6].d[ 40] =        -0.064772482182;
  BAS[ATNO][  6].a[ 41] =         8.580464100000;     BAS[ATNO][  6].d[ 41] =        -0.076429557091;
  BAS[ATNO][  6].a[ 42] =         3.630104900000;     BAS[ATNO][  6].d[ 42] =        -0.104100545472;
  BAS[ATNO][  6].a[ 43] =         1.546528000000;     BAS[ATNO][  6].d[ 43] =         0.614695320961;
  BAS[ATNO][  6].a[ 44] =         0.661936900000;     BAS[ATNO][  6].d[ 44] =        -0.299115373239;
  BAS[ATNO][  6].a[ 45] =         0.284242800000;     BAS[ATNO][  6].d[ 45] =        -0.458028723130;
  BAS[ATNO][  6].a[ 46] =         0.122346300000;     BAS[ATNO][  6].d[ 46] =         0.453531076116;
  BAS[ATNO][  6].a[ 47] =         0.048938500000;     BAS[ATNO][  6].d[ 47] =         0.048456307989;

  // Basis function   8 L = p
  InitBFNGauss(BAS[ATNO][  7]);
  BAS[ATNO][  7].l  = 1;
  BAS[ATNO][  7].ng = 47;
  BAS[ATNO][  7].a[  0] =      1462.496200000000;     BAS[ATNO][  7].d[  0] =         0.000028486442;
  BAS[ATNO][  7].a[  1] =       354.067310000000;     BAS[ATNO][  7].d[  1] =         0.000183825059;
  BAS[ATNO][  7].a[  2] =       126.697790000000;     BAS[ATNO][  7].d[  2] =         0.000762885992;
  BAS[ATNO][  7].a[  3] =        49.989095000000;     BAS[ATNO][  7].d[  3] =         0.002753907604;
  BAS[ATNO][  7].a[  4] =        20.509295000000;     BAS[ATNO][  7].d[  4] =         0.007224334902;
  BAS[ATNO][  7].a[  5] =         8.580464100000;     BAS[ATNO][  7].d[  5] =         0.012329607736;
  BAS[ATNO][  7].a[  6] =         3.630104900000;     BAS[ATNO][  7].d[  6] =         0.010192105406;
  BAS[ATNO][  7].a[  7] =         1.546528000000;     BAS[ATNO][  7].d[  7] =         0.002159690175;
  BAS[ATNO][  7].a[  8] =         0.661936900000;     BAS[ATNO][  7].d[  8] =         0.000104073743;
  BAS[ATNO][  7].a[  9] =         0.284242800000;     BAS[ATNO][  7].d[  9] =         0.000008599630;
  BAS[ATNO][  7].a[ 10] =         0.122346300000;     BAS[ATNO][  7].d[ 10] =         0.000014099425;
  BAS[ATNO][  7].a[ 11] =      1462.496200000000;     BAS[ATNO][  7].d[ 11] =         0.000188038107;
  BAS[ATNO][  7].a[ 12] =       354.067310000000;     BAS[ATNO][  7].d[ 12] =         0.001218427170;
  BAS[ATNO][  7].a[ 13] =       126.697790000000;     BAS[ATNO][  7].d[ 13] =         0.005099194764;
  BAS[ATNO][  7].a[ 14] =        49.989095000000;     BAS[ATNO][  7].d[ 14] =         0.018802691836;
  BAS[ATNO][  7].a[ 15] =        20.509295000000;     BAS[ATNO][  7].d[ 15] =         0.050954404146;
  BAS[ATNO][  7].a[ 16] =         8.580464100000;     BAS[ATNO][  7].d[ 16] =         0.091380270732;
  BAS[ATNO][  7].a[ 17] =         3.630104900000;     BAS[ATNO][  7].d[ 17] =         0.075534775244;
  BAS[ATNO][  7].a[ 18] =         1.546528000000;     BAS[ATNO][  7].d[ 18] =        -0.110914900319;
  BAS[ATNO][  7].a[ 19] =         0.661936900000;     BAS[ATNO][  7].d[ 19] =        -0.306161071119;
  BAS[ATNO][  7].a[ 20] =         0.284242800000;     BAS[ATNO][  7].d[ 20] =        -0.280844286796;
  BAS[ATNO][  7].a[ 21] =         0.122346300000;     BAS[ATNO][  7].d[ 21] =        -0.100457676972;
  BAS[ATNO][  7].a[ 22] =         0.048938500000;     BAS[ATNO][  7].d[ 22] =        -0.004632421989;
  BAS[ATNO][  7].a[ 23] =      1462.496200000000;     BAS[ATNO][  7].d[ 23] =        -0.000120984845;
  BAS[ATNO][  7].a[ 24] =       354.067310000000;     BAS[ATNO][  7].d[ 24] =        -0.000735893116;
  BAS[ATNO][  7].a[ 25] =       126.697790000000;     BAS[ATNO][  7].d[ 25] =        -0.003349418347;
  BAS[ATNO][  7].a[ 26] =        49.989095000000;     BAS[ATNO][  7].d[ 26] =        -0.011397436321;
  BAS[ATNO][  7].a[ 27] =        20.509295000000;     BAS[ATNO][  7].d[ 27] =        -0.034590379050;
  BAS[ATNO][  7].a[ 28] =         8.580464100000;     BAS[ATNO][  7].d[ 28] =        -0.051722168674;
  BAS[ATNO][  7].a[ 29] =         3.630104900000;     BAS[ATNO][  7].d[ 29] =        -0.063116166326;
  BAS[ATNO][  7].a[ 30] =         1.546528000000;     BAS[ATNO][  7].d[ 30] =         0.161878502027;
  BAS[ATNO][  7].a[ 31] =         0.661936900000;     BAS[ATNO][  7].d[ 31] =         0.264549911113;
  BAS[ATNO][  7].a[ 32] =         0.284242800000;     BAS[ATNO][  7].d[ 32] =        -0.183545693438;
  BAS[ATNO][  7].a[ 33] =         0.122346300000;     BAS[ATNO][  7].d[ 33] =        -0.217439094420;
  BAS[ATNO][  7].a[ 34] =         0.048938500000;     BAS[ATNO][  7].d[ 34] =        -0.022380038592;
  BAS[ATNO][  7].a[ 35] =      1462.496200000000;     BAS[ATNO][  7].d[ 35] =        -0.000318953577;
  BAS[ATNO][  7].a[ 36] =       354.067310000000;     BAS[ATNO][  7].d[ 36] =        -0.001867815471;
  BAS[ATNO][  7].a[ 37] =       126.697790000000;     BAS[ATNO][  7].d[ 37] =        -0.009035864065;
  BAS[ATNO][  7].a[ 38] =        49.989095000000;     BAS[ATNO][  7].d[ 38] =        -0.029373824913;
  BAS[ATNO][  7].a[ 39] =        20.509295000000;     BAS[ATNO][  7].d[ 39] =        -0.099013276014;
  BAS[ATNO][  7].a[ 40] =         8.580464100000;     BAS[ATNO][  7].d[ 40] =        -0.116832651412;
  BAS[ATNO][  7].a[ 41] =         3.630104900000;     BAS[ATNO][  7].d[ 41] =        -0.159131404182;
  BAS[ATNO][  7].a[ 42] =         1.546528000000;     BAS[ATNO][  7].d[ 42] =         0.939642814798;
  BAS[ATNO][  7].a[ 43] =         0.661936900000;     BAS[ATNO][  7].d[ 43] =        -0.457237271336;
  BAS[ATNO][  7].a[ 44] =         0.284242800000;     BAS[ATNO][  7].d[ 44] =        -0.700157271390;
  BAS[ATNO][  7].a[ 45] =         0.122346300000;     BAS[ATNO][  7].d[ 45] =         0.693282025140;
  BAS[ATNO][  7].a[ 46] =         0.048938500000;     BAS[ATNO][  7].d[ 46] =         0.074071853292;

  // Basis function   9 L = p
  InitBFNGauss(BAS[ATNO][  8]);
  BAS[ATNO][  8].l  = 1;
  BAS[ATNO][  8].ng = 47;
  BAS[ATNO][  8].a[  0] =      1462.496200000000;     BAS[ATNO][  8].d[  0] =         0.000012843400;
  BAS[ATNO][  8].a[  1] =       354.067310000000;     BAS[ATNO][  8].d[  1] =         0.000082879383;
  BAS[ATNO][  8].a[  2] =       126.697790000000;     BAS[ATNO][  8].d[  2] =         0.000343954848;
  BAS[ATNO][  8].a[  3] =        49.989095000000;     BAS[ATNO][  8].d[  3] =         0.001241627036;
  BAS[ATNO][  8].a[  4] =        20.509295000000;     BAS[ATNO][  8].d[  4] =         0.003257164298;
  BAS[ATNO][  8].a[  5] =         8.580464100000;     BAS[ATNO][  8].d[  5] =         0.005558928077;
  BAS[ATNO][  8].a[  6] =         3.630104900000;     BAS[ATNO][  8].d[  6] =         0.004595213581;
  BAS[ATNO][  8].a[  7] =         1.546528000000;     BAS[ATNO][  8].d[  7] =         0.000973718111;
  BAS[ATNO][  8].a[  8] =         0.661936900000;     BAS[ATNO][  8].d[  8] =         0.000046922697;
  BAS[ATNO][  8].a[  9] =         0.284242800000;     BAS[ATNO][  8].d[  9] =         0.000003877230;
  BAS[ATNO][  8].a[ 10] =         0.122346300000;     BAS[ATNO][  8].d[ 10] =         0.000006356868;
  BAS[ATNO][  8].a[ 11] =      1462.496200000000;     BAS[ATNO][  8].d[ 11] =        -0.000057941523;
  BAS[ATNO][  8].a[ 12] =       354.067310000000;     BAS[ATNO][  8].d[ 12] =        -0.000375442657;
  BAS[ATNO][  8].a[ 13] =       126.697790000000;     BAS[ATNO][  8].d[ 13] =        -0.001571251262;
  BAS[ATNO][  8].a[ 14] =        49.989095000000;     BAS[ATNO][  8].d[ 14] =        -0.005793807582;
  BAS[ATNO][  8].a[ 15] =        20.509295000000;     BAS[ATNO][  8].d[ 15] =        -0.015700944080;
  BAS[ATNO][  8].a[ 16] =         8.580464100000;     BAS[ATNO][  8].d[ 16] =        -0.028157654767;
  BAS[ATNO][  8].a[ 17] =         3.630104900000;     BAS[ATNO][  8].d[ 17] =        -0.023275069193;
  BAS[ATNO][  8].a[ 18] =         1.546528000000;     BAS[ATNO][  8].d[ 18] =         0.034176999550;
  BAS[ATNO][  8].a[ 19] =         0.661936900000;     BAS[ATNO][  8].d[ 19] =         0.094339595128;
  BAS[ATNO][  8].a[ 20] =         0.284242800000;     BAS[ATNO][  8].d[ 20] =         0.086538553754;
  BAS[ATNO][  8].a[ 21] =         0.122346300000;     BAS[ATNO][  8].d[ 21] =         0.030954740713;
  BAS[ATNO][  8].a[ 22] =         0.048938500000;     BAS[ATNO][  8].d[ 22] =         0.001427421237;
  BAS[ATNO][  8].a[ 23] =      1462.496200000000;     BAS[ATNO][  8].d[ 23] =         0.000246805235;
  BAS[ATNO][  8].a[ 24] =       354.067310000000;     BAS[ATNO][  8].d[ 24] =         0.001501198543;
  BAS[ATNO][  8].a[ 25] =       126.697790000000;     BAS[ATNO][  8].d[ 25] =         0.006832706860;
  BAS[ATNO][  8].a[ 26] =        49.989095000000;     BAS[ATNO][  8].d[ 26] =         0.023250407464;
  BAS[ATNO][  8].a[ 27] =        20.509295000000;     BAS[ATNO][  8].d[ 27] =         0.070563272709;
  BAS[ATNO][  8].a[ 28] =         8.580464100000;     BAS[ATNO][  8].d[ 28] =         0.105511578462;
  BAS[ATNO][  8].a[ 29] =         3.630104900000;     BAS[ATNO][  8].d[ 29] =         0.128754971152;
  BAS[ATNO][  8].a[ 30] =         1.546528000000;     BAS[ATNO][  8].d[ 30] =        -0.330226993684;
  BAS[ATNO][  8].a[ 31] =         0.661936900000;     BAS[ATNO][  8].d[ 31] =        -0.539673401546;
  BAS[ATNO][  8].a[ 32] =         0.284242800000;     BAS[ATNO][  8].d[ 32] =         0.374427374783;
  BAS[ATNO][  8].a[ 33] =         0.122346300000;     BAS[ATNO][  8].d[ 33] =         0.443568834408;
  BAS[ATNO][  8].a[ 34] =         0.048938500000;     BAS[ATNO][  8].d[ 34] =         0.045654566668;
  BAS[ATNO][  8].a[ 35] =      1462.496200000000;     BAS[ATNO][  8].d[ 35] =        -0.000323016329;
  BAS[ATNO][  8].a[ 36] =       354.067310000000;     BAS[ATNO][  8].d[ 36] =        -0.001891607242;
  BAS[ATNO][  8].a[ 37] =       126.697790000000;     BAS[ATNO][  8].d[ 37] =        -0.009150960665;
  BAS[ATNO][  8].a[ 38] =        49.989095000000;     BAS[ATNO][  8].d[ 38] =        -0.029747981423;
  BAS[ATNO][  8].a[ 39] =        20.509295000000;     BAS[ATNO][  8].d[ 39] =        -0.100274482611;
  BAS[ATNO][  8].a[ 40] =         8.580464100000;     BAS[ATNO][  8].d[ 40] =        -0.118320836803;
  BAS[ATNO][  8].a[ 41] =         3.630104900000;     BAS[ATNO][  8].d[ 41] =        -0.161158380614;
  BAS[ATNO][  8].a[ 42] =         1.546528000000;     BAS[ATNO][  8].d[ 42] =         0.951611752350;
  BAS[ATNO][  8].a[ 43] =         0.661936900000;     BAS[ATNO][  8].d[ 43] =        -0.463061446503;
  BAS[ATNO][  8].a[ 44] =         0.284242800000;     BAS[ATNO][  8].d[ 44] =        -0.709075701379;
  BAS[ATNO][  8].a[ 45] =         0.122346300000;     BAS[ATNO][  8].d[ 45] =         0.702112879945;
  BAS[ATNO][  8].a[ 46] =         0.048938500000;     BAS[ATNO][  8].d[ 46] =         0.075015362222;

  // Basis function  10 L = d
  InitBFNGauss(BAS[ATNO][  9]);
  BAS[ATNO][  9].l  = 2;
  BAS[ATNO][  9].ng = 10;
  BAS[ATNO][  9].a[  0] =         4.328841700000;     BAS[ATNO][  9].d[  0] =         0.023696068634;
  BAS[ATNO][  9].a[  1] =         1.774230200000;     BAS[ATNO][  9].d[  1] =         0.164640930063;
  BAS[ATNO][  9].a[  2] =         0.727190600000;     BAS[ATNO][  9].d[  2] =         0.511779310426;
  BAS[ATNO][  9].a[  3] =         0.298048200000;     BAS[ATNO][  9].d[  3] =         0.259259734031;
  BAS[ATNO][  9].a[  4] =         0.119219300000;     BAS[ATNO][  9].d[  4] =         0.024473108160;
  BAS[ATNO][  9].a[  5] =         4.328841700000;     BAS[ATNO][  9].d[  5] =        -0.069711649763;
  BAS[ATNO][  9].a[  6] =         1.774230200000;     BAS[ATNO][  9].d[  6] =         0.386985074094;
  BAS[ATNO][  9].a[  7] =         0.727190600000;     BAS[ATNO][  9].d[  7] =         0.171190613975;
  BAS[ATNO][  9].a[  8] =         0.298048200000;     BAS[ATNO][  9].d[  8] =        -0.503830199735;
  BAS[ATNO][  9].a[  9] =         0.119219300000;     BAS[ATNO][  9].d[  9] =        -0.036197228178;

  // Basis function  11 L = d
  InitBFNGauss(BAS[ATNO][ 10]);
  BAS[ATNO][ 10].l  = 2;
  BAS[ATNO][ 10].ng = 10;
  BAS[ATNO][ 10].a[  0] =         4.328841700000;     BAS[ATNO][ 10].d[  0] =         0.014701467258;
  BAS[ATNO][ 10].a[  1] =         1.774230200000;     BAS[ATNO][ 10].d[  1] =         0.102146194797;
  BAS[ATNO][ 10].a[  2] =         0.727190600000;     BAS[ATNO][ 10].d[  2] =         0.317517090772;
  BAS[ATNO][ 10].a[  3] =         0.298048200000;     BAS[ATNO][ 10].d[  3] =         0.160849402910;
  BAS[ATNO][ 10].a[  4] =         0.119219300000;     BAS[ATNO][ 10].d[  4] =         0.015183556558;
  BAS[ATNO][ 10].a[  5] =         4.328841700000;     BAS[ATNO][ 10].d[  5] =         0.112362393704;
  BAS[ATNO][ 10].a[  6] =         1.774230200000;     BAS[ATNO][ 10].d[  6] =        -0.623748963061;
  BAS[ATNO][ 10].a[  7] =         0.727190600000;     BAS[ATNO][ 10].d[  7] =        -0.275927871902;
  BAS[ATNO][ 10].a[  8] =         0.298048200000;     BAS[ATNO][ 10].d[  8] =         0.812081875199;
  BAS[ATNO][ 10].a[  9] =         0.119219300000;     BAS[ATNO][ 10].d[  9] =         0.058343292940;

  // Basis function  12 L = f
  InitBFNGauss(BAS[ATNO][ 11]);
  BAS[ATNO][ 11].l  = 3;
  BAS[ATNO][ 11].ng = 4;
  BAS[ATNO][ 11].a[  0] =         1.631174000000;     BAS[ATNO][ 11].d[  0] =         0.245409970118;
  BAS[ATNO][ 11].a[  1] =         0.820328800000;     BAS[ATNO][ 11].d[  1] =         0.580760500278;
  BAS[ATNO][ 11].a[  2] =         0.412549100000;     BAS[ATNO][ 11].d[  2] =         0.264213740127;
  BAS[ATNO][ 11].a[  3] =         0.165019600000;     BAS[ATNO][ 11].d[  3] =         0.038934170019;

-------
TIMINGS
-------

Total SCF time: 0 days 0 hours 0 min 7 sec 

Total time                  ....       7.282 sec
Sum of individual times     ....       7.018 sec  ( 96.4%)

Fock matrix formation       ....       6.557 sec  ( 90.0%)
  XC integration            ....       0.021 sec  (  0.3% of F)
    Basis function eval.    ....       0.009 sec  ( 42.8% of XC)
    Density eval.           ....       0.001 sec  (  4.3% of XC)
    XC-Functional eval.     ....       0.001 sec  (  6.3% of XC)
    XC-Potential eval.      ....       0.001 sec  (  4.1% of XC)
Diagonalization             ....       0.000 sec  (  0.0%)
Density matrix formation    ....       0.000 sec  (  0.0%)
Population analysis         ....       0.001 sec  (  0.0%)
Initial guess               ....       0.073 sec  (  1.0%)
Orbital Transformation      ....       0.000 sec  (  0.0%)
Orbital Orthonormalization  ....       0.000 sec  (  0.0%)
DIIS solution               ....       0.000 sec  (  0.0%)
SOSCF solution              ....       0.000 sec  (  0.0%)
Grid generation             ....       0.386 sec  (  5.3%)

-------------------------   --------------------
FINAL SINGLE POINT ENERGY      -311.809986916379
-------------------------   --------------------


                            ***************************************
                            *     ORCA property calculations      *
                            ***************************************

                                    ---------------------
                                    Active property flags
                                    ---------------------
   (+) Dipole Moment


------------------------------------------------------------------------------
                       ORCA ELECTRIC PROPERTIES CALCULATION
------------------------------------------------------------------------------

Dipole Moment Calculation                       ... on
Quadrupole Moment Calculation                   ... off
Polarizability Calculation                      ... off
GBWName                                         ... Ar_ano-rcc-tzp_274.071978_.gbw
Electron density file                           ... Ar_ano-rcc-tzp_274.071978_.scfp
The origin for moment calculation is the CENTER OF MASS  = ( 0.000000,  0.000000  0.000000)

-------------
DIPOLE MOMENT
-------------
                                X             Y             Z
Electronic contribution:     -0.00000       0.00000      -0.00000
Nuclear contribution   :      0.00000       0.00000       0.00000
                        -----------------------------------------
Total Dipole Moment    :     -0.00000       0.00000      -0.00000
                        -----------------------------------------
Magnitude (a.u.)       :      0.00000
Magnitude (Debye)      :      0.00000



--------------------
Rotational spectrum 
--------------------
 
Rotational constants in cm-1:     0.000000     0.000000     0.000000 
Rotational constants in MHz :     0.000000     0.000000     0.000000 

 Dipole components along the rotational axes: 
x,y,z [a.u.] :    -0.000000     0.000000    -0.000000 
x,y,z [Debye]:    -0.000000     0.000000    -0.000000 

 

Timings for individual modules:

Sum of individual times         ...        8.385 sec (=   0.140 min)
GTO integral calculation        ...        0.413 sec (=   0.007 min)   4.9 %
Relativistic integrals          ...        0.402 sec (=   0.007 min)   4.8 %
SCF iterations                  ...        7.569 sec (=   0.126 min)  90.3 %
                             ****ORCA TERMINATED NORMALLY****
TOTAL RUN TIME: 0 days 0 hours 0 minutes 8 seconds 767 msec
