
                                 *****************
                                 * O   R   C   A *
                                 *****************

           --- An Ab Initio, DFT and Semiempirical electronic structure package ---

                  #######################################################
                  #                        -***-                        #
                  #          Department of theory and spectroscopy      #
                  #               Directorship: Frank Neese             #
                  #        Max Planck Institute fuer Kohlenforschung    #
                  #                Kaiser Wilhelm Platz 1               #
                  #                 D-45470 Muelheim/Ruhr               #
                  #                      Germany                        #
                  #                                                     #
                  #                  All rights reserved                #
                  #                        -***-                        #
                  #######################################################


                         Program Version 4.2.1 -  RELEASE  -


 With contributions from (in alphabetic order):
   Daniel Aravena         : Magnetic Suceptibility
   Michael Atanasov       : Ab Initio Ligand Field Theory (pilot matlab implementation)
   Alexander A. Auer      : GIAO ZORA, VPT2
   Ute Becker             : Parallelization
   Giovanni Bistoni       : ED, misc. LED, open-shell LED, HFLD
   Martin Brehm           : Molecular dynamics
   Dmytro Bykov           : SCF Hessian
   Vijay G. Chilkuri      : MRCI spin determinant printing, contributions to CSF-ICE
   Dipayan Datta          : RHF DLPNO-CCSD density
   Achintya Kumar Dutta   : EOM-CC, STEOM-CC
   Dmitry Ganyushin       : Spin-Orbit,Spin-Spin,Magnetic field MRCI
   Miquel Garcia          : C-PCM Hessian, Gaussian charge scheme
   Yang Guo               : DLPNO-NEVPT2, CIM, IAO-localization
   Andreas Hansen         : Spin unrestricted coupled pair/coupled cluster methods
   Benjamin Helmich-Paris : CASSCF linear response (MC-RPA)
   Lee Huntington         : MR-EOM, pCC
   Robert Izsak           : Overlap fitted RIJCOSX, COSX-SCS-MP3, EOM
   Christian Kollmar      : KDIIS, OOCD, Brueckner-CCSD(T), CCSD density
   Simone Kossmann        : Meta GGA functionals, TD-DFT gradient, OOMP2, MP2 Hessian
   Martin Krupicka        : AUTO-CI
   Lucas Lang             : DCDCAS
   Dagmar Lenk            : GEPOL surface, SMD
   Dimitrios Liakos       : Extrapolation schemes; Compound Job, initial MDCI parallelization
   Dimitrios Manganas     : Further ROCIS development; embedding schemes
   Dimitrios Pantazis     : SARC Basis sets
   Taras Petrenko         : DFT Hessian,TD-DFT gradient, ASA, ECA, R-Raman, ABS, FL, XAS/XES, NRVS
   Peter Pinski           : DLPNO-MP2, DLPNO-MP2 Gradient
   Christoph Reimann      : Effective Core Potentials
   Marius Retegan         : Local ZFS, SOC
   Christoph Riplinger    : Optimizer, TS searches, QM/MM, DLPNO-CCSD(T), (RO)-DLPNO pert. Triples
   Tobias Risthaus        : Range-separated hybrids, TD-DFT gradient, RPA, STAB
   Michael Roemelt        : Original ROCIS implementation
   Masaaki Saitow         : Open-shell DLPNO-CCSD energy and density
   Barbara Sandhoefer     : DKH picture change effects
   Avijit Sen             : IP-ROCIS
   Kantharuban Sivalingam : CASSCF convergence, NEVPT2, FIC-MRCI
   Bernardo de Souza      : ESD, SOC TD-DFT
   Georgi Stoychev        : AutoAux, RI-MP2 NMR
   Willem Van den Heuvel  : Paramagnetic NMR
   Boris Wezisla          : Elementary symmetry handling
   Frank Wennmohs         : Technical directorship


 We gratefully acknowledge several colleagues who have allowed us to
 interface, adapt or use parts of their codes:
   Stefan Grimme, W. Hujo, H. Kruse,             : VdW corrections, initial TS optimization,
                  C. Bannwarth                     DFT functionals, gCP, sTDA/sTD-DF
   Ed Valeev, F. Pavosevic, A. Kumar             : LibInt (2-el integral package), F12 methods
   Garnet Chan, S. Sharma, J. Yang, R. Olivares  : DMRG
   Ulf Ekstrom                                   : XCFun DFT Library
   Mihaly Kallay                                 : mrcc  (arbitrary order and MRCC methods)
   Andreas Klamt, Michael Diedenhofen            : otool_cosmo (COSMO solvation model)
   Jiri Pittner, Ondrej Demel                    : Mk-CCSD
   Frank Weinhold                                : gennbo (NPA and NBO analysis)
   Christopher J. Cramer and Donald G. Truhlar   : smd solvation model
   Lars Goerigk                                  : TD-DFT with DH, B97 family of functionals
   V. Asgeirsson, H. Jonsson                     : NEB implementation
   FAccTs GmbH                                   : IRC, NEB, NEB-TS, Multilevel, MM, QM/MM, CI optimization
   S Lehtola, MJT Oliveira, MAL Marques          : LibXC Library


 Your calculation uses the libint2 library for the computation of 2-el integrals
 For citations please refer to: http://libint.valeyev.net

 Your ORCA version has been built with support for libXC version: 4.2.3
 For citations please refer to: https://tddft.org/programs/libxc/

 This ORCA versions uses:
   CBLAS   interface :  Fast vector & matrix operations
   LAPACKE interface :  Fast linear algebra routines
   SCALAPACK package :  Parallel linear algebra routines


----- Orbital basis set information -----
Your calculation utilizes the basis: ANO-RCC-QZP
   H, He:       P.-O. Widmark, P.-A. Malmqvist, and B. O. Roos, Theor. Chim. Acta 77, 291 (1990).
   s block:     B. O. Roos, V. Veryazov and P.-O. Widmark, Theor. Chem. Acc. 111, 345 (2004).
   p block:     B. O. Roos, R. Lindh, P.-A. Malmqvist, V. Veryazov, and P.-O. Widmark, J. Phys. Chem. A 108, 2851 (2004).
   d block:     B. O. Roos, R. Lindh, P.-A. Malmqvist, V. Veryazov, and P.-O. Widmark, J. Phys. Chem. A 109, 6575 (2005).
   actinides:   B. O. Roos, R. Lindh, P.-A. Malmqvist, V. Veryazov, and P.-O. Widmark, Chem. Phys. Letters 409, 295 (2005).
   lanthanides: B. O. Roos, R. Lindh, P.-A. Malmqvist, V. Veryazov, P.-O. Widmark and A. C. Borin, J. Phys. Chem. A 112, 11431 (2008).

================================================================================
                                        WARNINGS
                       Please study these warnings very carefully!
================================================================================


INFO   : the flag for use of LIBINT has been found!

================================================================================
                                       INPUT FILE
================================================================================
NAME = Ar_ano-rcc-qzp_2192.575824_.inp
|  1> ! LDA ano-rcc-qzp nori grid5 finalgrid6 verytightscf
|  2> %Pal NProcs 18 End
|  3> 
|  4> % REL
|  5>   Method ZORA
|  6>   ModelPot 1, 0, 0, 0
|  7>   velit 2192.575824
|  8> END
|  9> 
| 10> *xyz 16 1
| 11> Ar 0.0 0.0 0.0
| 12> **                         ****END OF INPUT****
================================================================================

                       ****************************
                       * Single Point Calculation *
                       ****************************

---------------------------------
CARTESIAN COORDINATES (ANGSTROEM)
---------------------------------
  Ar     0.000000    0.000000    0.000000

----------------------------
CARTESIAN COORDINATES (A.U.)
----------------------------
  NO LB      ZA    FRAG     MASS         X           Y           Z
   0 Ar   18.0000    0    39.948    0.000000    0.000000    0.000000

--------------------------------
INTERNAL COORDINATES (ANGSTROEM)
--------------------------------
 Ar     0   0   0     0.000000000000     0.00000000     0.00000000

---------------------------
INTERNAL COORDINATES (A.U.)
---------------------------
 Ar     0   0   0     0.000000000000     0.00000000     0.00000000

---------------------
BASIS SET INFORMATION
---------------------
There are 1 groups of distinct atoms

 Group   1 Type Ar  : 102s60p15d8f contracted to 6s5p3d2f pattern {171717171717/1212121212/555/44}

Atom   0Ar   basis set group =>   1


           ************************************************************
           *        Program running with 18 parallel MPI-processes    *
           *              working on a common directory               *
           ************************************************************


------------------------------------------------------------------------------
                       ORCA GTO INTEGRAL CALCULATION
                     -- ANO INTEGRAL GENERATION BRANCH --
------------------------------------------------------------------------------


Gathering ANO information                         ... done
Calculation Information:
Number of atoms                                   ... 1
Number of basis functions                         ... 50
Highest angular momentum                          ... 3
Number of primitive shells                        ... 38
Total number of shells                            ... 16
Maximum number of shells                          ... 16

Getting memory                                    ... done
Making prescreening integrals                     ... done
Gathering atom contracted prescreening            ... done
Making one-electron integrals                     ... done

Timings:

Total time                                        ...    0.2 sec
Prescreening matrix                               ...    0.2 sec
One-electron matrix                               ...    0.0 sec
Two-index integrals + Cholesky                    ...    0.0 sec


           ************************************************************
           *        Program running with 18 parallel MPI-processes    *
           *              working on a common directory               *
           ************************************************************
------------------------------------------------------------------------------
                          ORCA RELATIVISTIC HAMILTONIAN
------------------------------------------------------------------------------

Relativistic Method            ... ZORA(MP)
Treatment of potential         ... Van Wuellen
Nucleus model                  ... Point Nucleus
Speed of light used            ... 2192.57582400000001


            *************************************************
            *         ZERO ORDER REGULAR APPROXIMATION      *
            *                     ZORA(MP)                  *
            *            Programmed by FN according to      *
            *                   C. van Wuellen              *
            *       J. Chem. Phys. (1998) vol 109, 392-399  *
            *************************************************

Terms included in model potential: +V(e,N)
Basis function cutoff value   ... 1.000000e-12
Loading the fitted atomic densities  (DKH4)  ... done
Calculating the cutoffs                      ... done
Number of fit functions                      ... 15
Setting up the integration grid ... done


           ************************************************************
           *        Program running with 18 parallel MPI-processes    *
           *              working on a common directory               *
           ************************************************************
-------------------------------------------------------------------------------
                                 ORCA SCF
-------------------------------------------------------------------------------

------------
SCF SETTINGS
------------
Hamiltonian:
 Density Functional     Method          .... DFT(GTOs)
 Exchange Functional    Exchange        .... Slater
   X-Alpha parameter    XAlpha          ....  0.666667
 Correlation Functional Correlation     .... VWN-5
 Gradients option       PostSCFGGA      .... off
   Density functional embedding theory  .... OFF

Relativistic Settings:
 Scalar relativistic method             .... ZORA
 Speed of light used       Velit        ....       2192.57582
Orbital energies will be scaled


General Settings:
 Integral files         IntName         .... Ar_ano-rcc-qzp_2192.575824_
 Hartree-Fock type      HFTyp           .... RHF
 Total Charge           Charge          ....   16
 Multiplicity           Mult            ....    1
 Number of Electrons    NEL             ....    2
 Basis Dimension        Dim             ....   50
 Nuclear Repulsion      ENuc            ....      0.0000000000 Eh

Convergence Acceleration:
 DIIS                   CNVDIIS         .... on
   Start iteration      DIISMaxIt       ....    12
   Startup error        DIISStart       ....  0.200000
   # of expansion vecs  DIISMaxEq       ....     5
   Bias factor          DIISBfac        ....   1.050
   Max. coefficient     DIISMaxC        ....  10.000
 Newton-Raphson         CNVNR           .... off
 SOSCF                  CNVSOSCF        .... on
   Start iteration      SOSCFMaxIt      ....   150
   Startup grad/error   SOSCFStart      ....  0.003300
 Level Shifting         CNVShift        .... on
   Level shift para.    LevelShift      ....    0.2500
   Turn off err/grad.   ShiftErr        ....    0.0010
 Zerner damping         CNVZerner       .... off
 Static damping         CNVDamp         .... on
   Fraction old density DampFac         ....    0.7000
   Max. Damping (<1)    DampMax         ....    0.9800
   Min. Damping (>=0)   DampMin         ....    0.0000
   Turn off err/grad.   DampErr         ....    0.1000
 Fernandez-Rico         CNVRico         .... off

SCF Procedure:
 Maximum # iterations   MaxIter         ....   125
 SCF integral mode      SCFMode         .... Direct
   Integral package                     .... LIBINT
 Reset frequency        DirectResetFreq ....    20
 Integral Threshold     Thresh          ....  1.000e-12 Eh
 Primitive CutOff       TCut            ....  1.000e-14 Eh

Convergence Tolerance:
 Convergence Check Mode ConvCheckMode   .... Total+1el-Energy
 Convergence forced     ConvForced      .... 0
 Energy Change          TolE            ....  1.000e-09 Eh
 1-El. energy change                    ....  1.000e-06 Eh
 Orbital Gradient       TolG            ....  2.000e-06
 Orbital Rotation angle TolX            ....  2.000e-06
 DIIS Error             TolErr          ....  1.000e-08


Diagonalization of the overlap matrix:
Smallest eigenvalue                        ... 1.000e+00
Time for diagonalization                   ...    0.001 sec
Threshold for overlap eigenvalues          ... 1.000e-08
Number of eigenvalues below threshold      ... 0
Time for construction of square roots      ...    0.001 sec
Total time needed                          ...    0.002 sec

-------------------
DFT GRID GENERATION
-------------------

General Integration Accuracy     IntAcc      ...  5.010
Radial Grid Type                 RadialGrid  ... Gauss-Chebyshev
Angular Grid (max. acc.)         AngularGrid ... Lebedev-434
Angular grid pruning method      GridPruning ... 3 (G Style)
Weight generation scheme         WeightScheme... Becke
Basis function cutoff            BFCut       ...    1.0000e-12
Integration weight cutoff        WCut        ...    1.0000e-14
Grids for H and He will be reduced by one unit

# of grid points (after initial pruning)     ...  11992 (   0.0 sec)
# of grid points (after weights+screening)   ...  11992 (   0.0 sec)
Grid point division into batches done        ...    0.1 sec
Reduced shell lists constructed in    0.1 sec

Total number of grid points                  ...    11992
Total number of batches                      ...      188
Average number of points per batch           ...       63
Average number of grid points per atom       ...    11992
Average number of shells per batch           ...     9.50 (59.38%)
Average number of basis functions per batch  ...    25.83 (51.67%)
Average number of large shells per batch     ...     5.83 (61.40%)
Average number of large basis fcns per batch ...    14.83 (57.42%)
Maximum spatial batch extension              ...  18.71, 18.71, 18.71 au
Average spatial batch extension              ...   0.97,  0.98,  0.97 au

Time for grid setup =    0.147 sec

------------------------------
INITIAL GUESS: MODEL POTENTIAL
------------------------------
Loading ZORA relativistic densities                ... done
Calculating cut-offs                               ... done
Setting up the integral package                    ... done
Initializing the effective Hamiltonian             ... done
Starting the Coulomb interaction                   ... done (   0.0 sec)
Reading the grid                                   ... done
Mapping shells                                     ... done
Starting the XC term evaluation                    ... done (   0.0 sec)
  promolecular density results
     # of electrons  =     18.000000116
     EX              =    -28.047870263
     EC              =     -1.433252902
     EX+EC           =    -29.481123164
Transforming the Hamiltonian                       ... done (   0.0 sec)
Diagonalizing the Hamiltonian                      ... done (   0.0 sec)
Back transforming the eigenvectors                 ... done (   0.0 sec)
Now organizing SCF variables                       ... done
                      ------------------
                      INITIAL GUESS DONE (   0.2 sec)
                      ------------------
--------------
SCF ITERATIONS
--------------
ITER       Energy         Delta-E        Max-DP      RMS-DP      [F,P]     Damp
               ***  Starting incremental Fock matrix formation  ***
  0   -311.0456237994   0.000000000000 0.00522313  0.00012366  1.9291410 0.7000
                      *** Initiating the SOSCF procedure ***
                      *** Re-Reading the Fockian *** 
                      *** Removing any level shift *** 
ITER      Energy       Delta-E        Grad      Rot      Max-DP    RMS-DP
  1   -311.05317013  -0.0075463257  0.000707  0.000707  0.012177  0.000288
               *** Restarting incremental Fock matrix formation ***
  2   -311.07059977  -0.0174296435  0.007094  0.000063  0.000114  0.000003
  3   -311.07060099  -0.0000012196  0.000068  0.000001  0.000001  0.000000
                 **** Energy Check signals convergence ****
              ***Rediagonalizing the Fockian in SOSCF/NRSCF***

               *****************************************************
               *                     SUCCESS                       *
               *           SCF CONVERGED AFTER   4 CYCLES          *
               *****************************************************

Setting up the final grid:

General Integration Accuracy     IntAcc      ...  5.340
Radial Grid Type                 RadialGrid  ... Gauss-Chebyshev
Angular Grid (max. acc.)         AngularGrid ... Lebedev-590
Angular grid pruning method      GridPruning ... 3 (G Style)
Weight generation scheme         WeightScheme... Becke
Basis function cutoff            BFCut       ...    1.0000e-12
Integration weight cutoff        WCut        ...    1.0000e-14
Grids for H and He will be reduced by one unit

# of grid points (after initial pruning)     ...  18110 (   0.0 sec)
# of grid points (after weights+screening)   ...  18110 (   0.0 sec)
Grid point division into batches done        ...    0.2 sec
Reduced shell lists constructed in    0.2 sec

Total number of grid points                  ...    18110
Total number of batches                      ...      283
Average number of points per batch           ...       63
Average number of grid points per atom       ...    18110
Average number of shells per batch           ...     3.88 (24.26%)
Average number of basis functions per batch  ...     9.29 (18.59%)
Average number of large shells per batch     ...     2.12 (54.55%)
Average number of large basis fcns per batch ...     6.35 (68.35%)
Maximum spatial batch extension              ...  19.03, 19.03, 19.03 au
Average spatial batch extension              ...   0.84,  0.84,  0.80 au

Final grid set up in    0.2 sec
Final integration                            ... done (   0.0 sec)
Change in XC energy                          ...     0.000014067
Integrated number of electrons               ...     2.000000249
Previous integrated no of electrons          ...     2.000000961

----------------
TOTAL SCF ENERGY
----------------

Total Energy       :         -311.07058692 Eh           -8464.66101 eV

Components:
Nuclear Repulsion  :            0.00000000 Eh               0.00000 eV
Electronic Energy  :         -311.07058692 Eh           -8464.66101 eV
One Electron Energy:         -323.44046395 Eh           -8801.26247 eV
Two Electron Energy:           12.36987703 Eh             336.60147 eV

Virial components:
Potential Energy   :         -630.58236538 Eh          -17159.01851 eV
Kinetic Energy     :          319.51177846 Eh            8694.35750 eV
Virial Ratio       :            1.97358097


DFT components:
N(Alpha)           :        1.000000124426 electrons
N(Beta)            :        1.000000124426 electrons
N(Total)           :        2.000000248852 electrons
E(X)               :       -9.488048652557 Eh       
E(C)               :       -0.237086076664 Eh       
E(XC)              :       -9.725134729221 Eh       
DFET-embed. en.    :        0.000000000000 Eh       

---------------
SCF CONVERGENCE
---------------

  Last Energy change         ...   -1.1295e-10  Tolerance :   1.0000e-09
  Last MAX-Density change    ...    0.0000e+00  Tolerance :   1.0000e-08
  Last RMS-Density change    ...    0.0000e+00  Tolerance :   1.0000e-09
  Last Orbital Gradient      ...    2.5074e-10  Tolerance :   2.0000e-06
  Last Orbital Rotation      ...    0.0000e+00  Tolerance :   2.0000e-06

================================================================================
                                        WARNING
Number of found core electrons (2) does not match given number of chemical core electrons (10)
================================================================================
             **** THE GBW FILE WAS UPDATED (Ar_ano-rcc-qzp_2192.575824_.gbw) ****
             **** DENSITY FILE WAS UPDATED (Ar_ano-rcc-qzp_2192.575824_.scfp) ****
             **** ENERGY FILE WAS UPDATED (Ar_ano-rcc-qzp_2192.575824_.en.tmp) ****
             **** THE GBW FILE WAS UPDATED (Ar_ano-rcc-qzp_2192.575824_.gbw) ****
             **** DENSITY FILE WAS UPDATED (Ar_ano-rcc-qzp_2192.575824_.scfp) ****
----------------
ORBITAL ENERGIES
----------------

  NO   OCC          E(Eh)            E(eV) 
   0   2.0000    -146.078690     -3975.0032 
   1   0.0000     -33.973150      -924.4564 
   2   0.0000     -33.021941      -898.5727 
   3   0.0000     -33.021941      -898.5727 
   4   0.0000     -33.021941      -898.5727 
   5   0.0000     -14.629117      -398.0785 
   6   0.0000     -14.195574      -386.2812 
   7   0.0000     -14.195574      -386.2812 
   8   0.0000     -14.195574      -386.2812 
   9   0.0000     -11.399516      -310.1966 
  10   0.0000     -11.399516      -310.1966 
  11   0.0000     -11.399516      -310.1966 
  12   0.0000     -11.399516      -310.1966 
  13   0.0000     -11.399516      -310.1966 
  14   0.0000      -8.143767      -221.6032 
  15   0.0000      -7.954161      -216.4437 
  16   0.0000      -7.954161      -216.4437 
  17   0.0000      -7.954161      -216.4437 
  18   0.0000      -7.578142      -206.2117 
  19   0.0000      -7.578142      -206.2117 
  20   0.0000      -7.578142      -206.2117 
  21   0.0000      -7.578142      -206.2117 
  22   0.0000      -7.578142      -206.2117 
  23   0.0000      -7.578142      -206.2117 
  24   0.0000      -7.578142      -206.2117 
  25   0.0000      -6.226445      -169.4302 
  26   0.0000      -6.226445      -169.4302 
  27   0.0000      -6.226445      -169.4302 
  28   0.0000      -6.226445      -169.4302 
  29   0.0000      -6.226445      -169.4302 
  30   0.0000      -5.150314      -140.1472 
  31   0.0000      -5.103008      -138.8599 
  32   0.0000      -5.103008      -138.8599 
  33   0.0000      -5.103008      -138.8599 
  34   0.0000      -4.862248      -132.3085 
  35   0.0000      -4.862248      -132.3085 
  36   0.0000      -4.862248      -132.3085 
  37   0.0000      -4.862248      -132.3085 
  38   0.0000      -4.862248      -132.3085 
  39   0.0000      -4.862248      -132.3085 
  40   0.0000      -4.862248      -132.3085 
  41   0.0000      -4.263611      -116.0188 
  42   0.0000      -4.263611      -116.0188 
  43   0.0000      -4.263611      -116.0187 
  44   0.0000      -4.263611      -116.0187 
  45   0.0000      -4.263610      -116.0187 
  46   0.0000      -3.418057       -93.0101 
  47   0.0000      -3.417840       -93.0042 
  48   0.0000      -3.417840       -93.0042 
  49   0.0000      -3.417838       -93.0041 

                    ********************************
                    * MULLIKEN POPULATION ANALYSIS *
                    ********************************

-----------------------
MULLIKEN ATOMIC CHARGES
-----------------------
   0 Ar:   16.000000
Sum of atomic charges:   16.0000000

--------------------------------
MULLIKEN REDUCED ORBITAL CHARGES
--------------------------------
  0 Ars       :     2.000000  s :     2.000000
      pz      :     0.000000  p :     0.000000
      px      :     0.000000
      py      :     0.000000
      dz2     :     0.000000  d :     0.000000
      dxz     :     0.000000
      dyz     :     0.000000
      dx2y2   :     0.000000
      dxy     :     0.000000
      f0      :     0.000000  f :     0.000000
      f+1     :     0.000000
      f-1     :     0.000000
      f+2     :     0.000000
      f-2     :     0.000000
      f+3     :     0.000000
      f-3     :     0.000000


                     *******************************
                     * LOEWDIN POPULATION ANALYSIS *
                     *******************************

----------------------
LOEWDIN ATOMIC CHARGES
----------------------
   0 Ar:   16.000000

-------------------------------
LOEWDIN REDUCED ORBITAL CHARGES
-------------------------------
  0 Ars       :     2.000000  s :     2.000000
      pz      :     0.000000  p :     0.000000
      px      :     0.000000
      py      :     0.000000
      dz2     :     0.000000  d :     0.000000
      dxz     :     0.000000
      dyz     :     0.000000
      dx2y2   :     0.000000
      dxy     :     0.000000
      f0      :     0.000000  f :     0.000000
      f+1     :     0.000000
      f-1     :     0.000000
      f+2     :     0.000000
      f-2     :     0.000000
      f+3     :     0.000000
      f-3     :     0.000000


                      *****************************
                      * MAYER POPULATION ANALYSIS *
                      *****************************

  NA   - Mulliken gross atomic population
  ZA   - Total nuclear charge
  QA   - Mulliken gross atomic charge
  VA   - Mayer's total valence
  BVA  - Mayer's bonded valence
  FA   - Mayer's free valence

  ATOM       NA         ZA         QA         VA         BVA        FA
  0 Ar     2.0000    18.0000    16.0000    -0.0000     0.0000    -0.0000

  Mayer bond orders larger than 0.100000


--------------------------
ATOM BASIS FOR ELEMENT Ar
--------------------------
 NewGTO Ar
 S 102
    1     455476.770000000019         0.000319857254
    2      64817.743000000002         0.001011611315
    3      19256.987000000001         0.002170201368
    4       6877.007300000000         0.005962898805
    5       2643.487700000000         0.015907983420
    6       1054.237500000000         0.044046511834
    7        429.371220000000         0.114459237299
    8        177.188590000000         0.254626483879
    9         73.763945000000         0.398474238860
   10         30.897007000000         0.278947565068
   11         12.999482000000         0.038335010871
   12          5.487679300000         0.003118583225
   13          2.322571600000        -0.001384658112
   14          0.984980700000         0.001002731391
   15          0.418397300000        -0.000643174478
   16          0.177959400000         0.000282017579
   17          0.071183800000        -0.000076279345
   18     455476.770000000019         0.000000369220
   19      64817.743000000002         0.000001169337
   20      19256.987000000001         0.000002515559
   21       6877.007300000000         0.000006934658
   22       2643.487700000000         0.000018681797
   23       1054.237500000000         0.000052669651
   24        429.371220000000         0.000143360859
   25        177.188590000000         0.000353247815
   26         73.763945000000         0.000704865182
   27         30.897007000000         0.000749484570
   28         12.999482000000        -0.000552271977
   29          5.487679300000        -0.002560168164
   30          2.322571600000        -0.001540999632
   31          0.984980700000        -0.000020068559
   32          0.418397300000        -0.000047322682
   33          0.177959400000         0.000017974580
   34          0.071183800000        -0.000005208809
   35     455476.770000000019         0.000000018835
   36      64817.743000000002         0.000000059601
   37      19256.987000000001         0.000000128688
   38       6877.007300000000         0.000000352660
   39       2643.487700000000         0.000000959166
   40       1054.237500000000         0.000002681859
   41        429.371220000000         0.000007412946
   42        177.188590000000         0.000018239432
   43         73.763945000000         0.000037888582
   44         30.897007000000         0.000041144917
   45         12.999482000000        -0.000031762886
   46          5.487679300000        -0.000215056781
   47          2.322571600000        -0.000227707976
   48          0.984980700000         0.000223448087
   49          0.418397300000         0.000443752186
   50          0.177959400000         0.000166751356
   51          0.071183800000         0.000002958292
   52     455476.770000000019         0.000000018840
   53      64817.743000000002         0.000000059601
   54      19256.987000000001         0.000000128782
   55       6877.007300000000         0.000000352743
   56       2643.487700000000         0.000000960152
   57       1054.237500000000         0.000002687398
   58        429.371220000000         0.000007441304
   59        177.188590000000         0.000018411062
   60         73.763945000000         0.000038721169
   61         30.897007000000         0.000043042451
   62         12.999482000000        -0.000047090799
   63          5.487679300000        -0.000226847426
   64          2.322571600000        -0.000363416137
   65          0.984980700000         0.001033922430
   66          0.418397300000         0.000001454750
   67          0.177959400000        -0.000645784648
   68          0.071183800000        -0.000025019699
   69     455476.770000000019         0.000000019208
   70      64817.743000000002         0.000000058063
   71      19256.987000000001         0.000000143939
   72       6877.007300000000         0.000000299692
   73       2643.487700000000         0.000001169451
   74       1054.237500000000         0.000002122676
   75        429.371220000000         0.000009318740
   76        177.188590000000         0.000014119987
   77         73.763945000000         0.000053599472
   78         30.897007000000         0.000011571681
   79         12.999482000000         0.000014447915
   80          5.487679300000        -0.000514268395
   81          2.322571600000         0.000271143548
   82          0.984980700000         0.001098246087
   83          0.418397300000        -0.001742457253
   84          0.177959400000         0.000817419765
   85          0.071183800000         0.000096681655
   86     455476.770000000019         0.000000006000
   87      64817.743000000002         0.000000017492
   88      19256.987000000001         0.000000048093
   89       6877.007300000000         0.000000078834
   90       2643.487700000000         0.000000413592
   91       1054.237500000000         0.000000509716
   92        429.371220000000         0.000003368245
   93        177.188590000000         0.000003288186
   94         73.763945000000         0.000020881774
   95         30.897007000000        -0.000005865142
   96         12.999482000000         0.000016740173
   97          5.487679300000        -0.000258770041
   98          2.322571600000         0.000499566699
   99          0.984980700000        -0.000417929316
  100          0.418397300000         0.000087556331
  101          0.177959400000         0.000188190041
  102          0.071183800000        -0.000165979517
 S 101
    1     455476.770000000019        -0.000001321155
    2      64817.743000000002        -0.000004178413
    3      19256.987000000001        -0.000008963915
    4       6877.007300000000        -0.000024629475
    5       2643.487700000000        -0.000065707182
    6       1054.237500000000        -0.000181932059
    7        429.371220000000        -0.000472768530
    8        177.188590000000        -0.001051722791
    9         73.763945000000        -0.001645879220
   10         30.897007000000        -0.001152179880
   11         12.999482000000        -0.000158340971
   12          5.487679300000        -0.000012881162
   13          2.322571600000         0.000005719266
   14          0.984980700000        -0.000004141735
   15          0.418397300000         0.000002656602
   16          0.177959400000        -0.000001164860
   17     455476.770000000019         0.000090201617
   18      64817.743000000002         0.000285672946
   19      19256.987000000001         0.000614559493
   20       6877.007300000000         0.001694160406
   21       2643.487700000000         0.004564026408
   22       1054.237500000000         0.012867374502
   23        429.371220000000         0.035023544591
   24        177.188590000000         0.086299640792
   25         73.763945000000         0.172200957628
   26         30.897007000000         0.183101625464
   27         12.999482000000        -0.134921919286
   28          5.487679300000        -0.625457776400
   29          2.322571600000        -0.376471443117
   30          0.984980700000        -0.004902817099
   31          0.418397300000        -0.011561091890
   32          0.177959400000         0.004391250843
   33          0.071183800000        -0.001272529685
   34     455476.770000000019         0.000002876604
   35      64817.743000000002         0.000009102448
   36      19256.987000000001         0.000019653646
   37       6877.007300000000         0.000053859466
   38       2643.487700000000         0.000146486923
   39       1054.237500000000         0.000409582292
   40        429.371220000000         0.001132129388
   41        177.188590000000         0.002785585854
   42         73.763945000000         0.005786468281
   43         30.897007000000         0.006283786508
   44         12.999482000000        -0.004850932065
   45          5.487679300000        -0.032844176073
   46          2.322571600000        -0.034776307940
   47          0.984980700000         0.034125723714
   48          0.418397300000         0.067771287334
   49          0.177959400000         0.025466813242
   50          0.071183800000         0.000451800018
   51     455476.770000000019         0.000003063897
   52      64817.743000000002         0.000009692469
   53      19256.987000000001         0.000020942913
   54       6877.007300000000         0.000057364160
   55       2643.487700000000         0.000156142983
   56       1054.237500000000         0.000437033425
   57        429.371220000000         0.001210128981
   58        177.188590000000         0.002994066483
   59         73.763945000000         0.006296961951
   60         30.897007000000         0.006999702746
   61         12.999482000000        -0.007658058315
   62          5.487679300000        -0.036890663160
   63          2.322571600000        -0.059099909353
   64          0.984980700000         0.168139814500
   65          0.418397300000         0.000236576116
   66          0.177959400000        -0.105019591075
   67          0.071183800000        -0.004068784493
   68     455476.770000000019         0.000003734568
   69      64817.743000000002         0.000011289227
   70      19256.987000000001         0.000027986043
   71       6877.007300000000         0.000058269028
   72       2643.487700000000         0.000227376113
   73       1054.237500000000         0.000412711664
   74        429.371220000000         0.001811841137
   75        177.188590000000         0.002745347005
   76         73.763945000000         0.010421337281
   77         30.897007000000         0.002249880256
   78         12.999482000000         0.002809105889
   79          5.487679300000        -0.099989127274
   80          2.322571600000         0.052718399615
   81          0.984980700000         0.213531822930
   82          0.418397300000        -0.338785703829
   83          0.177959400000         0.158930802959
   84          0.071183800000         0.018797799667
   85     455476.770000000019         0.000003833026
   86      64817.743000000002         0.000011174685
   87      19256.987000000001         0.000030723896
   88       6877.007300000000         0.000050362640
   89       2643.487700000000         0.000264221876
   90       1054.237500000000         0.000325630093
   91        429.371220000000         0.002151789960
   92        177.188590000000         0.002100644236
   93         73.763945000000         0.013340237853
   94         30.897007000000        -0.003746922424
   95         12.999482000000         0.010694393027
   96          5.487679300000        -0.165314209412
   97          2.322571600000         0.319146194270
   98          0.984980700000        -0.266992477370
   99          0.418397300000         0.055935013289
  100          0.177959400000         0.120224457781
  101          0.071183800000        -0.106035352588
 S 99
    1     455476.770000000019        -0.000000088607
    2      64817.743000000002        -0.000000280237
    3      19256.987000000001        -0.000000601190
    4       6877.007300000000        -0.000001651845
    5       2643.487700000000        -0.000004406837
    6       1054.237500000000        -0.000012201786
    7        429.371220000000        -0.000031707553
    8        177.188590000000        -0.000070536750
    9         73.763945000000        -0.000110385524
   10         30.897007000000        -0.000077274188
   11         12.999482000000        -0.000010619583
   12          5.487679300000        -0.000000863911
   13          2.322571600000         0.000000383579
   14          0.984980700000        -0.000000277777
   15     455476.770000000019        -0.000014912472
   16      64817.743000000002        -0.000047228531
   17      19256.987000000001        -0.000101601299
   18       6877.007300000000        -0.000280085003
   19       2643.487700000000        -0.000754542099
   20       1054.237500000000        -0.002127282994
   21        429.371220000000        -0.005790224787
   22        177.188590000000        -0.014267382845
   23         73.763945000000        -0.028468913268
   24         30.897007000000        -0.030271052881
   25         12.999482000000         0.022305801727
   26          5.487679300000         0.103403043946
   27          2.322571600000         0.062239682111
   28          0.984980700000         0.000810552256
   29          0.418397300000         0.001911323414
   30          0.177959400000        -0.000725978189
   31          0.071183800000         0.000210379418
   32     455476.770000000019         0.000021278502
   33      64817.743000000002         0.000067331629
   34      19256.987000000001         0.000145379791
   35       6877.007300000000         0.000398403337
   36       2643.487700000000         0.001083576996
   37       1054.237500000000         0.003029717200
   38        429.371220000000         0.008374463310
   39        177.188590000000         0.020605230091
   40         73.763945000000         0.042803028373
   41         30.897007000000         0.046481736210
   42         12.999482000000        -0.035882782508
   43          5.487679300000        -0.242951336149
   44          2.322571600000        -0.257243490034
   45          0.984980700000         0.252431059771
   46          0.418397300000         0.501310331973
   47          0.177959400000         0.188380317137
   48          0.071183800000         0.003342005533
   49     455476.770000000019         0.000018089000
   50      64817.743000000002         0.000057223551
   51      19256.987000000001         0.000123645258
   52       6877.007300000000         0.000338673348
   53       2643.487700000000         0.000921855511
   54       1054.237500000000         0.002580209913
   55        429.371220000000         0.007144503397
   56        177.188590000000         0.017676725788
   57         73.763945000000         0.037176752864
   58         30.897007000000         0.041325677546
   59         12.999482000000        -0.045212555455
   60          5.487679300000        -0.217799484576
   61          2.322571600000        -0.348921073598
   62          0.984980700000         0.992683833727
   63          0.418397300000         0.001396726208
   64          0.177959400000        -0.620027151780
   65          0.071183800000        -0.024021773790
   66     455476.770000000019         0.000015739893
   67      64817.743000000002         0.000047580134
   68      19256.987000000001         0.000117951358
   69       6877.007300000000         0.000245583523
   70       2643.487700000000         0.000958310585
   71       1054.237500000000         0.001739434949
   72        429.371220000000         0.007636275073
   73        177.188590000000         0.011570674976
   74         73.763945000000         0.043922282414
   75         30.897007000000         0.009482456361
   76         12.999482000000         0.011839396312
   77          5.487679300000        -0.421419110426
   78          2.322571600000         0.222189568750
   79          0.984980700000         0.899961759045
   80          0.418397300000        -1.427862946953
   81          0.177959400000         0.669837605633
   82          0.071183800000         0.079226134177
   83     455476.770000000019         0.000010754259
   84      64817.743000000002         0.000031352633
   85      19256.987000000001         0.000086201537
   86       6877.007300000000         0.000141301641
   87       2643.487700000000         0.000741323024
   88       1054.237500000000         0.000913615061
   89        429.371220000000         0.006037242122
   90        177.188590000000         0.005893743394
   91         73.763945000000         0.037428488549
   92         30.897007000000        -0.010512679352
   93         12.999482000000         0.030005084720
   94          5.487679300000        -0.463819390786
   95          2.322571600000         0.895423290742
   96          0.984980700000        -0.749096454798
   97          0.418397300000         0.156935957771
   98          0.177959400000         0.337311807400
   99          0.071183800000        -0.297501665550
 S 98
    1     455476.770000000019        -0.000000022730
    2      64817.743000000002        -0.000000071889
    3      19256.987000000001        -0.000000154222
    4       6877.007300000000        -0.000000423744
    5       2643.487700000000        -0.000001130475
    6       1054.237500000000        -0.000003130093
    7        429.371220000000        -0.000008133859
    8        177.188590000000        -0.000018094615
    9         73.763945000000        -0.000028316921
   10         30.897007000000        -0.000019822953
   11         12.999482000000        -0.000002724215
   12          5.487679300000        -0.000000221617
   13          2.322571600000         0.000000098398
   14     455476.770000000019         0.000003438721
   15      64817.743000000002         0.000010890597
   16      19256.987000000001         0.000023428610
   17       6877.007300000000         0.000064585811
   18       2643.487700000000         0.000173992585
   19       1054.237500000000         0.000490537862
   20        429.371220000000         0.001335188829
   21        177.188590000000         0.003289967297
   22         73.763945000000         0.006564749447
   23         30.897007000000         0.006980311324
   24         12.999482000000        -0.005143575316
   25          5.487679300000        -0.023844081056
   26          2.322571600000        -0.014352072903
   27          0.984980700000        -0.000186908170
   28          0.418397300000        -0.000440738964
   29          0.177959400000         0.000167405930
   30          0.071183800000        -0.000048512149
   31     455476.770000000019         0.000018839945
   32      64817.743000000002         0.000059615295
   33      19256.987000000001         0.000128718989
   34       6877.007300000000         0.000352745553
   35       2643.487700000000         0.000959397001
   36       1054.237500000000         0.002682505818
   37        429.371220000000         0.007414733808
   38        177.188590000000         0.018243831340
   39         73.763945000000         0.037897719512
   40         30.897007000000         0.041154840400
   41         12.999482000000        -0.031770547050
   42          5.487679300000        -0.215108648673
   43          2.322571600000        -0.227762894406
   44          0.984980700000         0.223501977850
   45          0.418397300000         0.443859209774
   46          0.177959400000         0.166791572741
   47          0.071183800000         0.002959005311
   48     455476.770000000019        -0.000015185448
   49      64817.743000000002        -0.000048038323
   50      19256.987000000001        -0.000103798363
   51       6877.007300000000        -0.000284311259
   52       2643.487700000000        -0.000773884047
   53       1054.237500000000        -0.002166048005
   54        429.371220000000        -0.005997704781
   55        177.188590000000        -0.014839349479
   56         73.763945000000        -0.031209333384
   57         30.897007000000        -0.034692294203
   58         12.999482000000         0.037955270637
   59          5.487679300000         0.182839441354
   60          2.322571600000         0.292914073224
   61          0.984980700000        -0.833343375230
   62          0.418397300000        -0.001172530964
   63          0.177959400000         0.520503610358
   64          0.071183800000         0.020165923297
   65     455476.770000000019        -0.000025586917
   66      64817.743000000002        -0.000077346711
   67      19256.987000000001        -0.000191742830
   68       6877.007300000000        -0.000399222870
   69       2643.487700000000        -0.001557838648
   70       1054.237500000000        -0.002827641716
   71        429.371220000000        -0.012413600158
   72        177.188590000000        -0.018809397427
   73         73.763945000000        -0.071400472966
   74         30.897007000000        -0.015414769722
   75         12.999482000000        -0.019246233344
   76          5.487679300000         0.685062846178
   77          2.322571600000        -0.361193440432
   78          0.984980700000        -1.462986250146
   79          0.418397300000         2.321147357087
   80          0.177959400000        -1.088894274700
   81          0.071183800000        -0.128790744482
   82     455476.770000000019        -0.000015019941
   83      64817.743000000002        -0.000043788671
   84      19256.987000000001        -0.000120393423
   85       6877.007300000000        -0.000197349012
   86       2643.487700000000        -0.001035369197
   87       1054.237500000000        -0.001276000961
   88        429.371220000000        -0.008431917427
   89        177.188590000000        -0.008231499852
   90         73.763945000000        -0.052274518476
   91         30.897007000000         0.014682539218
   92         12.999482000000        -0.041906617562
   93          5.487679300000         0.647793599293
   94          2.322571600000        -1.250593416152
   95          0.984980700000         1.046225962758
   96          0.418397300000        -0.219184689046
   97          0.177959400000        -0.471106715546
   98          0.071183800000         0.415505859717
 S 98
    1     455476.770000000019         0.000000034289
    2      64817.743000000002         0.000000108446
    3      19256.987000000001         0.000000232649
    4       6877.007300000000         0.000000639231
    5       2643.487700000000         0.000001705358
    6       1054.237500000000         0.000004721848
    7        429.371220000000         0.000012270191
    8        177.188590000000         0.000027296317
    9         73.763945000000         0.000042716999
   10         30.897007000000         0.000029903571
   11         12.999482000000         0.000004109567
   12          5.487679300000         0.000000334317
   13          2.322571600000        -0.000000148437
   14     455476.770000000019        -0.000002011094
   15      64817.743000000002        -0.000006369233
   16      19256.987000000001        -0.000013701936
   17       6877.007300000000        -0.000037772221
   18       2643.487700000000        -0.000101757433
   19       1054.237500000000        -0.000286885063
   20        429.371220000000        -0.000780868839
   21        177.188590000000        -0.001924097094
   22         73.763945000000        -0.003839313339
   23         30.897007000000        -0.004082349615
   24         12.999482000000         0.003008157049
   25          5.487679300000         0.013944918874
   26          2.322571600000         0.008393634120
   27          0.984980700000         0.000109310955
   28          0.418397300000         0.000257760787
   29          0.177959400000        -0.000097905309
   30          0.071183800000         0.000028371737
   31     455476.770000000019         0.000004332248
   32      64817.743000000002         0.000013708544
   33      19256.987000000001         0.000029598947
   34       6877.007300000000         0.000081113882
   35       2643.487700000000         0.000220613455
   36       1054.237500000000         0.000616842533
   37        429.371220000000         0.001705018925
   38        177.188590000000         0.004195171196
   39         73.763945000000         0.008714585128
   40         30.897007000000         0.009463560466
   41         12.999482000000        -0.007305641089
   42          5.487679300000        -0.049464259456
   43          2.322571600000        -0.052374104773
   44          0.984980700000         0.051394306502
   45          0.418397300000         0.102065478303
   46          0.177959400000         0.038353742074
   47          0.071183800000         0.000680423625
   48     455476.770000000019        -0.000024380959
   49      64817.743000000002        -0.000077127815
   50      19256.987000000001        -0.000166653212
   51       6877.007300000000        -0.000456475258
   52       2643.487700000000        -0.001242507671
   53       1054.237500000000        -0.003477693168
   54        429.371220000000        -0.009629600492
   55        177.188590000000        -0.023825281882
   56         73.763945000000        -0.050108070187
   57         30.897007000000        -0.055700129557
   58         12.999482000000         0.060938993526
   59          5.487679300000         0.293557425518
   60          2.322571600000         0.470287486096
   61          0.984980700000        -1.337972452733
   62          0.418397300000        -0.001882554270
   63          0.177959400000         0.835693320313
   64          0.071183800000         0.032377349671
   65     455476.770000000019         0.000026278697
   66      64817.743000000002         0.000079437893
   67      19256.987000000001         0.000196926882
   68       6877.007300000000         0.000410016452
   69       2643.487700000000         0.001599957122
   70       1054.237500000000         0.002904091197
   71        429.371220000000         0.012749220220
   72        177.188590000000         0.019317937338
   73         73.763945000000         0.073330890479
   74         30.897007000000         0.015831530847
   75         12.999482000000         0.019766583761
   76          5.487679300000        -0.703584534632
   77          2.322571600000         0.370958839932
   78          0.984980700000         1.502540249739
   79          0.418397300000        -2.383903012929
   80          0.177959400000         1.118334143799
   81          0.071183800000         0.132272792967
   82     455476.770000000019         0.000021991814
   83      64817.743000000002         0.000064114253
   84      19256.987000000001         0.000176276971
   85       6877.007300000000         0.000288953378
   86       2643.487700000000         0.001515961107
   87       1054.237500000000         0.001868287984
   88        429.371220000000         0.012345797920
   89        177.188590000000         0.012052351631
   90         73.763945000000         0.076539013466
   91         30.897007000000        -0.021497798539
   92         12.999482000000         0.061358598021
   93          5.487679300000        -0.948482826144
   94          2.322571600000         1.831086906391
   95          0.984980700000        -1.531857306132
   96          0.418397300000         0.320924617873
   97          0.177959400000         0.689782408262
   98          0.071183800000        -0.608373056687
 S 99
    1     455476.770000000019         0.000000058315
    2      64817.743000000002         0.000000184434
    3      19256.987000000001         0.000000395664
    4       6877.007300000000         0.000001087137
    5       2643.487700000000         0.000002900293
    6       1054.237500000000         0.000008030420
    7        429.371220000000         0.000020867845
    8        177.188590000000         0.000046422692
    9         73.763945000000         0.000072648558
   10         30.897007000000         0.000050856834
   11         12.999482000000         0.000006989117
   12          5.487679300000         0.000000568570
   13          2.322571600000        -0.000000252446
   14          0.984980700000         0.000000182815
   15     455476.770000000019        -0.000001738266
   16      64817.743000000002        -0.000005505173
   17      19256.987000000001        -0.000011843111
   18       6877.007300000000        -0.000032647986
   19       2643.487700000000        -0.000087952869
   20       1054.237500000000        -0.000247965810
   21        429.371220000000        -0.000674935014
   22        177.188590000000        -0.001663071226
   23         73.763945000000        -0.003318466394
   24         30.897007000000        -0.003528532008
   25         12.999482000000         0.002600065999
   26          5.487679300000         0.012053130485
   27          2.322571600000         0.007254941259
   28          0.984980700000         0.000094481668
   29          0.418397300000         0.000222792576
   30          0.177959400000        -0.000084623329
   31          0.071183800000         0.000024522785
   32     455476.770000000019        -0.000001013072
   33      64817.743000000002        -0.000003205666
   34      19256.987000000001        -0.000006921546
   35       6877.007300000000        -0.000018968023
   36       2643.487700000000        -0.000051589209
   37       1054.237500000000        -0.000144245138
   38        429.371220000000        -0.000398709033
   39        177.188590000000        -0.000981017058
   40         73.763945000000        -0.002037856447
   41         30.897007000000        -0.002213000093
   42         12.999482000000         0.001708382851
   43          5.487679300000         0.011566937326
   44          2.322571600000         0.012247388197
   45          0.984980700000        -0.012018267913
   46          0.418397300000        -0.023867434865
   47          0.177959400000        -0.008968805673
   48          0.071183800000        -0.000159113216
   49     455476.770000000019         0.000001977575
   50      64817.743000000002         0.000006255950
   51      19256.987000000001         0.000013517487
   52       6877.007300000000         0.000037025379
   53       2643.487700000000         0.000100781623
   54       1054.237500000000         0.000282080804
   55        429.371220000000         0.000781071047
   56        177.188590000000         0.001932503627
   57         73.763945000000         0.004064339211
   58         30.897007000000         0.004517919364
   59         12.999482000000        -0.004942851320
   60          5.487679300000        -0.023810874191
   61          2.322571600000        -0.038145709124
   62          0.984980700000         0.108524911904
   63          0.418397300000         0.000152696743
   64          0.177959400000        -0.067784313332
   65          0.071183800000        -0.002626174413
   66     455476.770000000019        -0.000022254543
   67      64817.743000000002        -0.000067273275
   68      19256.987000000001        -0.000166770739
   69       6877.007300000000        -0.000347229114
   70       2643.487700000000        -0.001354949760
   71       1054.237500000000        -0.002459376953
   72        429.371220000000        -0.010796884894
   73        177.188590000000        -0.016359710024
   74         73.763945000000        -0.062101459542
   75         30.897007000000        -0.013407189875
   76         12.999482000000        -0.016739653558
   77          5.487679300000         0.595842028183
   78          2.322571600000        -0.314152538434
   79          0.984980700000        -1.272450694641
   80          0.418397300000         2.018847112605
   81          0.177959400000        -0.947079493121
   82          0.071183800000        -0.112017370131
   83     455476.770000000019         0.000051486207
   84      64817.743000000002         0.000150101292
   85      19256.987000000001         0.000412691406
   86       6877.007300000000         0.000676484143
   87       2643.487700000000         0.003549097287
   88       1054.237500000000         0.004373948504
   89        429.371220000000         0.028903405039
   90        177.188590000000         0.028216402303
   91         73.763945000000         0.179189560834
   92         30.897007000000        -0.050329641117
   93         12.999482000000         0.143649881738
   94          5.487679300000        -2.220543659746
   95          2.322571600000         4.286855078821
   96          0.984980700000        -3.586312724917
   97          0.418397300000         0.751333715099
   98          0.177959400000         1.614886333258
   99          0.071183800000        -1.424294564488
 P 60
    1       1462.496200000000         0.000940305582
    2        354.067310000000         0.006067859506
    3        126.697790000000         0.025182012904
    4         49.989095000000         0.090903408368
    5         20.509295000000         0.238467211000
    6          8.580464100000         0.406986554393
    7          3.630104900000         0.336429994394
    8          1.546528000000         0.071288955970
    9          0.661936900000         0.003435357790
   10          0.284242800000         0.000283864176
   11          0.122346300000         0.000465406242
   12          0.048938500000        -0.000083550999
   13       1462.496200000000         0.000029603910
   14        354.067310000000         0.000191823930
   15        126.697790000000         0.000802795279
   16         49.989095000000         0.002960214886
   17         20.509295000000         0.008022042108
   18          8.580464100000         0.014386516572
   19          3.630104900000         0.011891869953
   20          1.546528000000        -0.017461964588
   21          0.661936900000        -0.048200681484
   22          0.284242800000        -0.044214915910
   23          0.122346300000        -0.015815624347
   24          0.048938500000        -0.000729308583
   25       1462.496200000000         0.000035135583
   26        354.067310000000         0.000213712993
   27        126.697790000000         0.000972714927
   28         49.989095000000         0.003309964683
   29         20.509295000000         0.010045498812
   30          8.580464100000         0.015020794747
   31          3.630104900000         0.018329760795
   32          1.546528000000        -0.047011635731
   33          0.661936900000        -0.076828756742
   34          0.284242800000         0.053304071708
   35          0.122346300000         0.063147158966
   36          0.048938500000         0.006499456128
   37       1462.496200000000         0.000055323456
   38        354.067310000000         0.000323978204
   39        126.697790000000         0.001567297763
   40         49.989095000000         0.005094978162
   41         20.509295000000         0.017174150131
   42          8.580464100000         0.020264974318
   43          3.630104900000         0.027601820039
   44          1.546528000000        -0.162983868637
   45          0.661936900000         0.079309178120
   46          0.284242800000         0.121444381789
   47          0.122346300000        -0.120251849676
   48          0.048938500000        -0.012847985444
   49       1462.496200000000         0.000055207163
   50        354.067310000000         0.000575255125
   51        126.697790000000         0.001345708260
   52         49.989095000000         0.009703077480
   53         20.509295000000         0.015336173234
   54          8.580464100000         0.049604955107
   55          3.630104900000        -0.070412449935
   56          1.546528000000        -0.106153923373
   57          0.661936900000         0.284467924406
   58          0.284242800000        -0.280805162345
   59          0.122346300000         0.115589884244
   60          0.048938500000         0.018778367164
 P 60
    1       1462.496200000000        -0.000197174757
    2        354.067310000000        -0.001272382879
    3        126.697790000000        -0.005280471976
    4         49.989095000000        -0.019061736733
    5         20.509295000000        -0.050004716842
    6          8.580464100000        -0.085341910637
    7          3.630104900000        -0.070546749536
    8          1.546528000000        -0.014948738832
    9          0.661936900000        -0.000720367772
   10          0.284242800000        -0.000059524107
   11          0.122346300000        -0.000097592064
   12          0.048938500000         0.000017519994
   13       1462.496200000000         0.000171240698
   14        354.067310000000         0.001109585300
   15        126.697790000000         0.004643684656
   16         49.989095000000         0.017123050914
   17         20.509295000000         0.046402656818
   18          8.580464100000         0.083217288354
   19          3.630104900000         0.068787267994
   20          1.546528000000        -0.101006893158
   21          0.661936900000        -0.278811760284
   22          0.284242800000        -0.255756519538
   23          0.122346300000        -0.091483811603
   24          0.048938500000        -0.004218608605
   25       1462.496200000000         0.000179774826
   26        354.067310000000         0.001093484533
   27        126.697790000000         0.004976996084
   28         49.989095000000         0.016935775129
   29         20.509295000000         0.051398829066
   30          8.580464100000         0.076855443033
   31          3.630104900000         0.093786108547
   32          1.546528000000        -0.240539875063
   33          0.661936900000        -0.393102245018
   34          0.284242800000         0.272735771675
   35          0.122346300000         0.323098941186
   36          0.048938500000         0.033255136534
   37       1462.496200000000         0.000226044266
   38        354.067310000000         0.001323731749
   39        126.697790000000         0.006403769713
   40         49.989095000000         0.020817401521
   41         20.509295000000         0.070171287831
   42          8.580464100000         0.082799983400
   43          3.630104900000         0.112777356889
   44          1.546528000000        -0.665930358732
   45          0.661936900000         0.324046728535
   46          0.284242800000         0.496205553390
   47          0.122346300000        -0.491333026160
   48          0.048938500000        -0.052495155667
   49       1462.496200000000         0.000161866813
   50        354.067310000000         0.001686641890
   51        126.697790000000         0.003945602260
   52         49.989095000000         0.028449319645
   53         20.509295000000         0.044965496295
   54          8.580464100000         0.145441199126
   55          3.630104900000        -0.206448551959
   56          1.546528000000        -0.311242170745
   57          0.661936900000         0.834056919290
   58          0.284242800000        -0.823317740007
   59          0.122346300000         0.338908307343
   60          0.048938500000         0.055057972174
 P 60
    1       1462.496200000000        -0.000037736203
    2        354.067310000000        -0.000243514429
    3        126.697790000000        -0.001010600769
    4         49.989095000000        -0.003648121964
    5         20.509295000000        -0.009570130382
    6          8.580464100000        -0.016333123421
    7          3.630104900000        -0.013501558127
    8          1.546528000000        -0.002860957700
    9          0.661936900000        -0.000137867264
   10          0.284242800000        -0.000011391995
   11          0.122346300000        -0.000018677614
   12          0.048938500000         0.000003353056
   13       1462.496200000000        -0.000195352451
   14        354.067310000000        -0.001265821793
   15        126.697790000000        -0.005297544262
   16         49.989095000000        -0.019534082704
   17         20.509295000000        -0.052936438753
   18          8.580464100000        -0.094934798785
   19          3.630104900000        -0.078472942043
   20          1.546528000000         0.115229290303
   21          0.661936900000         0.318070185717
   22          0.284242800000         0.291768624053
   23          0.122346300000         0.104365299789
   24          0.048938500000         0.004812614867
   25       1462.496200000000         0.000039980133
   26        354.067310000000         0.000243180080
   27        126.697790000000         0.001106834410
   28         49.989095000000         0.003766347883
   29         20.509295000000         0.011430588183
   30          8.580464100000         0.017091885844
   31          3.630104900000         0.020857097400
   32          1.546528000000        -0.053493674922
   33          0.661936900000        -0.087422028056
   34          0.284242800000         0.060653721991
   35          0.122346300000         0.071853989793
   36          0.048938500000         0.007395611488
   37       1462.496200000000         0.000273877072
   38        354.067310000000         0.001603844162
   39        126.697790000000         0.007758859507
   40         49.989095000000         0.025222533123
   41         20.509295000000         0.085020103483
   42          8.580464100000         0.100321133824
   43          3.630104900000         0.136641963540
   44          1.546528000000        -0.806846642873
   45          0.661936900000         0.392617653819
   46          0.284242800000         0.601206687273
   47          0.122346300000        -0.595303093622
   48          0.048938500000        -0.063603557883
   49       1462.496200000000         0.000242956386
   50        354.067310000000         0.002531590079
   51        126.697790000000         0.005922210041
   52         49.989095000000         0.042701426897
   53         20.509295000000         0.067491626404
   54          8.580464100000         0.218302117932
   55          3.630104900000        -0.309872006057
   56          1.546528000000        -0.467163537372
   57          0.661936900000         1.251890063140
   58          0.284242800000        -1.235770933234
   59          0.122346300000         0.508689434097
   60          0.048938500000         0.082640077274
 P 59
    1       1462.496200000000        -0.000020827473
    2        354.067310000000        -0.000134401179
    3        126.697790000000        -0.000557773663
    4         49.989095000000        -0.002013481895
    5         20.509295000000        -0.005281973695
    6          8.580464100000        -0.009014624130
    7          3.630104900000        -0.007451818525
    8          1.546528000000        -0.001579027945
    9          0.661936900000        -0.000076092094
   10          0.284242800000        -0.000006287502
   11          0.122346300000        -0.000010308602
   12       1462.496200000000         0.000083352866
   13        354.067310000000         0.000540100077
   14        126.697790000000         0.002260352979
   15         49.989095000000         0.008334790584
   16         20.509295000000         0.022586887644
   17          8.580464100000         0.040506722480
   18          3.630104900000         0.033482787410
   19          1.546528000000        -0.049165963836
   20          0.661936900000        -0.135713994308
   21          0.284242800000        -0.124491659898
   22          0.122346300000        -0.044530522940
   23          0.048938500000        -0.002053443598
   24       1462.496200000000        -0.000252122822
   25        354.067310000000        -0.001533542893
   26        126.697790000000        -0.006979922203
   27         49.989095000000        -0.023751353397
   28         20.509295000000        -0.072083606685
   29          8.580464100000        -0.107784897592
   30          3.630104900000        -0.131529085076
   31          1.546528000000         0.337341960143
   32          0.661936900000         0.551301034125
   33          0.284242800000        -0.382494668685
   34          0.122346300000        -0.453125828351
   35          0.048938500000        -0.046638225535
   36       1462.496200000000         0.000051219668
   37        354.067310000000         0.000299946121
   38        126.697790000000         0.001451038615
   39         49.989095000000         0.004717042434
   40         20.509295000000         0.015900204547
   41          8.580464100000         0.018761757312
   42          3.630104900000         0.025554369860
   43          1.546528000000        -0.150894037222
   44          0.661936900000         0.073426175089
   45          0.284242800000         0.112435869999
   46          0.122346300000        -0.111331797636
   47          0.048938500000        -0.011894946475
   48       1462.496200000000         0.000326141712
   49        354.067310000000         0.003398375890
   50        126.697790000000         0.007949903102
   51         49.989095000000         0.057321878790
   52         20.509295000000         0.090599942653
   53          8.580464100000         0.293046121712
   54          3.630104900000        -0.415968431559
   55          1.546528000000        -0.627114680008
   56          0.661936900000         1.680522073208
   57          0.284242800000        -1.658883948259
   58          0.122346300000         0.682858541319
   59          0.048938500000         0.110935039809
 S 0
 P 59
    1       1462.496200000000        -0.000011389508
    2        354.067310000000        -0.000073497311
    3        126.697790000000        -0.000305018635
    4         49.989095000000        -0.001101072962
    5         20.509295000000        -0.002888448333
    6          8.580464100000        -0.004929648942
    7          3.630104900000        -0.004075028396
    8          1.546528000000        -0.000863491736
    9          0.661936900000        -0.000041610976
   10          0.284242800000        -0.000003438322
   11          0.122346300000        -0.000005637261
   12       1462.496200000000        -0.000025619075
   13        354.067310000000        -0.000166003465
   14        126.697790000000        -0.000694734999
   15         49.989095000000        -0.002561755082
   16         20.509295000000        -0.006942234916
   17          8.580464100000        -0.012450019125
   18          3.630104900000        -0.010291164480
   19          1.546528000000         0.015111496378
   20          0.661936900000         0.041712627465
   21          0.284242800000         0.038263365972
   22          0.122346300000         0.013686761809
   23          0.048938500000         0.000631139981
   24       1462.496200000000         0.000117082308
   25        354.067310000000         0.000712155846
   26        126.697790000000         0.003241378135
   27         49.989095000000         0.011029795940
   28         20.509295000000         0.033474617598
   29          8.580464100000         0.050053797189
   30          3.630104900000         0.061080265380
   31          1.546528000000        -0.156656882677
   32          0.661936900000        -0.256016480685
   33          0.284242800000         0.177625168276
   34          0.122346300000         0.210425289816
   35          0.048938500000         0.021658138889
   36       1462.496200000000        -0.000346908826
   37        354.067310000000        -0.002031523455
   38        126.697790000000        -0.009827828319
   39         49.989095000000        -0.031948345641
   40         20.509295000000        -0.107691469344
   41          8.580464100000        -0.127072655350
   42          3.630104900000        -0.173078756961
   43          1.546528000000         1.021999467726
   44          0.661936900000        -0.497312638985
   45          0.284242800000        -0.761523791186
   46          0.122346300000         0.754045951844
   47          0.048938500000         0.080564011607
   48       1462.496200000000         0.000354238219
   49        354.067310000000         0.003691139706
   50        126.697790000000         0.008634772595
   51         49.989095000000         0.062260052948
   52         20.509295000000         0.098404960648
   53          8.580464100000         0.318291504726
   54          3.630104900000        -0.451803344900
   55          1.546528000000        -0.681139453304
   56          0.661936900000         1.825295950965
   57          0.284242800000        -1.801793741452
   58          0.122346300000         0.741685545476
   59          0.048938500000         0.120491888927
 D 15
    1          4.328841700000         0.021682567925
    2          1.774230200000         0.150651072315
    3          0.727190600000         0.468292434177
    4          0.298048200000         0.237229933801
    5          0.119219300000         0.022393580902
    6          4.328841700000        -0.071899172851
    7          1.774230200000         0.399128507615
    8          0.727190600000         0.176562505501
    9          0.298048200000        -0.519640185563
   10          0.119219300000        -0.037333082409
   11          4.328841700000        -0.051302330937
   12          1.774230200000         0.478158598949
   13          0.727190600000        -0.580701174600
   14          0.298048200000         0.225948172290
   15          0.119219300000         0.116360343926
 D 15
    1          4.328841700000        -0.017358553082
    2          1.774230200000        -0.120607699451
    3          0.727190600000        -0.374903890748
    4          0.298048200000        -0.189920696328
    5          0.119219300000        -0.017927773321
    6          4.328841700000        -0.078583958123
    7          1.774230200000         0.436237256759
    8          0.727190600000         0.192978305425
    9          0.298048200000        -0.567953440374
   10          0.119219300000        -0.040804104808
   11          4.328841700000        -0.082707556687
   12          1.774230200000         0.770868081540
   13          0.727190600000        -0.936183101999
   14          0.298048200000         0.364264565111
   15          0.119219300000         0.187591471296
 D 15
    1          4.328841700000         0.002486702898
    2          1.774230200000         0.017277679444
    3          0.727190600000         0.053706929792
    4          0.298048200000         0.027207126294
    5          0.119219300000         0.002568246654
    6          4.328841700000         0.078358739784
    7          1.774230200000        -0.434987019020
    8          0.727190600000        -0.192425237669
    9          0.298048200000         0.566325709559
   10          0.119219300000         0.040687161950
   11          4.328841700000        -0.130018455502
   12          1.774230200000         1.211824909022
   13          0.727190600000        -1.471704471330
   14          0.298048200000         0.572633481716
   15          0.119219300000         0.294898729213
 F 8
    1          1.631174000000         0.223507509000
    2          0.820328800000         0.528928521856
    3          0.412549100000         0.240633071554
    4          0.165019600000         0.035459355428
    5          1.631174000000         0.355530486217
    6          0.820328800000         0.016556652671
    7          0.412549100000        -0.341146210924
    8          0.165019600000        -0.042806290770
 F 8
    1          1.631174000000        -0.101343213160
    2          0.820328800000        -0.239827807919
    3          0.412549100000        -0.109108319327
    4          0.165019600000        -0.016078050495
    5          1.631174000000         0.784105129366
    6          0.820328800000         0.036514889124
    7          0.412549100000        -0.752381312487
    8          0.165019600000        -0.094407184371
 end
  // -----------------------------------------------
  // The basis set
  // -----------------------------------------------
  BAS[ATNO] = new BFNGauss[NSH];
  // Basis function   1 L = s
  InitBFNGauss(BAS[ATNO][  0]);
  BAS[ATNO][  0].l  = 0;
  BAS[ATNO][  0].ng = 102;
  BAS[ATNO][  0].a[  0] =    455476.770000000019;     BAS[ATNO][  0].d[  0] =         0.000319857254;
  BAS[ATNO][  0].a[  1] =     64817.743000000002;     BAS[ATNO][  0].d[  1] =         0.001011611315;
  BAS[ATNO][  0].a[  2] =     19256.987000000001;     BAS[ATNO][  0].d[  2] =         0.002170201368;
  BAS[ATNO][  0].a[  3] =      6877.007300000000;     BAS[ATNO][  0].d[  3] =         0.005962898805;
  BAS[ATNO][  0].a[  4] =      2643.487700000000;     BAS[ATNO][  0].d[  4] =         0.015907983420;
  BAS[ATNO][  0].a[  5] =      1054.237500000000;     BAS[ATNO][  0].d[  5] =         0.044046511834;
  BAS[ATNO][  0].a[  6] =       429.371220000000;     BAS[ATNO][  0].d[  6] =         0.114459237299;
  BAS[ATNO][  0].a[  7] =       177.188590000000;     BAS[ATNO][  0].d[  7] =         0.254626483879;
  BAS[ATNO][  0].a[  8] =        73.763945000000;     BAS[ATNO][  0].d[  8] =         0.398474238860;
  BAS[ATNO][  0].a[  9] =        30.897007000000;     BAS[ATNO][  0].d[  9] =         0.278947565068;
  BAS[ATNO][  0].a[ 10] =        12.999482000000;     BAS[ATNO][  0].d[ 10] =         0.038335010871;
  BAS[ATNO][  0].a[ 11] =         5.487679300000;     BAS[ATNO][  0].d[ 11] =         0.003118583225;
  BAS[ATNO][  0].a[ 12] =         2.322571600000;     BAS[ATNO][  0].d[ 12] =        -0.001384658112;
  BAS[ATNO][  0].a[ 13] =         0.984980700000;     BAS[ATNO][  0].d[ 13] =         0.001002731391;
  BAS[ATNO][  0].a[ 14] =         0.418397300000;     BAS[ATNO][  0].d[ 14] =        -0.000643174478;
  BAS[ATNO][  0].a[ 15] =         0.177959400000;     BAS[ATNO][  0].d[ 15] =         0.000282017579;
[...]
  BAS[ATNO][  9].a[ 27] =        20.509295000000;     BAS[ATNO][  9].d[ 27] =        -0.072083606685;
  BAS[ATNO][  9].a[ 28] =         8.580464100000;     BAS[ATNO][  9].d[ 28] =        -0.107784897592;
  BAS[ATNO][  9].a[ 29] =         3.630104900000;     BAS[ATNO][  9].d[ 29] =        -0.131529085076;
  BAS[ATNO][  9].a[ 30] =         1.546528000000;     BAS[ATNO][  9].d[ 30] =         0.337341960143;
  BAS[ATNO][  9].a[ 31] =         0.661936900000;     BAS[ATNO][  9].d[ 31] =         0.551301034125;
  BAS[ATNO][  9].a[ 32] =         0.284242800000;     BAS[ATNO][  9].d[ 32] =        -0.382494668685;
  BAS[ATNO][  9].a[ 33] =         0.122346300000;     BAS[ATNO][  9].d[ 33] =        -0.453125828351;
  BAS[ATNO][  9].a[ 34] =         0.048938500000;     BAS[ATNO][  9].d[ 34] =        -0.046638225535;
  BAS[ATNO][  9].a[ 35] =      1462.496200000000;     BAS[ATNO][  9].d[ 35] =         0.000051219668;
  BAS[ATNO][  9].a[ 36] =       354.067310000000;     BAS[ATNO][  9].d[ 36] =         0.000299946121;
  BAS[ATNO][  9].a[ 37] =       126.697790000000;     BAS[ATNO][  9].d[ 37] =         0.001451038615;
  BAS[ATNO][  9].a[ 38] =        49.989095000000;     BAS[ATNO][  9].d[ 38] =         0.004717042434;
  BAS[ATNO][  9].a[ 39] =        20.509295000000;     BAS[ATNO][  9].d[ 39] =         0.015900204547;
  BAS[ATNO][  9].a[ 40] =         8.580464100000;     BAS[ATNO][  9].d[ 40] =         0.018761757312;
  BAS[ATNO][  9].a[ 41] =         3.630104900000;     BAS[ATNO][  9].d[ 41] =         0.025554369860;
  BAS[ATNO][  9].a[ 42] =         1.546528000000;     BAS[ATNO][  9].d[ 42] =        -0.150894037222;
  BAS[ATNO][  9].a[ 43] =         0.661936900000;     BAS[ATNO][  9].d[ 43] =         0.073426175089;
  BAS[ATNO][  9].a[ 44] =         0.284242800000;     BAS[ATNO][  9].d[ 44] =         0.112435869999;
  BAS[ATNO][  9].a[ 45] =         0.122346300000;     BAS[ATNO][  9].d[ 45] =        -0.111331797636;
  BAS[ATNO][  9].a[ 46] =         0.048938500000;     BAS[ATNO][  9].d[ 46] =        -0.011894946475;
  BAS[ATNO][  9].a[ 47] =      1462.496200000000;     BAS[ATNO][  9].d[ 47] =         0.000326141712;
  BAS[ATNO][  9].a[ 48] =       354.067310000000;     BAS[ATNO][  9].d[ 48] =         0.003398375890;
  BAS[ATNO][  9].a[ 49] =       126.697790000000;     BAS[ATNO][  9].d[ 49] =         0.007949903102;
  BAS[ATNO][  9].a[ 50] =        49.989095000000;     BAS[ATNO][  9].d[ 50] =         0.057321878790;
  BAS[ATNO][  9].a[ 51] =        20.509295000000;     BAS[ATNO][  9].d[ 51] =         0.090599942653;
  BAS[ATNO][  9].a[ 52] =         8.580464100000;     BAS[ATNO][  9].d[ 52] =         0.293046121712;
  BAS[ATNO][  9].a[ 53] =         3.630104900000;     BAS[ATNO][  9].d[ 53] =        -0.415968431559;
  BAS[ATNO][  9].a[ 54] =         1.546528000000;     BAS[ATNO][  9].d[ 54] =        -0.627114680008;
  BAS[ATNO][  9].a[ 55] =         0.661936900000;     BAS[ATNO][  9].d[ 55] =         1.680522073208;
  BAS[ATNO][  9].a[ 56] =         0.284242800000;     BAS[ATNO][  9].d[ 56] =        -1.658883948259;
  BAS[ATNO][  9].a[ 57] =         0.122346300000;     BAS[ATNO][  9].d[ 57] =         0.682858541319;
  BAS[ATNO][  9].a[ 58] =         0.048938500000;     BAS[ATNO][  9].d[ 58] =         0.110935039809;

  // Basis function  11 L = s
  InitBFNGauss(BAS[ATNO][ 10]);
  BAS[ATNO][ 10].l  = 0;
  BAS[ATNO][ 10].ng = 0;

  // Basis function  12 L = p
  InitBFNGauss(BAS[ATNO][ 11]);
  BAS[ATNO][ 11].l  = 1;
  BAS[ATNO][ 11].ng = 59;
  BAS[ATNO][ 11].a[  0] =      1462.496200000000;     BAS[ATNO][ 11].d[  0] =        -0.000011389508;
  BAS[ATNO][ 11].a[  1] =       354.067310000000;     BAS[ATNO][ 11].d[  1] =        -0.000073497311;
  BAS[ATNO][ 11].a[  2] =       126.697790000000;     BAS[ATNO][ 11].d[  2] =        -0.000305018635;
  BAS[ATNO][ 11].a[  3] =        49.989095000000;     BAS[ATNO][ 11].d[  3] =        -0.001101072962;
  BAS[ATNO][ 11].a[  4] =        20.509295000000;     BAS[ATNO][ 11].d[  4] =        -0.002888448333;
  BAS[ATNO][ 11].a[  5] =         8.580464100000;     BAS[ATNO][ 11].d[  5] =        -0.004929648942;
  BAS[ATNO][ 11].a[  6] =         3.630104900000;     BAS[ATNO][ 11].d[  6] =        -0.004075028396;
  BAS[ATNO][ 11].a[  7] =         1.546528000000;     BAS[ATNO][ 11].d[  7] =        -0.000863491736;
  BAS[ATNO][ 11].a[  8] =         0.661936900000;     BAS[ATNO][ 11].d[  8] =        -0.000041610976;
  BAS[ATNO][ 11].a[  9] =         0.284242800000;     BAS[ATNO][ 11].d[  9] =        -0.000003438322;
  BAS[ATNO][ 11].a[ 10] =         0.122346300000;     BAS[ATNO][ 11].d[ 10] =        -0.000005637261;
  BAS[ATNO][ 11].a[ 11] =      1462.496200000000;     BAS[ATNO][ 11].d[ 11] =        -0.000025619075;
  BAS[ATNO][ 11].a[ 12] =       354.067310000000;     BAS[ATNO][ 11].d[ 12] =        -0.000166003465;
  BAS[ATNO][ 11].a[ 13] =       126.697790000000;     BAS[ATNO][ 11].d[ 13] =        -0.000694734999;
  BAS[ATNO][ 11].a[ 14] =        49.989095000000;     BAS[ATNO][ 11].d[ 14] =        -0.002561755082;
  BAS[ATNO][ 11].a[ 15] =        20.509295000000;     BAS[ATNO][ 11].d[ 15] =        -0.006942234916;
  BAS[ATNO][ 11].a[ 16] =         8.580464100000;     BAS[ATNO][ 11].d[ 16] =        -0.012450019125;
  BAS[ATNO][ 11].a[ 17] =         3.630104900000;     BAS[ATNO][ 11].d[ 17] =        -0.010291164480;
  BAS[ATNO][ 11].a[ 18] =         1.546528000000;     BAS[ATNO][ 11].d[ 18] =         0.015111496378;
  BAS[ATNO][ 11].a[ 19] =         0.661936900000;     BAS[ATNO][ 11].d[ 19] =         0.041712627465;
  BAS[ATNO][ 11].a[ 20] =         0.284242800000;     BAS[ATNO][ 11].d[ 20] =         0.038263365972;
  BAS[ATNO][ 11].a[ 21] =         0.122346300000;     BAS[ATNO][ 11].d[ 21] =         0.013686761809;
  BAS[ATNO][ 11].a[ 22] =         0.048938500000;     BAS[ATNO][ 11].d[ 22] =         0.000631139981;
  BAS[ATNO][ 11].a[ 23] =      1462.496200000000;     BAS[ATNO][ 11].d[ 23] =         0.000117082308;
  BAS[ATNO][ 11].a[ 24] =       354.067310000000;     BAS[ATNO][ 11].d[ 24] =         0.000712155846;
  BAS[ATNO][ 11].a[ 25] =       126.697790000000;     BAS[ATNO][ 11].d[ 25] =         0.003241378135;
  BAS[ATNO][ 11].a[ 26] =        49.989095000000;     BAS[ATNO][ 11].d[ 26] =         0.011029795940;
  BAS[ATNO][ 11].a[ 27] =        20.509295000000;     BAS[ATNO][ 11].d[ 27] =         0.033474617598;
  BAS[ATNO][ 11].a[ 28] =         8.580464100000;     BAS[ATNO][ 11].d[ 28] =         0.050053797189;
  BAS[ATNO][ 11].a[ 29] =         3.630104900000;     BAS[ATNO][ 11].d[ 29] =         0.061080265380;
  BAS[ATNO][ 11].a[ 30] =         1.546528000000;     BAS[ATNO][ 11].d[ 30] =        -0.156656882677;
  BAS[ATNO][ 11].a[ 31] =         0.661936900000;     BAS[ATNO][ 11].d[ 31] =        -0.256016480685;
  BAS[ATNO][ 11].a[ 32] =         0.284242800000;     BAS[ATNO][ 11].d[ 32] =         0.177625168276;
  BAS[ATNO][ 11].a[ 33] =         0.122346300000;     BAS[ATNO][ 11].d[ 33] =         0.210425289816;
  BAS[ATNO][ 11].a[ 34] =         0.048938500000;     BAS[ATNO][ 11].d[ 34] =         0.021658138889;
  BAS[ATNO][ 11].a[ 35] =      1462.496200000000;     BAS[ATNO][ 11].d[ 35] =        -0.000346908826;
  BAS[ATNO][ 11].a[ 36] =       354.067310000000;     BAS[ATNO][ 11].d[ 36] =        -0.002031523455;
  BAS[ATNO][ 11].a[ 37] =       126.697790000000;     BAS[ATNO][ 11].d[ 37] =        -0.009827828319;
  BAS[ATNO][ 11].a[ 38] =        49.989095000000;     BAS[ATNO][ 11].d[ 38] =        -0.031948345641;
  BAS[ATNO][ 11].a[ 39] =        20.509295000000;     BAS[ATNO][ 11].d[ 39] =        -0.107691469344;
  BAS[ATNO][ 11].a[ 40] =         8.580464100000;     BAS[ATNO][ 11].d[ 40] =        -0.127072655350;
  BAS[ATNO][ 11].a[ 41] =         3.630104900000;     BAS[ATNO][ 11].d[ 41] =        -0.173078756961;
  BAS[ATNO][ 11].a[ 42] =         1.546528000000;     BAS[ATNO][ 11].d[ 42] =         1.021999467726;
  BAS[ATNO][ 11].a[ 43] =         0.661936900000;     BAS[ATNO][ 11].d[ 43] =        -0.497312638985;
  BAS[ATNO][ 11].a[ 44] =         0.284242800000;     BAS[ATNO][ 11].d[ 44] =        -0.761523791186;
  BAS[ATNO][ 11].a[ 45] =         0.122346300000;     BAS[ATNO][ 11].d[ 45] =         0.754045951844;
  BAS[ATNO][ 11].a[ 46] =         0.048938500000;     BAS[ATNO][ 11].d[ 46] =         0.080564011607;
  BAS[ATNO][ 11].a[ 47] =      1462.496200000000;     BAS[ATNO][ 11].d[ 47] =         0.000354238219;
  BAS[ATNO][ 11].a[ 48] =       354.067310000000;     BAS[ATNO][ 11].d[ 48] =         0.003691139706;
  BAS[ATNO][ 11].a[ 49] =       126.697790000000;     BAS[ATNO][ 11].d[ 49] =         0.008634772595;
  BAS[ATNO][ 11].a[ 50] =        49.989095000000;     BAS[ATNO][ 11].d[ 50] =         0.062260052948;
  BAS[ATNO][ 11].a[ 51] =        20.509295000000;     BAS[ATNO][ 11].d[ 51] =         0.098404960648;
  BAS[ATNO][ 11].a[ 52] =         8.580464100000;     BAS[ATNO][ 11].d[ 52] =         0.318291504726;
  BAS[ATNO][ 11].a[ 53] =         3.630104900000;     BAS[ATNO][ 11].d[ 53] =        -0.451803344900;
  BAS[ATNO][ 11].a[ 54] =         1.546528000000;     BAS[ATNO][ 11].d[ 54] =        -0.681139453304;
  BAS[ATNO][ 11].a[ 55] =         0.661936900000;     BAS[ATNO][ 11].d[ 55] =         1.825295950965;
  BAS[ATNO][ 11].a[ 56] =         0.284242800000;     BAS[ATNO][ 11].d[ 56] =        -1.801793741452;
  BAS[ATNO][ 11].a[ 57] =         0.122346300000;     BAS[ATNO][ 11].d[ 57] =         0.741685545476;
  BAS[ATNO][ 11].a[ 58] =         0.048938500000;     BAS[ATNO][ 11].d[ 58] =         0.120491888927;

  // Basis function  13 L = d
  InitBFNGauss(BAS[ATNO][ 12]);
  BAS[ATNO][ 12].l  = 2;
  BAS[ATNO][ 12].ng = 15;
  BAS[ATNO][ 12].a[  0] =         4.328841700000;     BAS[ATNO][ 12].d[  0] =        -0.021682567925;
  BAS[ATNO][ 12].a[  1] =         1.774230200000;     BAS[ATNO][ 12].d[  1] =        -0.150651072315;
  BAS[ATNO][ 12].a[  2] =         0.727190600000;     BAS[ATNO][ 12].d[  2] =        -0.468292434177;
  BAS[ATNO][ 12].a[  3] =         0.298048200000;     BAS[ATNO][ 12].d[  3] =        -0.237229933801;
  BAS[ATNO][ 12].a[  4] =         0.119219300000;     BAS[ATNO][ 12].d[  4] =        -0.022393580902;
  BAS[ATNO][ 12].a[  5] =         4.328841700000;     BAS[ATNO][ 12].d[  5] =         0.071899172851;
  BAS[ATNO][ 12].a[  6] =         1.774230200000;     BAS[ATNO][ 12].d[  6] =        -0.399128507615;
  BAS[ATNO][ 12].a[  7] =         0.727190600000;     BAS[ATNO][ 12].d[  7] =        -0.176562505501;
  BAS[ATNO][ 12].a[  8] =         0.298048200000;     BAS[ATNO][ 12].d[  8] =         0.519640185563;
  BAS[ATNO][ 12].a[  9] =         0.119219300000;     BAS[ATNO][ 12].d[  9] =         0.037333082409;
  BAS[ATNO][ 12].a[ 10] =         4.328841700000;     BAS[ATNO][ 12].d[ 10] =         0.051302330937;
  BAS[ATNO][ 12].a[ 11] =         1.774230200000;     BAS[ATNO][ 12].d[ 11] =        -0.478158598949;
  BAS[ATNO][ 12].a[ 12] =         0.727190600000;     BAS[ATNO][ 12].d[ 12] =         0.580701174600;
  BAS[ATNO][ 12].a[ 13] =         0.298048200000;     BAS[ATNO][ 12].d[ 13] =        -0.225948172290;
  BAS[ATNO][ 12].a[ 14] =         0.119219300000;     BAS[ATNO][ 12].d[ 14] =        -0.116360343926;

  // Basis function  14 L = d
  InitBFNGauss(BAS[ATNO][ 13]);
  BAS[ATNO][ 13].l  = 2;
  BAS[ATNO][ 13].ng = 15;
  BAS[ATNO][ 13].a[  0] =         4.328841700000;     BAS[ATNO][ 13].d[  0] =         0.017358553082;
  BAS[ATNO][ 13].a[  1] =         1.774230200000;     BAS[ATNO][ 13].d[  1] =         0.120607699451;
  BAS[ATNO][ 13].a[  2] =         0.727190600000;     BAS[ATNO][ 13].d[  2] =         0.374903890748;
  BAS[ATNO][ 13].a[  3] =         0.298048200000;     BAS[ATNO][ 13].d[  3] =         0.189920696328;
  BAS[ATNO][ 13].a[  4] =         0.119219300000;     BAS[ATNO][ 13].d[  4] =         0.017927773321;
  BAS[ATNO][ 13].a[  5] =         4.328841700000;     BAS[ATNO][ 13].d[  5] =         0.078583958123;
  BAS[ATNO][ 13].a[  6] =         1.774230200000;     BAS[ATNO][ 13].d[  6] =        -0.436237256759;
  BAS[ATNO][ 13].a[  7] =         0.727190600000;     BAS[ATNO][ 13].d[  7] =        -0.192978305425;
  BAS[ATNO][ 13].a[  8] =         0.298048200000;     BAS[ATNO][ 13].d[  8] =         0.567953440374;
  BAS[ATNO][ 13].a[  9] =         0.119219300000;     BAS[ATNO][ 13].d[  9] =         0.040804104808;
  BAS[ATNO][ 13].a[ 10] =         4.328841700000;     BAS[ATNO][ 13].d[ 10] =         0.082707556687;
  BAS[ATNO][ 13].a[ 11] =         1.774230200000;     BAS[ATNO][ 13].d[ 11] =        -0.770868081540;
  BAS[ATNO][ 13].a[ 12] =         0.727190600000;     BAS[ATNO][ 13].d[ 12] =         0.936183101999;
  BAS[ATNO][ 13].a[ 13] =         0.298048200000;     BAS[ATNO][ 13].d[ 13] =        -0.364264565111;
  BAS[ATNO][ 13].a[ 14] =         0.119219300000;     BAS[ATNO][ 13].d[ 14] =        -0.187591471296;

  // Basis function  15 L = d
  InitBFNGauss(BAS[ATNO][ 14]);
  BAS[ATNO][ 14].l  = 2;
  BAS[ATNO][ 14].ng = 15;
  BAS[ATNO][ 14].a[  0] =         4.328841700000;     BAS[ATNO][ 14].d[  0] =        -0.002486702898;
  BAS[ATNO][ 14].a[  1] =         1.774230200000;     BAS[ATNO][ 14].d[  1] =        -0.017277679444;
  BAS[ATNO][ 14].a[  2] =         0.727190600000;     BAS[ATNO][ 14].d[  2] =        -0.053706929792;
  BAS[ATNO][ 14].a[  3] =         0.298048200000;     BAS[ATNO][ 14].d[  3] =        -0.027207126294;
  BAS[ATNO][ 14].a[  4] =         0.119219300000;     BAS[ATNO][ 14].d[  4] =        -0.002568246654;
  BAS[ATNO][ 14].a[  5] =         4.328841700000;     BAS[ATNO][ 14].d[  5] =        -0.078358739784;
  BAS[ATNO][ 14].a[  6] =         1.774230200000;     BAS[ATNO][ 14].d[  6] =         0.434987019020;
  BAS[ATNO][ 14].a[  7] =         0.727190600000;     BAS[ATNO][ 14].d[  7] =         0.192425237669;
  BAS[ATNO][ 14].a[  8] =         0.298048200000;     BAS[ATNO][ 14].d[  8] =        -0.566325709559;
  BAS[ATNO][ 14].a[  9] =         0.119219300000;     BAS[ATNO][ 14].d[  9] =        -0.040687161950;
  BAS[ATNO][ 14].a[ 10] =         4.328841700000;     BAS[ATNO][ 14].d[ 10] =         0.130018455502;
  BAS[ATNO][ 14].a[ 11] =         1.774230200000;     BAS[ATNO][ 14].d[ 11] =        -1.211824909022;
  BAS[ATNO][ 14].a[ 12] =         0.727190600000;     BAS[ATNO][ 14].d[ 12] =         1.471704471330;
  BAS[ATNO][ 14].a[ 13] =         0.298048200000;     BAS[ATNO][ 14].d[ 13] =        -0.572633481716;
  BAS[ATNO][ 14].a[ 14] =         0.119219300000;     BAS[ATNO][ 14].d[ 14] =        -0.294898729213;

  // Basis function  16 L = f
  InitBFNGauss(BAS[ATNO][ 15]);
  BAS[ATNO][ 15].l  = 3;
  BAS[ATNO][ 15].ng = 8;
  BAS[ATNO][ 15].a[  0] =         1.631174000000;     BAS[ATNO][ 15].d[  0] =         0.223507509000;
  BAS[ATNO][ 15].a[  1] =         0.820328800000;     BAS[ATNO][ 15].d[  1] =         0.528928521856;
  BAS[ATNO][ 15].a[  2] =         0.412549100000;     BAS[ATNO][ 15].d[  2] =         0.240633071554;
  BAS[ATNO][ 15].a[  3] =         0.165019600000;     BAS[ATNO][ 15].d[  3] =         0.035459355428;
  BAS[ATNO][ 15].a[  4] =         1.631174000000;     BAS[ATNO][ 15].d[  4] =         0.355530486217;
  BAS[ATNO][ 15].a[  5] =         0.820328800000;     BAS[ATNO][ 15].d[  5] =         0.016556652671;
  BAS[ATNO][ 15].a[  6] =         0.412549100000;     BAS[ATNO][ 15].d[  6] =        -0.341146210924;
  BAS[ATNO][ 15].a[  7] =         0.165019600000;     BAS[ATNO][ 15].d[  7] =        -0.042806290770;

  // Basis function  17 L = f
  InitBFNGauss(BAS[ATNO][ 16]);
  BAS[ATNO][ 16].l  = 3;
  BAS[ATNO][ 16].ng = 8;
  BAS[ATNO][ 16].a[  0] =         1.631174000000;     BAS[ATNO][ 16].d[  0] =        -0.101343213160;
  BAS[ATNO][ 16].a[  1] =         0.820328800000;     BAS[ATNO][ 16].d[  1] =        -0.239827807919;
  BAS[ATNO][ 16].a[  2] =         0.412549100000;     BAS[ATNO][ 16].d[  2] =        -0.109108319327;
  BAS[ATNO][ 16].a[  3] =         0.165019600000;     BAS[ATNO][ 16].d[  3] =        -0.016078050495;
  BAS[ATNO][ 16].a[  4] =         1.631174000000;     BAS[ATNO][ 16].d[  4] =         0.784105129366;
  BAS[ATNO][ 16].a[  5] =         0.820328800000;     BAS[ATNO][ 16].d[  5] =         0.036514889124;
  BAS[ATNO][ 16].a[  6] =         0.412549100000;     BAS[ATNO][ 16].d[  6] =        -0.752381312487;
  BAS[ATNO][ 16].a[  7] =         0.165019600000;     BAS[ATNO][ 16].d[  7] =        -0.094407184371;

-------
TIMINGS
-------

Total SCF time: 0 days 0 hours 0 min 14 sec 

Total time                  ....      14.497 sec
Sum of individual times     ....      14.206 sec  ( 98.0%)

Fock matrix formation       ....      13.728 sec  ( 94.7%)
  XC integration            ....       0.032 sec  (  0.2% of F)
    Basis function eval.    ....       0.011 sec  ( 35.8% of XC)
    Density eval.           ....       0.001 sec  (  3.9% of XC)
    XC-Functional eval.     ....       0.001 sec  (  4.1% of XC)
    XC-Potential eval.      ....       0.002 sec  (  5.5% of XC)
Diagonalization             ....       0.001 sec  (  0.0%)
Density matrix formation    ....       0.001 sec  (  0.0%)
Population analysis         ....       0.001 sec  (  0.0%)
Initial guess               ....       0.101 sec  (  0.7%)
Orbital Transformation      ....       0.000 sec  (  0.0%)
Orbital Orthonormalization  ....       0.000 sec  (  0.0%)
DIIS solution               ....       0.000 sec  (  0.0%)
SOSCF solution              ....       0.001 sec  (  0.0%)
Grid generation             ....       0.374 sec  (  2.6%)

-------------------------   --------------------
FINAL SINGLE POINT ENERGY      -311.070586921524
-------------------------   --------------------


                            ***************************************
                            *     ORCA property calculations      *
                            ***************************************

                                    ---------------------
                                    Active property flags
                                    ---------------------
   (+) Dipole Moment


------------------------------------------------------------------------------
                       ORCA ELECTRIC PROPERTIES CALCULATION
------------------------------------------------------------------------------

Dipole Moment Calculation                       ... on
Quadrupole Moment Calculation                   ... off
Polarizability Calculation                      ... off
GBWName                                         ... Ar_ano-rcc-qzp_2192.575824_.gbw
Electron density file                           ... Ar_ano-rcc-qzp_2192.575824_.scfp
The origin for moment calculation is the CENTER OF MASS  = ( 0.000000,  0.000000  0.000000)

-------------
DIPOLE MOMENT
-------------
                                X             Y             Z
Electronic contribution:     -0.00000      -0.00000       0.00000
Nuclear contribution   :      0.00000       0.00000       0.00000
                        -----------------------------------------
Total Dipole Moment    :     -0.00000      -0.00000       0.00000
                        -----------------------------------------
Magnitude (a.u.)       :      0.00000
Magnitude (Debye)      :      0.00000



--------------------
Rotational spectrum 
--------------------
 
Rotational constants in cm-1:     0.000000     0.000000     0.000000 
Rotational constants in MHz :     0.000000     0.000000     0.000000 

 Dipole components along the rotational axes: 
x,y,z [a.u.] :    -0.000000    -0.000000     0.000000 
x,y,z [Debye]:    -0.000000    -0.000000     0.000000 

 

Timings for individual modules:

Sum of individual times         ...       15.635 sec (=   0.261 min)
GTO integral calculation        ...        0.491 sec (=   0.008 min)   3.1 %
Relativistic integrals          ...        0.399 sec (=   0.007 min)   2.6 %
SCF iterations                  ...       14.745 sec (=   0.246 min)  94.3 %
                             ****ORCA TERMINATED NORMALLY****
TOTAL RUN TIME: 0 days 0 hours 0 minutes 15 seconds 996 msec
