
                                 *****************
                                 * O   R   C   A *
                                 *****************

           --- An Ab Initio, DFT and Semiempirical electronic structure package ---

                  #######################################################
                  #                        -***-                        #
                  #          Department of theory and spectroscopy      #
                  #               Directorship: Frank Neese             #
                  #        Max Planck Institute fuer Kohlenforschung    #
                  #                Kaiser Wilhelm Platz 1               #
                  #                 D-45470 Muelheim/Ruhr               #
                  #                      Germany                        #
                  #                                                     #
                  #                  All rights reserved                #
                  #                        -***-                        #
                  #######################################################


                         Program Version 4.2.1 -  RELEASE  -


 With contributions from (in alphabetic order):
   Daniel Aravena         : Magnetic Suceptibility
   Michael Atanasov       : Ab Initio Ligand Field Theory (pilot matlab implementation)
   Alexander A. Auer      : GIAO ZORA, VPT2
   Ute Becker             : Parallelization
   Giovanni Bistoni       : ED, misc. LED, open-shell LED, HFLD
   Martin Brehm           : Molecular dynamics
   Dmytro Bykov           : SCF Hessian
   Vijay G. Chilkuri      : MRCI spin determinant printing, contributions to CSF-ICE
   Dipayan Datta          : RHF DLPNO-CCSD density
   Achintya Kumar Dutta   : EOM-CC, STEOM-CC
   Dmitry Ganyushin       : Spin-Orbit,Spin-Spin,Magnetic field MRCI
   Miquel Garcia          : C-PCM Hessian, Gaussian charge scheme
   Yang Guo               : DLPNO-NEVPT2, CIM, IAO-localization
   Andreas Hansen         : Spin unrestricted coupled pair/coupled cluster methods
   Benjamin Helmich-Paris : CASSCF linear response (MC-RPA)
   Lee Huntington         : MR-EOM, pCC
   Robert Izsak           : Overlap fitted RIJCOSX, COSX-SCS-MP3, EOM
   Christian Kollmar      : KDIIS, OOCD, Brueckner-CCSD(T), CCSD density
   Simone Kossmann        : Meta GGA functionals, TD-DFT gradient, OOMP2, MP2 Hessian
   Martin Krupicka        : AUTO-CI
   Lucas Lang             : DCDCAS
   Dagmar Lenk            : GEPOL surface, SMD
   Dimitrios Liakos       : Extrapolation schemes; Compound Job, initial MDCI parallelization
   Dimitrios Manganas     : Further ROCIS development; embedding schemes
   Dimitrios Pantazis     : SARC Basis sets
   Taras Petrenko         : DFT Hessian,TD-DFT gradient, ASA, ECA, R-Raman, ABS, FL, XAS/XES, NRVS
   Peter Pinski           : DLPNO-MP2, DLPNO-MP2 Gradient
   Christoph Reimann      : Effective Core Potentials
   Marius Retegan         : Local ZFS, SOC
   Christoph Riplinger    : Optimizer, TS searches, QM/MM, DLPNO-CCSD(T), (RO)-DLPNO pert. Triples
   Tobias Risthaus        : Range-separated hybrids, TD-DFT gradient, RPA, STAB
   Michael Roemelt        : Original ROCIS implementation
   Masaaki Saitow         : Open-shell DLPNO-CCSD energy and density
   Barbara Sandhoefer     : DKH picture change effects
   Avijit Sen             : IP-ROCIS
   Kantharuban Sivalingam : CASSCF convergence, NEVPT2, FIC-MRCI
   Bernardo de Souza      : ESD, SOC TD-DFT
   Georgi Stoychev        : AutoAux, RI-MP2 NMR
   Willem Van den Heuvel  : Paramagnetic NMR
   Boris Wezisla          : Elementary symmetry handling
   Frank Wennmohs         : Technical directorship


 We gratefully acknowledge several colleagues who have allowed us to
 interface, adapt or use parts of their codes:
   Stefan Grimme, W. Hujo, H. Kruse,             : VdW corrections, initial TS optimization,
                  C. Bannwarth                     DFT functionals, gCP, sTDA/sTD-DF
   Ed Valeev, F. Pavosevic, A. Kumar             : LibInt (2-el integral package), F12 methods
   Garnet Chan, S. Sharma, J. Yang, R. Olivares  : DMRG
   Ulf Ekstrom                                   : XCFun DFT Library
   Mihaly Kallay                                 : mrcc  (arbitrary order and MRCC methods)
   Andreas Klamt, Michael Diedenhofen            : otool_cosmo (COSMO solvation model)
   Jiri Pittner, Ondrej Demel                    : Mk-CCSD
   Frank Weinhold                                : gennbo (NPA and NBO analysis)
   Christopher J. Cramer and Donald G. Truhlar   : smd solvation model
   Lars Goerigk                                  : TD-DFT with DH, B97 family of functionals
   V. Asgeirsson, H. Jonsson                     : NEB implementation
   FAccTs GmbH                                   : IRC, NEB, NEB-TS, Multilevel, MM, QM/MM, CI optimization
   S Lehtola, MJT Oliveira, MAL Marques          : LibXC Library


 Your calculation uses the libint2 library for the computation of 2-el integrals
 For citations please refer to: http://libint.valeyev.net

 Your ORCA version has been built with support for libXC version: 4.2.3
 For citations please refer to: https://tddft.org/programs/libxc/

 This ORCA versions uses:
   CBLAS   interface :  Fast vector & matrix operations
   LAPACKE interface :  Fast linear algebra routines
   SCALAPACK package :  Parallel linear algebra routines


----- Orbital basis set information -----
Your calculation utilizes the basis: ANO-RCC-QZP
   H, He:       P.-O. Widmark, P.-A. Malmqvist, and B. O. Roos, Theor. Chim. Acta 77, 291 (1990).
   s block:     B. O. Roos, V. Veryazov and P.-O. Widmark, Theor. Chem. Acc. 111, 345 (2004).
   p block:     B. O. Roos, R. Lindh, P.-A. Malmqvist, V. Veryazov, and P.-O. Widmark, J. Phys. Chem. A 108, 2851 (2004).
   d block:     B. O. Roos, R. Lindh, P.-A. Malmqvist, V. Veryazov, and P.-O. Widmark, J. Phys. Chem. A 109, 6575 (2005).
   actinides:   B. O. Roos, R. Lindh, P.-A. Malmqvist, V. Veryazov, and P.-O. Widmark, Chem. Phys. Letters 409, 295 (2005).
   lanthanides: B. O. Roos, R. Lindh, P.-A. Malmqvist, V. Veryazov, P.-O. Widmark and A. C. Borin, J. Phys. Chem. A 112, 11431 (2008).

================================================================================
                                        WARNINGS
                       Please study these warnings very carefully!
================================================================================


INFO   : the flag for use of LIBINT has been found!

================================================================================
                                       INPUT FILE
================================================================================
NAME = Ar_ano-rcc-qzp_4385.151648_.inp
|  1> ! LDA ano-rcc-qzp nori grid5 finalgrid6 verytightscf
|  2> %Pal NProcs 18 End
|  3> 
|  4> % REL
|  5>   Method ZORA
|  6>   ModelPot 1, 0, 0, 0
|  7>   velit 4385.151648
|  8> END
|  9> 
| 10> *xyz 16 1
| 11> Ar 0.0 0.0 0.0
| 12> **                         ****END OF INPUT****
================================================================================

                       ****************************
                       * Single Point Calculation *
                       ****************************

---------------------------------
CARTESIAN COORDINATES (ANGSTROEM)
---------------------------------
  Ar     0.000000    0.000000    0.000000

----------------------------
CARTESIAN COORDINATES (A.U.)
----------------------------
  NO LB      ZA    FRAG     MASS         X           Y           Z
   0 Ar   18.0000    0    39.948    0.000000    0.000000    0.000000

--------------------------------
INTERNAL COORDINATES (ANGSTROEM)
--------------------------------
 Ar     0   0   0     0.000000000000     0.00000000     0.00000000

---------------------------
INTERNAL COORDINATES (A.U.)
---------------------------
 Ar     0   0   0     0.000000000000     0.00000000     0.00000000

---------------------
BASIS SET INFORMATION
---------------------
There are 1 groups of distinct atoms

 Group   1 Type Ar  : 102s60p15d8f contracted to 6s5p3d2f pattern {171717171717/1212121212/555/44}

Atom   0Ar   basis set group =>   1


           ************************************************************
           *        Program running with 18 parallel MPI-processes    *
           *              working on a common directory               *
           ************************************************************


------------------------------------------------------------------------------
                       ORCA GTO INTEGRAL CALCULATION
                     -- ANO INTEGRAL GENERATION BRANCH --
------------------------------------------------------------------------------


Gathering ANO information                         ... done
Calculation Information:
Number of atoms                                   ... 1
Number of basis functions                         ... 50
Highest angular momentum                          ... 3
Number of primitive shells                        ... 38
Total number of shells                            ... 16
Maximum number of shells                          ... 16

Getting memory                                    ... done
Making prescreening integrals                     ... done
Gathering atom contracted prescreening            ... done
Making one-electron integrals                     ... done

Timings:

Total time                                        ...    0.2 sec
Prescreening matrix                               ...    0.2 sec
One-electron matrix                               ...    0.0 sec
Two-index integrals + Cholesky                    ...    0.0 sec


           ************************************************************
           *        Program running with 18 parallel MPI-processes    *
           *              working on a common directory               *
           ************************************************************
------------------------------------------------------------------------------
                          ORCA RELATIVISTIC HAMILTONIAN
------------------------------------------------------------------------------

Relativistic Method            ... ZORA(MP)
Treatment of potential         ... Van Wuellen
Nucleus model                  ... Point Nucleus
Speed of light used            ... 4385.15164800000002


            *************************************************
            *         ZERO ORDER REGULAR APPROXIMATION      *
            *                     ZORA(MP)                  *
            *            Programmed by FN according to      *
            *                   C. van Wuellen              *
            *       J. Chem. Phys. (1998) vol 109, 392-399  *
            *************************************************

Terms included in model potential: +V(e,N)
Basis function cutoff value   ... 1.000000e-12
Loading the fitted atomic densities  (DKH4)  ... done
Calculating the cutoffs                      ... done
Number of fit functions                      ... 15
Setting up the integration grid ... done


           ************************************************************
           *        Program running with 18 parallel MPI-processes    *
           *              working on a common directory               *
           ************************************************************
-------------------------------------------------------------------------------
                                 ORCA SCF
-------------------------------------------------------------------------------

------------
SCF SETTINGS
------------
Hamiltonian:
 Density Functional     Method          .... DFT(GTOs)
 Exchange Functional    Exchange        .... Slater
   X-Alpha parameter    XAlpha          ....  0.666667
 Correlation Functional Correlation     .... VWN-5
 Gradients option       PostSCFGGA      .... off
   Density functional embedding theory  .... OFF

Relativistic Settings:
 Scalar relativistic method             .... ZORA
 Speed of light used       Velit        ....       4385.15165
Orbital energies will be scaled


General Settings:
 Integral files         IntName         .... Ar_ano-rcc-qzp_4385.151648_
 Hartree-Fock type      HFTyp           .... RHF
 Total Charge           Charge          ....   16
 Multiplicity           Mult            ....    1
 Number of Electrons    NEL             ....    2
 Basis Dimension        Dim             ....   50
 Nuclear Repulsion      ENuc            ....      0.0000000000 Eh

Convergence Acceleration:
 DIIS                   CNVDIIS         .... on
   Start iteration      DIISMaxIt       ....    12
   Startup error        DIISStart       ....  0.200000
   # of expansion vecs  DIISMaxEq       ....     5
   Bias factor          DIISBfac        ....   1.050
   Max. coefficient     DIISMaxC        ....  10.000
 Newton-Raphson         CNVNR           .... off
 SOSCF                  CNVSOSCF        .... on
   Start iteration      SOSCFMaxIt      ....   150
   Startup grad/error   SOSCFStart      ....  0.003300
 Level Shifting         CNVShift        .... on
   Level shift para.    LevelShift      ....    0.2500
   Turn off err/grad.   ShiftErr        ....    0.0010
 Zerner damping         CNVZerner       .... off
 Static damping         CNVDamp         .... on
   Fraction old density DampFac         ....    0.7000
   Max. Damping (<1)    DampMax         ....    0.9800
   Min. Damping (>=0)   DampMin         ....    0.0000
   Turn off err/grad.   DampErr         ....    0.1000
 Fernandez-Rico         CNVRico         .... off

SCF Procedure:
 Maximum # iterations   MaxIter         ....   125
 SCF integral mode      SCFMode         .... Direct
   Integral package                     .... LIBINT
 Reset frequency        DirectResetFreq ....    20
 Integral Threshold     Thresh          ....  1.000e-12 Eh
 Primitive CutOff       TCut            ....  1.000e-14 Eh

Convergence Tolerance:
 Convergence Check Mode ConvCheckMode   .... Total+1el-Energy
 Convergence forced     ConvForced      .... 0
 Energy Change          TolE            ....  1.000e-09 Eh
 1-El. energy change                    ....  1.000e-06 Eh
 Orbital Gradient       TolG            ....  2.000e-06
 Orbital Rotation angle TolX            ....  2.000e-06
 DIIS Error             TolErr          ....  1.000e-08


Diagonalization of the overlap matrix:
Smallest eigenvalue                        ... 1.000e+00
Time for diagonalization                   ...    0.001 sec
Threshold for overlap eigenvalues          ... 1.000e-08
Number of eigenvalues below threshold      ... 0
Time for construction of square roots      ...    0.001 sec
Total time needed                          ...    0.002 sec

-------------------
DFT GRID GENERATION
-------------------

General Integration Accuracy     IntAcc      ...  5.010
Radial Grid Type                 RadialGrid  ... Gauss-Chebyshev
Angular Grid (max. acc.)         AngularGrid ... Lebedev-434
Angular grid pruning method      GridPruning ... 3 (G Style)
Weight generation scheme         WeightScheme... Becke
Basis function cutoff            BFCut       ...    1.0000e-12
Integration weight cutoff        WCut        ...    1.0000e-14
Grids for H and He will be reduced by one unit

# of grid points (after initial pruning)     ...  11992 (   0.0 sec)
# of grid points (after weights+screening)   ...  11992 (   0.0 sec)
Grid point division into batches done        ...    0.1 sec
Reduced shell lists constructed in    0.1 sec

Total number of grid points                  ...    11992
Total number of batches                      ...      188
Average number of points per batch           ...       63
Average number of grid points per atom       ...    11992
Average number of shells per batch           ...     9.50 (59.38%)
Average number of basis functions per batch  ...    25.83 (51.67%)
Average number of large shells per batch     ...     5.83 (61.40%)
Average number of large basis fcns per batch ...    14.83 (57.42%)
Maximum spatial batch extension              ...  18.71, 18.71, 18.71 au
Average spatial batch extension              ...   0.97,  0.98,  0.97 au

Time for grid setup =    0.155 sec

------------------------------
INITIAL GUESS: MODEL POTENTIAL
------------------------------
Loading ZORA relativistic densities                ... done
Calculating cut-offs                               ... done
Setting up the integral package                    ... done
Initializing the effective Hamiltonian             ... done
Starting the Coulomb interaction                   ... done (   0.0 sec)
Reading the grid                                   ... done
Mapping shells                                     ... done
Starting the XC term evaluation                    ... done (   0.0 sec)
  promolecular density results
     # of electrons  =     18.000000116
     EX              =    -28.047870263
     EC              =     -1.433252902
     EX+EC           =    -29.481123164
Transforming the Hamiltonian                       ... done (   0.0 sec)
Diagonalizing the Hamiltonian                      ... done (   0.0 sec)
Back transforming the eigenvectors                 ... done (   0.0 sec)
Now organizing SCF variables                       ... done
                      ------------------
                      INITIAL GUESS DONE (   0.3 sec)
                      ------------------
--------------
SCF ITERATIONS
--------------
ITER       Energy         Delta-E        Max-DP      RMS-DP      [F,P]     Damp
               ***  Starting incremental Fock matrix formation  ***
  0   -311.0367514820   0.000000000000 0.00522396  0.00012368  1.9293815 0.7000
                      *** Initiating the SOSCF procedure ***
                      *** Re-Reading the Fockian *** 
                      *** Removing any level shift *** 
ITER      Energy       Delta-E        Grad      Rot      Max-DP    RMS-DP
  1   -311.04430027  -0.0075487927  0.000708  0.000708  0.012179  0.000288
               *** Restarting incremental Fock matrix formation ***
  2   -311.06173559  -0.0174353105  0.007097  0.000063  0.000114  0.000003
  3   -311.06173681  -0.0000012204  0.000068  0.000001  0.000001  0.000000
                 **** Energy Check signals convergence ****
              ***Rediagonalizing the Fockian in SOSCF/NRSCF***

               *****************************************************
               *                     SUCCESS                       *
               *           SCF CONVERGED AFTER   4 CYCLES          *
               *****************************************************

Setting up the final grid:

General Integration Accuracy     IntAcc      ...  5.340
Radial Grid Type                 RadialGrid  ... Gauss-Chebyshev
Angular Grid (max. acc.)         AngularGrid ... Lebedev-590
Angular grid pruning method      GridPruning ... 3 (G Style)
Weight generation scheme         WeightScheme... Becke
Basis function cutoff            BFCut       ...    1.0000e-12
Integration weight cutoff        WCut        ...    1.0000e-14
Grids for H and He will be reduced by one unit

# of grid points (after initial pruning)     ...  18110 (   0.0 sec)
# of grid points (after weights+screening)   ...  18110 (   0.0 sec)
Grid point division into batches done        ...    0.2 sec
Reduced shell lists constructed in    0.2 sec

Total number of grid points                  ...    18110
Total number of batches                      ...      283
Average number of points per batch           ...       63
Average number of grid points per atom       ...    18110
Average number of shells per batch           ...     3.88 (24.26%)
Average number of basis functions per batch  ...     9.29 (18.59%)
Average number of large shells per batch     ...     2.12 (54.55%)
Average number of large basis fcns per batch ...     6.35 (68.35%)
Maximum spatial batch extension              ...  19.03, 19.03, 19.03 au
Average spatial batch extension              ...   0.84,  0.84,  0.80 au

Final grid set up in    0.2 sec
Final integration                            ... done (   0.0 sec)
Change in XC energy                          ...     0.000014067
Integrated number of electrons               ...     2.000000249
Previous integrated no of electrons          ...     2.000000961

----------------
TOTAL SCF ENERGY
----------------

Total Energy       :         -311.06172274 Eh           -8464.41980 eV

Components:
Nuclear Repulsion  :            0.00000000 Eh               0.00000 eV
Electronic Energy  :         -311.06172274 Eh           -8464.41980 eV
One Electron Energy:         -323.43146197 Eh           -8801.01752 eV
Two Electron Energy:           12.36973923 Eh             336.59772 eV

Virial components:
Potential Energy   :         -630.57751376 Eh          -17158.88649 eV
Kinetic Energy     :          319.51579102 Eh            8694.46669 eV
Virial Ratio       :            1.97354100


DFT components:
N(Alpha)           :        1.000000124425 electrons
N(Beta)            :        1.000000124425 electrons
N(Total)           :        2.000000248850 electrons
E(X)               :       -9.487954184091 Eh       
E(C)               :       -0.237085324994 Eh       
E(XC)              :       -9.725039509085 Eh       
DFET-embed. en.    :        0.000000000000 Eh       

---------------
SCF CONVERGENCE
---------------

  Last Energy change         ...   -1.1312e-10  Tolerance :   1.0000e-09
  Last MAX-Density change    ...    0.0000e+00  Tolerance :   1.0000e-08
  Last RMS-Density change    ...    0.0000e+00  Tolerance :   1.0000e-09
  Last Orbital Gradient      ...    2.5265e-10  Tolerance :   2.0000e-06
  Last Orbital Rotation      ...    0.0000e+00  Tolerance :   2.0000e-06

================================================================================
                                        WARNING
Number of found core electrons (2) does not match given number of chemical core electrons (10)
================================================================================
             **** THE GBW FILE WAS UPDATED (Ar_ano-rcc-qzp_4385.151648_.gbw) ****
             **** DENSITY FILE WAS UPDATED (Ar_ano-rcc-qzp_4385.151648_.scfp) ****
             **** ENERGY FILE WAS UPDATED (Ar_ano-rcc-qzp_4385.151648_.en.tmp) ****
             **** THE GBW FILE WAS UPDATED (Ar_ano-rcc-qzp_4385.151648_.gbw) ****
             **** DENSITY FILE WAS UPDATED (Ar_ano-rcc-qzp_4385.151648_.scfp) ****
----------------
ORBITAL ENERGIES
----------------

  NO   OCC          E(Eh)            E(eV) 
   0   2.0000    -146.074358     -3974.8854 
   1   0.0000     -33.972552      -924.4401 
   2   0.0000     -33.021697      -898.5660 
   3   0.0000     -33.021697      -898.5660 
   4   0.0000     -33.021697      -898.5660 
   5   0.0000     -14.629018      -398.0758 
   6   0.0000     -14.195573      -386.2812 
   7   0.0000     -14.195573      -386.2812 
   8   0.0000     -14.195573      -386.2812 
   9   0.0000     -11.399569      -310.1980 
  10   0.0000     -11.399569      -310.1980 
  11   0.0000     -11.399569      -310.1980 
  12   0.0000     -11.399569      -310.1980 
  13   0.0000     -11.399569      -310.1980 
  14   0.0000      -8.143696      -221.6012 
  15   0.0000      -7.954132      -216.4429 
  16   0.0000      -7.954132      -216.4429 
  17   0.0000      -7.954132      -216.4429 
  18   0.0000      -7.578162      -206.2123 
  19   0.0000      -7.578162      -206.2123 
  20   0.0000      -7.578162      -206.2123 
  21   0.0000      -7.578162      -206.2123 
  22   0.0000      -7.578162      -206.2123 
  23   0.0000      -7.578162      -206.2123 
  24   0.0000      -7.578162      -206.2123 
  25   0.0000      -6.226444      -169.4301 
  26   0.0000      -6.226444      -169.4301 
  27   0.0000      -6.226443      -169.4301 
  28   0.0000      -6.226443      -169.4301 
  29   0.0000      -6.226443      -169.4301 
  30   0.0000      -5.150268      -140.1459 
  31   0.0000      -5.102990      -138.8594 
  32   0.0000      -5.102990      -138.8594 
  33   0.0000      -5.102990      -138.8594 
  34   0.0000      -4.862250      -132.3085 
  35   0.0000      -4.862250      -132.3085 
  36   0.0000      -4.862250      -132.3085 
  37   0.0000      -4.862250      -132.3085 
  38   0.0000      -4.862250      -132.3085 
  39   0.0000      -4.862250      -132.3085 
  40   0.0000      -4.862250      -132.3085 
  41   0.0000      -4.263603      -116.0185 
  42   0.0000      -4.263603      -116.0185 
  43   0.0000      -4.263603      -116.0185 
  44   0.0000      -4.263603      -116.0185 
  45   0.0000      -4.263603      -116.0185 
  46   0.0000      -3.417999       -93.0085 
  47   0.0000      -3.417824       -93.0037 
  48   0.0000      -3.417823       -93.0037 
  49   0.0000      -3.417823       -93.0037 

                    ********************************
                    * MULLIKEN POPULATION ANALYSIS *
                    ********************************

-----------------------
MULLIKEN ATOMIC CHARGES
-----------------------
   0 Ar:   16.000000
Sum of atomic charges:   16.0000000

--------------------------------
MULLIKEN REDUCED ORBITAL CHARGES
--------------------------------
  0 Ars       :     2.000000  s :     2.000000
      pz      :     0.000000  p :     0.000000
      px      :     0.000000
      py      :     0.000000
      dz2     :     0.000000  d :     0.000000
      dxz     :     0.000000
      dyz     :     0.000000
      dx2y2   :     0.000000
      dxy     :     0.000000
      f0      :     0.000000  f :     0.000000
      f+1     :     0.000000
      f-1     :     0.000000
      f+2     :     0.000000
      f-2     :     0.000000
      f+3     :     0.000000
      f-3     :     0.000000


                     *******************************
                     * LOEWDIN POPULATION ANALYSIS *
                     *******************************

----------------------
LOEWDIN ATOMIC CHARGES
----------------------
   0 Ar:   16.000000

-------------------------------
LOEWDIN REDUCED ORBITAL CHARGES
-------------------------------
  0 Ars       :     2.000000  s :     2.000000
      pz      :     0.000000  p :     0.000000
      px      :     0.000000
      py      :     0.000000
      dz2     :     0.000000  d :     0.000000
      dxz     :     0.000000
      dyz     :     0.000000
      dx2y2   :     0.000000
      dxy     :     0.000000
      f0      :     0.000000  f :     0.000000
      f+1     :     0.000000
      f-1     :     0.000000
      f+2     :     0.000000
      f-2     :     0.000000
      f+3     :     0.000000
      f-3     :     0.000000


                      *****************************
                      * MAYER POPULATION ANALYSIS *
                      *****************************

  NA   - Mulliken gross atomic population
  ZA   - Total nuclear charge
  QA   - Mulliken gross atomic charge
  VA   - Mayer's total valence
  BVA  - Mayer's bonded valence
  FA   - Mayer's free valence

  ATOM       NA         ZA         QA         VA         BVA        FA
  0 Ar     2.0000    18.0000    16.0000    -0.0000     0.0000    -0.0000

  Mayer bond orders larger than 0.100000


--------------------------
ATOM BASIS FOR ELEMENT Ar
--------------------------
 NewGTO Ar
 S 102
    1     455476.770000000019         0.000319857273
    2      64817.743000000002         0.001011611376
    3      19256.987000000001         0.002170201498
    4       6877.007300000000         0.005962899165
    5       2643.487700000000         0.015907984380
    6       1054.237500000000         0.044046514491
    7        429.371220000000         0.114459244202
    8        177.188590000000         0.254626499236
    9         73.763945000000         0.398474262893
   10         30.897007000000         0.278947581892
   11         12.999482000000         0.038335013183
   12          5.487679300000         0.003118583413
   13          2.322571600000        -0.001384658195
   14          0.984980700000         0.001002731451
   15          0.418397300000        -0.000643174517
   16          0.177959400000         0.000282017596
   17          0.071183800000        -0.000076279350
   18     455476.770000000019         0.000000368027
   19      64817.743000000002         0.000001165561
   20      19256.987000000001         0.000002507435
   21       6877.007300000000         0.000006912263
   22       2643.487700000000         0.000018621466
   23       1054.237500000000         0.000052499561
   24        429.371220000000         0.000142897893
   25        177.188590000000         0.000352107045
   26         73.763945000000         0.000702588908
   27         30.897007000000         0.000747064202
   28         12.999482000000        -0.000550488483
   29          5.487679300000        -0.002551900420
   30          2.322571600000        -0.001536023166
   31          0.984980700000        -0.000020003750
   32          0.418397300000        -0.000047169859
   33          0.177959400000         0.000017916533
   34          0.071183800000        -0.000005191988
   35     455476.770000000019         0.000000018726
   36      64817.743000000002         0.000000059254
   37      19256.987000000001         0.000000127940
   38       6877.007300000000         0.000000350610
   39       2643.487700000000         0.000000953589
   40       1054.237500000000         0.000002666265
   41        429.371220000000         0.000007369844
   42        177.188590000000         0.000018133380
   43         73.763945000000         0.000037668279
   44         30.897007000000         0.000040905681
   45         12.999482000000        -0.000031578202
   46          5.487679300000        -0.000213806338
   47          2.322571600000        -0.000226383973
   48          0.984980700000         0.000222148853
   49          0.418397300000         0.000441171998
   50          0.177959400000         0.000165781783
   51          0.071183800000         0.000002941091
   52     455476.770000000019         0.000000018692
   53      64817.743000000002         0.000000059130
   54      19256.987000000001         0.000000127765
   55       6877.007300000000         0.000000349959
   56       2643.487700000000         0.000000952574
   57       1054.237500000000         0.000002666188
   58        429.371220000000         0.000007382573
   59        177.188590000000         0.000018265750
   60         73.763945000000         0.000038415557
   61         30.897007000000         0.000042702732
   62         12.999482000000        -0.000046719129
   63          5.487679300000        -0.000225057003
   64          2.322571600000        -0.000360547827
   65          0.984980700000         0.001025762061
   66          0.418397300000         0.000001443268
   67          0.177959400000        -0.000640687707
   68          0.071183800000        -0.000024822228
   69     455476.770000000019         0.000000018952
   70      64817.743000000002         0.000000057291
   71      19256.987000000001         0.000000142024
   72       6877.007300000000         0.000000295704
   73       2643.487700000000         0.000001153889
   74       1054.237500000000         0.000002094431
   75        429.371220000000         0.000009194741
   76        177.188590000000         0.000013932101
   77         73.763945000000         0.000052886256
   78         30.897007000000         0.000011417704
   79         12.999482000000         0.000014255665
   80          5.487679300000        -0.000507425333
   81          2.322571600000         0.000267535603
   82          0.984980700000         0.001083632385
   83          0.418397300000        -0.001719271419
   84          0.177959400000         0.000806542850
   85          0.071183800000         0.000095395170
   86     455476.770000000019         0.000000005596
   87      64817.743000000002         0.000000016313
   88      19256.987000000001         0.000000044853
   89       6877.007300000000         0.000000073522
   90       2643.487700000000         0.000000385727
   91       1054.237500000000         0.000000475375
   92        429.371220000000         0.000003141314
   93        177.188590000000         0.000003066649
   94         73.763945000000         0.000019474893
   95         30.897007000000        -0.000005469986
   96         12.999482000000         0.000015612327
   97          5.487679300000        -0.000241335762
   98          2.322571600000         0.000465909073
   99          0.984980700000        -0.000389771897
  100          0.418397300000         0.000081657343
  101          0.177959400000         0.000175510994
  102          0.071183800000        -0.000154796873
 S 101
    1     455476.770000000019        -0.000001316516
    2      64817.743000000002        -0.000004163739
    3      19256.987000000001        -0.000008932434
    4       6877.007300000000        -0.000024542976
    5       2643.487700000000        -0.000065476419
    6       1054.237500000000        -0.000181293113
    7        429.371220000000        -0.000471108168
    8        177.188590000000        -0.001048029142
    9         73.763945000000        -0.001640098895
   10         30.897007000000        -0.001148133426
   11         12.999482000000        -0.000157784878
   12          5.487679300000        -0.000012835924
   13          2.322571600000         0.000005699180
   14          0.984980700000        -0.000004127189
   15          0.418397300000         0.000002647272
   16          0.177959400000        -0.000001160769
   17     455476.770000000019         0.000090201927
   18      64817.743000000002         0.000285673927
   19      19256.987000000001         0.000614561602
   20       6877.007300000000         0.001694166220
   21       2643.487700000000         0.004564042071
   22       1054.237500000000         0.012867418659
   23        429.371220000000         0.035023664782
   24        177.188590000000         0.086299936948
   25         73.763945000000         0.172201548574
   26         30.897007000000         0.183102253817
   27         12.999482000000        -0.134922382301
   28          5.487679300000        -0.625459922796
   29          2.322571600000        -0.376472735062
   30          0.984980700000        -0.004902833924
   31          0.418397300000        -0.011561131564
   32          0.177959400000         0.004391265912
   33          0.071183800000        -0.001272534052
   34     455476.770000000019         0.000002876378
   35      64817.743000000002         0.000009101733
   36      19256.987000000001         0.000019652101
   37       6877.007300000000         0.000053855234
   38       2643.487700000000         0.000146475411
   39       1054.237500000000         0.000409550104
   40        429.371220000000         0.001132040417
   41        177.188590000000         0.002785366943
   42         73.763945000000         0.005786013540
   43         30.897007000000         0.006283292685
   44         12.999482000000        -0.004850550845
   45          5.487679300000        -0.032841594953
   46          2.322571600000        -0.034773574979
   47          0.984980700000         0.034123041881
   48          0.418397300000         0.067765961402
   49          0.177959400000         0.025464811886
   50          0.071183800000         0.000451764513
   51     455476.770000000019         0.000003063591
   52      64817.743000000002         0.000009691500
   53      19256.987000000001         0.000020940820
   54       6877.007300000000         0.000057358427
   55       2643.487700000000         0.000156127380
   56       1054.237500000000         0.000436989754
   57        429.371220000000         0.001210008056
   58        177.188590000000         0.002993767295
   59         73.763945000000         0.006296332714
   60         30.897007000000         0.006999003286
   61         12.999482000000        -0.007657293068
   62          5.487679300000        -0.036886976785
   63          2.322571600000        -0.059094003673
   64          0.984980700000         0.168123012783
   65          0.418397300000         0.000236552475
   66          0.177959400000        -0.105009096777
   67          0.071183800000        -0.004068377911
   68     455476.770000000019         0.000003734068
   69      64817.743000000002         0.000011287717
   70      19256.987000000001         0.000027982299
   71       6877.007300000000         0.000058261233
   72       2643.487700000000         0.000227345694
   73       1054.237500000000         0.000412656451
   74        429.371220000000         0.001811598745
   75        177.188590000000         0.002744979727
   76         73.763945000000         0.010419943093
   77         30.897007000000         0.002249579262
   78         12.999482000000         0.002808730081
   79          5.487679300000        -0.099975750521
   80          2.322571600000         0.052711346838
   81          0.984980700000         0.213503256199
   82          0.418397300000        -0.338740380374
   83          0.177959400000         0.158909540867
   84          0.071183800000         0.018795284858
   85     455476.770000000019         0.000003832295
   86      64817.743000000002         0.000011172554
   87      19256.987000000001         0.000030718037
   88       6877.007300000000         0.000050353035
   89       2643.487700000000         0.000264171484
   90       1054.237500000000         0.000325567990
   91        429.371220000000         0.002151379574
   92        177.188590000000         0.002100243604
   93         73.763945000000         0.013337693623
   94         30.897007000000        -0.003746207816
   95         12.999482000000         0.010692353409
   96          5.487679300000        -0.165282680931
   97          2.322571600000         0.319085327182
   98          0.984980700000        -0.266941556961
   99          0.418397300000         0.055924345446
  100          0.177959400000         0.120201528751
  101          0.071183800000        -0.106015129683
 S 99
    1     455476.770000000019        -0.000000086669
    2      64817.743000000002        -0.000000274108
    3      19256.987000000001        -0.000000588041
    4       6877.007300000000        -0.000001615717
    5       2643.487700000000        -0.000004310453
    6       1054.237500000000        -0.000011934913
    7        429.371220000000        -0.000031014058
    8        177.188590000000        -0.000068994000
    9         73.763945000000        -0.000107971218
   10         30.897007000000        -0.000075584079
   11         12.999482000000        -0.000010387316
   12          5.487679300000        -0.000000845016
   13          2.322571600000         0.000000375189
   14          0.984980700000        -0.000000271702
   15     455476.770000000019        -0.000014910847
   16      64817.743000000002        -0.000047223384
   17      19256.987000000001        -0.000101590225
   18       6877.007300000000        -0.000280054476
   19       2643.487700000000        -0.000754459860
   20       1054.237500000000        -0.002127051138
   21        429.371220000000        -0.005789593701
   22        177.188590000000        -0.014265827819
   23         73.763945000000        -0.028465810393
   24         30.897007000000        -0.030267753588
   25         12.999482000000         0.022303370580
   26          5.487679300000         0.103391773874
   27          2.322571600000         0.062232898503
   28          0.984980700000         0.000810463913
   29          0.418397300000         0.001911115096
   30          0.177959400000        -0.000725899064
   31          0.071183800000         0.000210356488
   32     455476.770000000019         0.000021278803
   33      64817.743000000002         0.000067332582
   34      19256.987000000001         0.000145381849
   35       6877.007300000000         0.000398408977
   36       2643.487700000000         0.001083592336
   37       1054.237500000000         0.003029760090
   38        429.371220000000         0.008374581863
   39        177.188590000000         0.020605521791
   40         73.763945000000         0.042803634317
   41         30.897007000000         0.046482394232
   42         12.999482000000        -0.035883290485
   43          5.487679300000        -0.242954775504
   44          2.322571600000        -0.257247131717
   45          0.984980700000         0.252434633327
   46          0.418397300000         0.501317428803
   47          0.177959400000         0.188382983954
   48          0.071183800000         0.003342052844
   49     455476.770000000019         0.000018089027
   50      64817.743000000002         0.000057223635
   51      19256.987000000001         0.000123645440
   52       6877.007300000000         0.000338673845
   53       2643.487700000000         0.000921856865
   54       1054.237500000000         0.002580213704
   55        429.371220000000         0.007144513894
   56        177.188590000000         0.017676751759
   57         73.763945000000         0.037176807485
   58         30.897007000000         0.041325738264
   59         12.999482000000        -0.045212621883
   60          5.487679300000        -0.217799804575
   61          2.322571600000        -0.348921586245
   62          0.984980700000         0.992685292215
   63          0.418397300000         0.001396728260
   64          0.177959400000        -0.620028062747
   65          0.071183800000        -0.024021809084
   66     455476.770000000019         0.000015739531
   67      64817.743000000002         0.000047579042
   68      19256.987000000001         0.000117948650
   69       6877.007300000000         0.000245577885
   70       2643.487700000000         0.000958288586
   71       1054.237500000000         0.001739395018
   72        429.371220000000         0.007636099773
   73        177.188590000000         0.011570409357
   74         73.763945000000         0.043921274125
   75         30.897007000000         0.009482238680
   76         12.999482000000         0.011839124525
   77          5.487679300000        -0.421409436243
   78          2.322571600000         0.222184468121
   79          0.984980700000         0.899941099339
   80          0.418397300000        -1.427830168640
   81          0.177959400000         0.669822228705
   82          0.071183800000         0.079224315446
   83     455476.770000000019         0.000010753453
   84      64817.743000000002         0.000031350284
   85      19256.987000000001         0.000086195080
   86       6877.007300000000         0.000141291057
   87       2643.487700000000         0.000741267499
   88       1054.237500000000         0.000913546631
   89        429.371220000000         0.006036789935
   90        177.188590000000         0.005893301955
   91         73.763945000000         0.037425685167
   92         30.897007000000        -0.010511891955
   93         12.999482000000         0.030002837349
   94          5.487679300000        -0.463784650866
   95          2.322571600000         0.895356223832
   96          0.984980700000        -0.749040347719
   97          0.418397300000         0.156924203319
   98          0.177959400000         0.337286542857
   99          0.071183800000        -0.297479382773
 S 98
    1     455476.770000000019        -0.000000023942
    2      64817.743000000002        -0.000000075720
    3      19256.987000000001        -0.000000162441
    4       6877.007300000000        -0.000000446328
    5       2643.487700000000        -0.000001190725
    6       1054.237500000000        -0.000003296915
    7        429.371220000000        -0.000008567361
    8        177.188590000000        -0.000019058986
    9         73.763945000000        -0.000029826100
   10         30.897007000000        -0.000020879437
   11         12.999482000000        -0.000002869405
   12          5.487679300000        -0.000000233428
   13          2.322571600000         0.000000103643
   14     455476.770000000019         0.000003438142
   15      64817.743000000002         0.000010888766
   16      19256.987000000001         0.000023424669
   17       6877.007300000000         0.000064574947
   18       2643.487700000000         0.000173963318
   19       1054.237500000000         0.000490455348
   20        429.371220000000         0.001334964235
   21        177.188590000000         0.003289413887
   22         73.763945000000         0.006563645180
   23         30.897007000000         0.006979137155
   24         12.999482000000        -0.005142710107
   25          5.487679300000        -0.023840070206
   26          2.322571600000        -0.014349658719
   27          0.984980700000        -0.000186876730
   28          0.418397300000        -0.000440664826
   29          0.177959400000         0.000167377771
   30          0.071183800000        -0.000048503989
   31     455476.770000000019         0.000018839666
   32      64817.743000000002         0.000059614413
   33      19256.987000000001         0.000128717084
   34       6877.007300000000         0.000352740333
   35       2643.487700000000         0.000959382804
   36       1054.237500000000         0.002682466121
   37        429.371220000000         0.007414624082
   38        177.188590000000         0.018243561361
   39         73.763945000000         0.037897158688
   40         30.897007000000         0.041154231376
   41         12.999482000000        -0.031770076898
   42          5.487679300000        -0.215105465418
   43          2.322571600000        -0.227759523889
   44          0.984980700000         0.223498670387
   45          0.418397300000         0.443852641385
   46          0.177959400000         0.166789104499
   47          0.071183800000         0.002958961523
   48     455476.770000000019        -0.000015186148
   49      64817.743000000002        -0.000048040537
   50      19256.987000000001        -0.000103803146
   51       6877.007300000000        -0.000284324361
   52       2643.487700000000        -0.000773919710
   53       1054.237500000000        -0.002166147822
   54        429.371220000000        -0.005997981170
   55        177.188590000000        -0.014840033314
   56         73.763945000000        -0.031210771588
   57         30.897007000000        -0.034693892911
   58         12.999482000000         0.037957019711
   59          5.487679300000         0.182847867054
   60          2.322571600000         0.292927571439
   61          0.984980700000        -0.833381777782
   62          0.418397300000        -0.001172584997
   63          0.177959400000         0.520527596469
   64          0.071183800000         0.020166852594
   65     455476.770000000019        -0.000025586994
   66      64817.743000000002        -0.000077346945
   67      19256.987000000001        -0.000191743411
   68       6877.007300000000        -0.000399224078
   69       2643.487700000000        -0.001557843361
   70       1054.237500000000        -0.002827650272
   71        429.371220000000        -0.012413637718
   72        177.188590000000        -0.018809454339
   73         73.763945000000        -0.071400689005
   74         30.897007000000        -0.015414816363
   75         12.999482000000        -0.019246291578
   76          5.487679300000         0.685064918999
   77          2.322571600000        -0.361194533309
   78          0.984980700000        -1.462990676760
   79          0.418397300000         2.321154380271
   80          0.177959400000        -1.088897569409
   81          0.071183800000        -0.128791134169
   82     455476.770000000019        -0.000015019119
   83      64817.743000000002        -0.000043786274
   84      19256.987000000001        -0.000120386832
   85       6877.007300000000        -0.000197338209
   86       2643.487700000000        -0.001035312518
   87       1054.237500000000        -0.001275931109
   88        429.371220000000        -0.008431455841
   89        177.188590000000        -0.008231049237
   90         73.763945000000        -0.052271656824
   91         30.897007000000         0.014681735455
   92         12.999482000000        -0.041904323478
   93          5.487679300000         0.647758137276
   94          2.322571600000        -1.250524955203
   95          0.984980700000         1.046168689450
   96          0.418397300000        -0.219172690269
   97          0.177959400000        -0.471080925859
   98          0.071183800000         0.415483113775
 S 98
    1     455476.770000000019         0.000000035211
    2      64817.743000000002         0.000000111363
    3      19256.987000000001         0.000000238906
    4       6877.007300000000         0.000000656425
    5       2643.487700000000         0.000001751228
    6       1054.237500000000         0.000004848854
    7        429.371220000000         0.000012600230
    8        177.188590000000         0.000028030523
    9         73.763945000000         0.000043865984
   10         30.897007000000         0.000030707906
   11         12.999482000000         0.000004220105
   12          5.487679300000         0.000000343309
   13          2.322571600000        -0.000000152430
   14     455476.770000000019        -0.000002010729
   15      64817.743000000002        -0.000006368077
   16      19256.987000000001        -0.000013699450
   17       6877.007300000000        -0.000037765368
   18       2643.487700000000        -0.000101738972
   19       1054.237500000000        -0.000286833016
   20        429.371220000000        -0.000780727172
   21        177.188590000000        -0.001923748019
   22         73.763945000000        -0.003838616802
   23         30.897007000000        -0.004081608985
   24         12.999482000000         0.003007611302
   25          5.487679300000         0.013942388953
   26          2.322571600000         0.008392111326
   27          0.984980700000         0.000109291123
   28          0.418397300000         0.000257714023
   29          0.177959400000        -0.000097887547
   30          0.071183800000         0.000028366589
   31     455476.770000000019         0.000004332151
   32      64817.743000000002         0.000013708237
   33      19256.987000000001         0.000029598283
   34       6877.007300000000         0.000081112063
   35       2643.487700000000         0.000220608509
   36       1054.237500000000         0.000616828703
   37        429.371220000000         0.001704980698
   38        177.188590000000         0.004195077139
   39         73.763945000000         0.008714389746
   40         30.897007000000         0.009463348291
   41         12.999482000000        -0.007305477295
   42          5.487679300000        -0.049463150458
   43          2.322571600000        -0.052372930537
   44          0.984980700000         0.051393154233
   45          0.418397300000         0.102063189977
   46          0.177959400000         0.038352882176
   47          0.071183800000         0.000680408369
   48     455476.770000000019        -0.000024380564
   49      64817.743000000002        -0.000077126563
   50      19256.987000000001        -0.000166650508
   51       6877.007300000000        -0.000456467852
   52       2643.487700000000        -0.001242487512
   53       1054.237500000000        -0.003477636744
   54        429.371220000000        -0.009629444257
   55        177.188590000000        -0.023824895328
   56         73.763945000000        -0.050107257206
   57         30.897007000000        -0.055699225848
   58         12.999482000000         0.060938004819
   59          5.487679300000         0.293552662686
   60          2.322571600000         0.470279855900
   61          0.984980700000        -1.337950744752
   62          0.418397300000        -0.001882523727
   63          0.177959400000         0.835679761578
   64          0.071183800000         0.032376824363
   65     455476.770000000019         0.000026279879
   66      64817.743000000002         0.000079441467
   67      19256.987000000001         0.000196935740
   68       6877.007300000000         0.000410034896
   69       2643.487700000000         0.001600029095
   70       1054.237500000000         0.002904221835
   71        429.371220000000         0.012749793732
   72        177.188590000000         0.019318806338
   73         73.763945000000         0.073334189204
   74         30.897007000000         0.015832243014
   75         12.999482000000         0.019767472943
   76          5.487679300000        -0.703616184753
   77          2.322571600000         0.370975527184
   78          0.984980700000         1.502607840168
   79          0.418397300000        -2.384010250674
   80          0.177959400000         1.118384451060
   81          0.071183800000         0.132278743140
   82     455476.770000000019         0.000021990876
   83      64817.743000000002         0.000064111517
   84      19256.987000000001         0.000176269450
   85       6877.007300000000         0.000288941049
   86       2643.487700000000         0.001515896422
   87       1054.237500000000         0.001868208266
   88        429.371220000000         0.012345271137
   89        177.188590000000         0.012051837369
   90         73.763945000000         0.076535747619
   91         30.897007000000        -0.021496881249
   92         12.999482000000         0.061355979908
   93          5.487679300000        -0.948442355287
   94          2.322571600000         1.831008775659
   95          0.984980700000        -1.531791943242
   96          0.418397300000         0.320910924326
   97          0.177959400000         0.689752975904
   98          0.071183800000        -0.608347097989
 S 99
    1     455476.770000000019         0.000000059309
    2      64817.743000000002         0.000000187577
    3      19256.987000000001         0.000000402407
    4       6877.007300000000         0.000001105665
    5       2643.487700000000         0.000002949723
    6       1054.237500000000         0.000008167282
    7        429.371220000000         0.000021223494
    8        177.188590000000         0.000047213871
    9         73.763945000000         0.000073886702
   10         30.897007000000         0.000051723584
   11         12.999482000000         0.000007108232
   12          5.487679300000         0.000000578260
   13          2.322571600000        -0.000000256749
   14          0.984980700000         0.000000185931
   15     455476.770000000019        -0.000001737970
   16      64817.743000000002        -0.000005504235
   17      19256.987000000001        -0.000011841094
   18       6877.007300000000        -0.000032642425
   19       2643.487700000000        -0.000087937889
   20       1054.237500000000        -0.000247923576
   21        429.371220000000        -0.000674820059
   22        177.188590000000        -0.001662787973
   23         73.763945000000        -0.003317901195
   24         30.897007000000        -0.003527931031
   25         12.999482000000         0.002599623158
   26          5.487679300000         0.012051077605
   27          2.322571600000         0.007253705603
   28          0.984980700000         0.000094465576
   29          0.418397300000         0.000222754630
   30          0.177959400000        -0.000084608916
   31          0.071183800000         0.000024518608
   32     455476.770000000019        -0.000001012991
   33      64817.743000000002        -0.000003205412
   34      19256.987000000001        -0.000006920998
   35       6877.007300000000        -0.000018966521
   36       2643.487700000000        -0.000051585125
   37       1054.237500000000        -0.000144233720
   38        429.371220000000        -0.000398677472
   39        177.188590000000        -0.000980939403
   40         73.763945000000        -0.002037695135
   41         30.897007000000        -0.002212824917
   42         12.999482000000         0.001708247620
   43          5.487679300000         0.011566021715
   44          2.322571600000         0.012246418723
   45          0.984980700000        -0.012017316575
   46          0.418397300000        -0.023865545575
   47          0.177959400000        -0.008968095723
   48          0.071183800000        -0.000159100621
   49     455476.770000000019         0.000001977317
   50      64817.743000000002         0.000006255132
   51      19256.987000000001         0.000013515719
   52       6877.007300000000         0.000037020537
   53       2643.487700000000         0.000100768443
   54       1054.237500000000         0.000282043913
   55        429.371220000000         0.000780968897
   56        177.188590000000         0.001932250890
   57         73.763945000000         0.004063807669
   58         30.897007000000         0.004517328502
   59         12.999482000000        -0.004942204884
   60          5.487679300000        -0.023807760160
   61          2.322571600000        -0.038140720356
   62          0.984980700000         0.108510718809
   63          0.418397300000         0.000152676773
   64          0.177959400000        -0.067775448371
   65          0.071183800000        -0.002625830957
   66     455476.770000000019        -0.000022253460
   67      64817.743000000002        -0.000067270001
   68      19256.987000000001        -0.000166762625
   69       6877.007300000000        -0.000347212219
   70       2643.487700000000        -0.001354883835
   71       1054.237500000000        -0.002459257292
   72        429.371220000000        -0.010796359571
   73        177.188590000000        -0.016358914042
   74         73.763945000000        -0.062098437996
   75         30.897007000000        -0.013406537548
   76         12.999482000000        -0.016738839090
   77          5.487679300000         0.595813037497
   78          2.322571600000        -0.314137253346
   79          0.984980700000        -1.272388783568
   80          0.418397300000         2.018748885624
   81          0.177959400000        -0.947033412980
   82          0.071183800000        -0.112011919928
   83     455476.770000000019         0.000051487215
   84      64817.743000000002         0.000150104231
   85      19256.987000000001         0.000412699486
   86       6877.007300000000         0.000676497387
   87       2643.487700000000         0.003549166774
   88       1054.237500000000         0.004374034141
   89        429.371220000000         0.028903970937
   90        177.188590000000         0.028216954750
   91         73.763945000000         0.179193069174
   92         30.897007000000        -0.050330626517
   93         12.999482000000         0.143652694249
   94          5.487679300000        -2.220587135615
   95          2.322571600000         4.286939010856
   96          0.984980700000        -3.586382941083
   97          0.418397300000         0.751348425409
   98          0.177959400000         1.614917951004
   99          0.071183800000        -1.424322450651
 P 60
    1       1462.496200000000         0.000940307185
    2        354.067310000000         0.006067869854
    3        126.697790000000         0.025182055846
    4         49.989095000000         0.090903563382
    5         20.509295000000         0.238467617649
    6          8.580464100000         0.406987248411
    7          3.630104900000         0.336430568095
    8          1.546528000000         0.071289077536
    9          0.661936900000         0.003435363649
   10          0.284242800000         0.000283864660
   11          0.122346300000         0.000465407035
   12          0.048938500000        -0.000083551141
   13       1462.496200000000         0.000029603178
   14        354.067310000000         0.000191819182
   15        126.697790000000         0.000802775408
   16         49.989095000000         0.002960141611
   17         20.509295000000         0.008021843537
   18          8.580464100000         0.014386160460
   19          3.630104900000         0.011891575591
   20          1.546528000000        -0.017461532348
   21          0.661936900000        -0.048199488362
   22          0.284242800000        -0.044213821449
   23          0.122346300000        -0.015815232859
   24          0.048938500000        -0.000729290530
   25       1462.496200000000         0.000035134523
   26        354.067310000000         0.000213706549
   27        126.697790000000         0.000972685600
   28         49.989095000000         0.003309864891
   29         20.509295000000         0.010045195952
   30          8.580464100000         0.015020341888
   31          3.630104900000         0.018329208175
   32          1.546528000000        -0.047010218386
   33          0.661936900000        -0.076826440446
   34          0.284242800000         0.053302464653
   35          0.122346300000         0.063145255154
   36          0.048938500000         0.006499260177
   37       1462.496200000000         0.000055321271
   38        354.067310000000         0.000323965410
   39        126.697790000000         0.001567235872
   40         49.989095000000         0.005094776967
   41         20.509295000000         0.017173471944
   42          8.580464100000         0.020264174078
   43          3.630104900000         0.027600730075
   44          1.546528000000        -0.162977432592
   45          0.661936900000         0.079306046291
   46          0.284242800000         0.121439586090
   47          0.122346300000        -0.120247101069
   48          0.048938500000        -0.012847478091
   49       1462.496200000000         0.000055204067
   50        354.067310000000         0.000575222861
   51        126.697790000000         0.001345632783
   52         49.989095000000         0.009702533262
   53         20.509295000000         0.015335313072
   54          8.580464100000         0.049602172910
   55          3.630104900000        -0.070408500706
   56          1.546528000000        -0.106147969509
   57          0.661936900000         0.284451969430
   58          0.284242800000        -0.280789412802
   59          0.122346300000         0.115583401145
   60          0.048938500000         0.018777313940
 P 60
    1       1462.496200000000        -0.000197167672
    2        354.067310000000        -0.001272337160
    3        126.697790000000        -0.005280282238
    4         49.989095000000        -0.019061051809
    5         20.509295000000        -0.050002920079
    6          8.580464100000        -0.085338844142
    7          3.630104900000        -0.070544214659
    8          1.546528000000        -0.014948201696
    9          0.661936900000        -0.000720341888
   10          0.284242800000        -0.000059521968
   11          0.122346300000        -0.000097588557
   12          0.048938500000         0.000017519364
   13       1462.496200000000         0.000171241719
   14        354.067310000000         0.001109591914
   15        126.697790000000         0.004643712336
   16         49.989095000000         0.017123152984
   17         20.509295000000         0.046402933423
   18          8.580464100000         0.083217784409
   19          3.630104900000         0.068787678032
   20          1.546528000000        -0.101007495257
   21          0.661936900000        -0.278813422271
   22          0.284242800000        -0.255758044094
   23          0.122346300000        -0.091484356935
   24          0.048938500000        -0.004218633752
   25       1462.496200000000         0.000179775500
   26        354.067310000000         0.001093488636
   27        126.697790000000         0.004977014759
   28         49.989095000000         0.016935838678
   29         20.509295000000         0.051399021931
   30          8.580464100000         0.076855731420
   31          3.630104900000         0.093786460463
   32          1.546528000000        -0.240540777647
   33          0.661936900000        -0.393103720065
   34          0.284242800000         0.272736795068
   35          0.122346300000         0.323100153558
   36          0.048938500000         0.033255261318
   37       1462.496200000000         0.000226043815
   38        354.067310000000         0.001323729109
   39        126.697790000000         0.006403756940
   40         49.989095000000         0.020817360000
   41         20.509295000000         0.070171147872
   42          8.580464100000         0.082799818253
   43          3.630104900000         0.112777131951
   44          1.546528000000        -0.665929030515
   45          0.661936900000         0.324046082214
   46          0.284242800000         0.496204563694
   47          0.122346300000        -0.491332046182
   48          0.048938500000        -0.052495050964
   49       1462.496200000000         0.000161863915
   50        354.067310000000         0.001686611692
   51        126.697790000000         0.003945531619
   52         49.989095000000         0.028448810294
   53         20.509295000000         0.044964691241
   54          8.580464100000         0.145438595172
   55          3.630104900000        -0.206444855740
   56          1.546528000000        -0.311236598320
   57          0.661936900000         0.834041986482
   58          0.284242800000        -0.823302999471
   59          0.122346300000         0.338902239588
   60          0.048938500000         0.055056986426
 P 60
    1       1462.496200000000        -0.000037734019
    2        354.067310000000        -0.000243500339
    3        126.697790000000        -0.001010542295
    4         49.989095000000        -0.003647910882
    5         20.509295000000        -0.009569576648
    6          8.580464100000        -0.016332178377
    7          3.630104900000        -0.013500776919
    8          1.546528000000        -0.002860792163
    9          0.661936900000        -0.000137859287
   10          0.284242800000        -0.000011391335
   11          0.122346300000        -0.000018676533
   12          0.048938500000         0.000003352862
   13       1462.496200000000        -0.000195351875
   14        354.067310000000        -0.001265818060
   15        126.697790000000        -0.005297528636
   16         49.989095000000        -0.019534025087
   17         20.509295000000        -0.052936282611
   18          8.580464100000        -0.094934518765
   19          3.630104900000        -0.078472710579
   20          1.546528000000         0.115228950422
   21          0.661936900000         0.318069247536
   22          0.284242800000         0.291767763450
   23          0.122346300000         0.104364991953
   24          0.048938500000         0.004812600671
   25       1462.496200000000         0.000039982438
   26        354.067310000000         0.000243194102
   27        126.697790000000         0.001106898231
   28         49.989095000000         0.003766565054
   29         20.509295000000         0.011431247281
   30          8.580464100000         0.017092871378
   31          3.630104900000         0.020858300039
   32          1.546528000000        -0.053496759416
   33          0.661936900000        -0.087427068889
   34          0.284242800000         0.060657219339
   35          0.122346300000         0.071858132959
   36          0.048938500000         0.007396037925
   37       1462.496200000000         0.000273879057
   38        354.067310000000         0.001603855786
   39        126.697790000000         0.007758915742
   40         49.989095000000         0.025222715933
   41         20.509295000000         0.085020719700
   42          8.580464100000         0.100321860940
   43          3.630104900000         0.136642953906
   44          1.546528000000        -0.806852490808
   45          0.661936900000         0.392620499468
   46          0.284242800000         0.601211044752
   47          0.122346300000        -0.595307408313
   48          0.048938500000        -0.063604018874
   49       1462.496200000000         0.000242954534
   50        354.067310000000         0.002531570786
   51        126.697790000000         0.005922164909
   52         49.989095000000         0.042701101473
   53         20.509295000000         0.067491112056
   54          8.580464100000         0.218300454269
   55          3.630104900000        -0.309869644548
   56          1.546528000000        -0.467159977157
   57          0.661936900000         1.251880522589
   58          0.284242800000        -1.235761515526
   59          0.122346300000         0.508685557417
   60          0.048938500000         0.082639447481
 P 59
    1       1462.496200000000        -0.000020826416
    2        354.067310000000        -0.000134394359
    3        126.697790000000        -0.000557745361
    4         49.989095000000        -0.002013379730
    5         20.509295000000        -0.005281705685
    6          8.580464100000        -0.009014166724
    7          3.630104900000        -0.007451440417
    8          1.546528000000        -0.001578947825
    9          0.661936900000        -0.000076088233
   10          0.284242800000        -0.000006287183
   11          0.122346300000        -0.000010308079
   12       1462.496200000000         0.000083352481
   13        354.067310000000         0.000540097583
   14        126.697790000000         0.002260342541
   15         49.989095000000         0.008334752096
   16         20.509295000000         0.022586783344
   17          8.580464100000         0.040506535431
   18          3.630104900000         0.033482632795
   19          1.546528000000        -0.049165736801
   20          0.661936900000        -0.135713367618
   21          0.284242800000        -0.124491085029
   22          0.122346300000        -0.044530317310
   23          0.048938500000        -0.002053434116
   24       1462.496200000000        -0.000252122427
   25        354.067310000000        -0.001533540488
   26        126.697790000000        -0.006979911258
   27         49.989095000000        -0.023751316154
   28         20.509295000000        -0.072083493655
   29          8.580464100000        -0.107784728580
   30          3.630104900000        -0.131528878833
   31          1.546528000000         0.337341431176
   32          0.661936900000         0.551300169662
   33          0.284242800000        -0.382494068918
   34          0.122346300000        -0.453125117831
   35          0.048938500000        -0.046638152404
   36       1462.496200000000         0.000051223935
   37        354.067310000000         0.000299971112
   38        126.697790000000         0.001451159512
   39         49.989095000000         0.004717435446
   40         20.509295000000         0.015901529313
   41          8.580464100000         0.018763320496
   42          3.630104900000         0.025556498988
   43          1.546528000000        -0.150906609345
   44          0.661936900000         0.073432292779
   45          0.284242800000         0.112445237882
   46          0.122346300000        -0.111341073529
   47          0.048938500000        -0.011895937533
   48       1462.496200000000         0.000326142169
   49        354.067310000000         0.003398380654
   50        126.697790000000         0.007949914246
   51         49.989095000000         0.057321959138
   52         20.509295000000         0.090600069647
   53          8.580464100000         0.293046532474
   54          3.630104900000        -0.415969014621
   55          1.546528000000        -0.627115559034
   56          0.661936900000         1.680524428793
   57          0.284242800000        -1.658886273514
   58          0.122346300000         0.682859498480
   59          0.048938500000         0.110935195307
 S 0
 P 59
    1       1462.496200000000        -0.000011388943
    2        354.067310000000        -0.000073493666
    3        126.697790000000        -0.000305003511
    4         49.989095000000        -0.001101018366
    5         20.509295000000        -0.002888305110
    6          8.580464100000        -0.004929404508
    7          3.630104900000        -0.004074826338
    8          1.546528000000        -0.000863448920
    9          0.661936900000        -0.000041608913
   10          0.284242800000        -0.000003438151
   11          0.122346300000        -0.000005636981
   12       1462.496200000000        -0.000025618740
   13        354.067310000000        -0.000166001293
   14        126.697790000000        -0.000694725909
   15         49.989095000000        -0.002561721563
   16         20.509295000000        -0.006942144081
   17          8.580464100000        -0.012449856224
   18          3.630104900000        -0.010291029827
   19          1.546528000000         0.015111298653
   20          0.661936900000         0.041712081680
   21          0.284242800000         0.038262865319
   22          0.122346300000         0.013686582726
   23          0.048938500000         0.000631131723
   24       1462.496200000000         0.000117081642
   25        354.067310000000         0.000712151791
   26        126.697790000000         0.003241359679
   27         49.989095000000         0.011029733139
   28         20.509295000000         0.033474427001
   29          8.580464100000         0.050053512195
   30          3.630104900000         0.061079917604
   31          1.546528000000        -0.156655990711
   32          0.661936900000        -0.256015022989
   33          0.284242800000         0.177624156922
   34          0.122346300000         0.210424091705
   35          0.048938500000         0.021658015573
   36       1462.496200000000        -0.000346907256
   37        354.067310000000        -0.002031514261
   38        126.697790000000        -0.009827783840
   39         49.989095000000        -0.031948201049
   40         20.509295000000        -0.107690981952
   41          8.580464100000        -0.127072080242
   42          3.630104900000        -0.173077973638
   43          1.546528000000         1.021994842341
   44          0.661936900000        -0.497310388238
   45          0.284242800000        -0.761520344667
   46          0.122346300000         0.754042539168
   47          0.048938500000         0.080563646989
   48       1462.496200000000         0.000354240854
   49        354.067310000000         0.003691167155
   50        126.697790000000         0.008634836805
   51         49.989095000000         0.062260515927
   52         20.509295000000         0.098405692408
   53          8.580464100000         0.318293871608
   54          3.630104900000        -0.451806704605
   55          1.546528000000        -0.681144518400
   56          0.661936900000         1.825309524249
   57          0.284242800000        -1.801807139969
   58          0.122346300000         0.741691060805
   59          0.048938500000         0.120492784930
 D 15
    1          4.328841700000         0.021682506373
    2          1.774230200000         0.150650644648
    3          0.727190600000         0.468291104793
    4          0.298048200000         0.237229260355
    5          0.119219300000         0.022393517331
    6          4.328841700000        -0.071899382039
    7          1.774230200000         0.399129668862
    8          0.727190600000         0.176563019202
    9          0.298048200000        -0.519641697433
   10          0.119219300000        -0.037333191028
   11          4.328841700000        -0.051302771075
   12          1.774230200000         0.478162701214
   13          0.727190600000        -0.580706156608
   14          0.298048200000         0.225950110766
   15          0.119219300000         0.116361342216
 D 15
    1          4.328841700000        -0.017358631820
    2          1.774230200000        -0.120608246521
    3          0.727190600000        -0.374905591293
    4          0.298048200000        -0.189921557799
    5          0.119219300000        -0.017927854641
    6          4.328841700000        -0.078583649572
    7          1.774230200000         0.436235543927
    8          0.727190600000         0.192977547719
    9          0.298048200000        -0.567951210374
   10          0.119219300000        -0.040803944596
   11          4.328841700000        -0.082707438410
   12          1.774230200000         0.770866979151
   13          0.727190600000        -0.936181763199
   14          0.298048200000         0.364264044190
   15          0.119219300000         0.187591203029
 D 15
    1          4.328841700000         0.002486689964
    2          1.774230200000         0.017277589577
    3          0.727190600000         0.053706650443
    4          0.298048200000         0.027206984780
    5          0.119219300000         0.002568233296
    6          4.328841700000         0.078358857277
    7          1.774230200000        -0.434987671251
    8          0.727190600000        -0.192425526197
    9          0.298048200000         0.566326558724
   10          0.119219300000         0.040687222957
   11          4.328841700000        -0.130018357071
   12          1.774230200000         1.211823991607
   13          0.727190600000        -1.471703357173
   14          0.298048200000         0.572633048202
   15          0.119219300000         0.294898505959
 F 8
    1          1.631174000000         0.223506932092
    2          0.820328800000         0.528927156606
    3          0.412549100000         0.240632450441
    4          0.165019600000         0.035459263901
    5          1.631174000000         0.355534949797
    6          0.820328800000         0.016556860535
    7          0.412549100000        -0.341150493914
    8          0.165019600000        -0.042806828190
 F 8
    1          1.631174000000        -0.101344485495
    2          0.820328800000        -0.239830818887
    3          0.412549100000        -0.109109689150
    4          0.165019600000        -0.016078252350
    5          1.631174000000         0.784103105465
    6          0.820328800000         0.036514794873
    7          0.412549100000        -0.752379370470
    8          0.165019600000        -0.094406940691
 end
  // -----------------------------------------------
  // The basis set
  // -----------------------------------------------
  BAS[ATNO] = new BFNGauss[NSH];
  // Basis function   1 L = s
  InitBFNGauss(BAS[ATNO][  0]);
  BAS[ATNO][  0].l  = 0;
  BAS[ATNO][  0].ng = 102;
  BAS[ATNO][  0].a[  0] =    455476.770000000019;     BAS[ATNO][  0].d[  0] =         0.000319857273;
  BAS[ATNO][  0].a[  1] =     64817.743000000002;     BAS[ATNO][  0].d[  1] =         0.001011611376;
  BAS[ATNO][  0].a[  2] =     19256.987000000001;     BAS[ATNO][  0].d[  2] =         0.002170201498;
  BAS[ATNO][  0].a[  3] =      6877.007300000000;     BAS[ATNO][  0].d[  3] =         0.005962899165;
  BAS[ATNO][  0].a[  4] =      2643.487700000000;     BAS[ATNO][  0].d[  4] =         0.015907984380;
  BAS[ATNO][  0].a[  5] =      1054.237500000000;     BAS[ATNO][  0].d[  5] =         0.044046514491;
  BAS[ATNO][  0].a[  6] =       429.371220000000;     BAS[ATNO][  0].d[  6] =         0.114459244202;
  BAS[ATNO][  0].a[  7] =       177.188590000000;     BAS[ATNO][  0].d[  7] =         0.254626499236;
  BAS[ATNO][  0].a[  8] =        73.763945000000;     BAS[ATNO][  0].d[  8] =         0.398474262893;
  BAS[ATNO][  0].a[  9] =        30.897007000000;     BAS[ATNO][  0].d[  9] =         0.278947581892;
  BAS[ATNO][  0].a[ 10] =        12.999482000000;     BAS[ATNO][  0].d[ 10] =         0.038335013183;
  BAS[ATNO][  0].a[ 11] =         5.487679300000;     BAS[ATNO][  0].d[ 11] =         0.003118583413;
  BAS[ATNO][  0].a[ 12] =         2.322571600000;     BAS[ATNO][  0].d[ 12] =        -0.001384658195;
  BAS[ATNO][  0].a[ 13] =         0.984980700000;     BAS[ATNO][  0].d[ 13] =         0.001002731451;
  BAS[ATNO][  0].a[ 14] =         0.418397300000;     BAS[ATNO][  0].d[ 14] =        -0.000643174517;
  BAS[ATNO][  0].a[ 15] =         0.177959400000;     BAS[ATNO][  0].d[ 15] =         0.000282017596;
[...]
  BAS[ATNO][  9].a[ 27] =        20.509295000000;     BAS[ATNO][  9].d[ 27] =        -0.072083493655;
  BAS[ATNO][  9].a[ 28] =         8.580464100000;     BAS[ATNO][  9].d[ 28] =        -0.107784728580;
  BAS[ATNO][  9].a[ 29] =         3.630104900000;     BAS[ATNO][  9].d[ 29] =        -0.131528878833;
  BAS[ATNO][  9].a[ 30] =         1.546528000000;     BAS[ATNO][  9].d[ 30] =         0.337341431176;
  BAS[ATNO][  9].a[ 31] =         0.661936900000;     BAS[ATNO][  9].d[ 31] =         0.551300169662;
  BAS[ATNO][  9].a[ 32] =         0.284242800000;     BAS[ATNO][  9].d[ 32] =        -0.382494068918;
  BAS[ATNO][  9].a[ 33] =         0.122346300000;     BAS[ATNO][  9].d[ 33] =        -0.453125117831;
  BAS[ATNO][  9].a[ 34] =         0.048938500000;     BAS[ATNO][  9].d[ 34] =        -0.046638152404;
  BAS[ATNO][  9].a[ 35] =      1462.496200000000;     BAS[ATNO][  9].d[ 35] =         0.000051223935;
  BAS[ATNO][  9].a[ 36] =       354.067310000000;     BAS[ATNO][  9].d[ 36] =         0.000299971112;
  BAS[ATNO][  9].a[ 37] =       126.697790000000;     BAS[ATNO][  9].d[ 37] =         0.001451159512;
  BAS[ATNO][  9].a[ 38] =        49.989095000000;     BAS[ATNO][  9].d[ 38] =         0.004717435446;
  BAS[ATNO][  9].a[ 39] =        20.509295000000;     BAS[ATNO][  9].d[ 39] =         0.015901529313;
  BAS[ATNO][  9].a[ 40] =         8.580464100000;     BAS[ATNO][  9].d[ 40] =         0.018763320496;
  BAS[ATNO][  9].a[ 41] =         3.630104900000;     BAS[ATNO][  9].d[ 41] =         0.025556498988;
  BAS[ATNO][  9].a[ 42] =         1.546528000000;     BAS[ATNO][  9].d[ 42] =        -0.150906609345;
  BAS[ATNO][  9].a[ 43] =         0.661936900000;     BAS[ATNO][  9].d[ 43] =         0.073432292779;
  BAS[ATNO][  9].a[ 44] =         0.284242800000;     BAS[ATNO][  9].d[ 44] =         0.112445237882;
  BAS[ATNO][  9].a[ 45] =         0.122346300000;     BAS[ATNO][  9].d[ 45] =        -0.111341073529;
  BAS[ATNO][  9].a[ 46] =         0.048938500000;     BAS[ATNO][  9].d[ 46] =        -0.011895937533;
  BAS[ATNO][  9].a[ 47] =      1462.496200000000;     BAS[ATNO][  9].d[ 47] =         0.000326142169;
  BAS[ATNO][  9].a[ 48] =       354.067310000000;     BAS[ATNO][  9].d[ 48] =         0.003398380654;
  BAS[ATNO][  9].a[ 49] =       126.697790000000;     BAS[ATNO][  9].d[ 49] =         0.007949914246;
  BAS[ATNO][  9].a[ 50] =        49.989095000000;     BAS[ATNO][  9].d[ 50] =         0.057321959138;
  BAS[ATNO][  9].a[ 51] =        20.509295000000;     BAS[ATNO][  9].d[ 51] =         0.090600069647;
  BAS[ATNO][  9].a[ 52] =         8.580464100000;     BAS[ATNO][  9].d[ 52] =         0.293046532474;
  BAS[ATNO][  9].a[ 53] =         3.630104900000;     BAS[ATNO][  9].d[ 53] =        -0.415969014621;
  BAS[ATNO][  9].a[ 54] =         1.546528000000;     BAS[ATNO][  9].d[ 54] =        -0.627115559034;
  BAS[ATNO][  9].a[ 55] =         0.661936900000;     BAS[ATNO][  9].d[ 55] =         1.680524428793;
  BAS[ATNO][  9].a[ 56] =         0.284242800000;     BAS[ATNO][  9].d[ 56] =        -1.658886273514;
  BAS[ATNO][  9].a[ 57] =         0.122346300000;     BAS[ATNO][  9].d[ 57] =         0.682859498480;
  BAS[ATNO][  9].a[ 58] =         0.048938500000;     BAS[ATNO][  9].d[ 58] =         0.110935195307;

  // Basis function  11 L = s
  InitBFNGauss(BAS[ATNO][ 10]);
  BAS[ATNO][ 10].l  = 0;
  BAS[ATNO][ 10].ng = 0;

  // Basis function  12 L = p
  InitBFNGauss(BAS[ATNO][ 11]);
  BAS[ATNO][ 11].l  = 1;
  BAS[ATNO][ 11].ng = 59;
  BAS[ATNO][ 11].a[  0] =      1462.496200000000;     BAS[ATNO][ 11].d[  0] =        -0.000011388943;
  BAS[ATNO][ 11].a[  1] =       354.067310000000;     BAS[ATNO][ 11].d[  1] =        -0.000073493666;
  BAS[ATNO][ 11].a[  2] =       126.697790000000;     BAS[ATNO][ 11].d[  2] =        -0.000305003511;
  BAS[ATNO][ 11].a[  3] =        49.989095000000;     BAS[ATNO][ 11].d[  3] =        -0.001101018366;
  BAS[ATNO][ 11].a[  4] =        20.509295000000;     BAS[ATNO][ 11].d[  4] =        -0.002888305110;
  BAS[ATNO][ 11].a[  5] =         8.580464100000;     BAS[ATNO][ 11].d[  5] =        -0.004929404508;
  BAS[ATNO][ 11].a[  6] =         3.630104900000;     BAS[ATNO][ 11].d[  6] =        -0.004074826338;
  BAS[ATNO][ 11].a[  7] =         1.546528000000;     BAS[ATNO][ 11].d[  7] =        -0.000863448920;
  BAS[ATNO][ 11].a[  8] =         0.661936900000;     BAS[ATNO][ 11].d[  8] =        -0.000041608913;
  BAS[ATNO][ 11].a[  9] =         0.284242800000;     BAS[ATNO][ 11].d[  9] =        -0.000003438151;
  BAS[ATNO][ 11].a[ 10] =         0.122346300000;     BAS[ATNO][ 11].d[ 10] =        -0.000005636981;
  BAS[ATNO][ 11].a[ 11] =      1462.496200000000;     BAS[ATNO][ 11].d[ 11] =        -0.000025618740;
  BAS[ATNO][ 11].a[ 12] =       354.067310000000;     BAS[ATNO][ 11].d[ 12] =        -0.000166001293;
  BAS[ATNO][ 11].a[ 13] =       126.697790000000;     BAS[ATNO][ 11].d[ 13] =        -0.000694725909;
  BAS[ATNO][ 11].a[ 14] =        49.989095000000;     BAS[ATNO][ 11].d[ 14] =        -0.002561721563;
  BAS[ATNO][ 11].a[ 15] =        20.509295000000;     BAS[ATNO][ 11].d[ 15] =        -0.006942144081;
  BAS[ATNO][ 11].a[ 16] =         8.580464100000;     BAS[ATNO][ 11].d[ 16] =        -0.012449856224;
  BAS[ATNO][ 11].a[ 17] =         3.630104900000;     BAS[ATNO][ 11].d[ 17] =        -0.010291029827;
  BAS[ATNO][ 11].a[ 18] =         1.546528000000;     BAS[ATNO][ 11].d[ 18] =         0.015111298653;
  BAS[ATNO][ 11].a[ 19] =         0.661936900000;     BAS[ATNO][ 11].d[ 19] =         0.041712081680;
  BAS[ATNO][ 11].a[ 20] =         0.284242800000;     BAS[ATNO][ 11].d[ 20] =         0.038262865319;
  BAS[ATNO][ 11].a[ 21] =         0.122346300000;     BAS[ATNO][ 11].d[ 21] =         0.013686582726;
  BAS[ATNO][ 11].a[ 22] =         0.048938500000;     BAS[ATNO][ 11].d[ 22] =         0.000631131723;
  BAS[ATNO][ 11].a[ 23] =      1462.496200000000;     BAS[ATNO][ 11].d[ 23] =         0.000117081642;
  BAS[ATNO][ 11].a[ 24] =       354.067310000000;     BAS[ATNO][ 11].d[ 24] =         0.000712151791;
  BAS[ATNO][ 11].a[ 25] =       126.697790000000;     BAS[ATNO][ 11].d[ 25] =         0.003241359679;
  BAS[ATNO][ 11].a[ 26] =        49.989095000000;     BAS[ATNO][ 11].d[ 26] =         0.011029733139;
  BAS[ATNO][ 11].a[ 27] =        20.509295000000;     BAS[ATNO][ 11].d[ 27] =         0.033474427001;
  BAS[ATNO][ 11].a[ 28] =         8.580464100000;     BAS[ATNO][ 11].d[ 28] =         0.050053512195;
  BAS[ATNO][ 11].a[ 29] =         3.630104900000;     BAS[ATNO][ 11].d[ 29] =         0.061079917604;
  BAS[ATNO][ 11].a[ 30] =         1.546528000000;     BAS[ATNO][ 11].d[ 30] =        -0.156655990711;
  BAS[ATNO][ 11].a[ 31] =         0.661936900000;     BAS[ATNO][ 11].d[ 31] =        -0.256015022989;
  BAS[ATNO][ 11].a[ 32] =         0.284242800000;     BAS[ATNO][ 11].d[ 32] =         0.177624156922;
  BAS[ATNO][ 11].a[ 33] =         0.122346300000;     BAS[ATNO][ 11].d[ 33] =         0.210424091705;
  BAS[ATNO][ 11].a[ 34] =         0.048938500000;     BAS[ATNO][ 11].d[ 34] =         0.021658015573;
  BAS[ATNO][ 11].a[ 35] =      1462.496200000000;     BAS[ATNO][ 11].d[ 35] =        -0.000346907256;
  BAS[ATNO][ 11].a[ 36] =       354.067310000000;     BAS[ATNO][ 11].d[ 36] =        -0.002031514261;
  BAS[ATNO][ 11].a[ 37] =       126.697790000000;     BAS[ATNO][ 11].d[ 37] =        -0.009827783840;
  BAS[ATNO][ 11].a[ 38] =        49.989095000000;     BAS[ATNO][ 11].d[ 38] =        -0.031948201049;
  BAS[ATNO][ 11].a[ 39] =        20.509295000000;     BAS[ATNO][ 11].d[ 39] =        -0.107690981952;
  BAS[ATNO][ 11].a[ 40] =         8.580464100000;     BAS[ATNO][ 11].d[ 40] =        -0.127072080242;
  BAS[ATNO][ 11].a[ 41] =         3.630104900000;     BAS[ATNO][ 11].d[ 41] =        -0.173077973638;
  BAS[ATNO][ 11].a[ 42] =         1.546528000000;     BAS[ATNO][ 11].d[ 42] =         1.021994842341;
  BAS[ATNO][ 11].a[ 43] =         0.661936900000;     BAS[ATNO][ 11].d[ 43] =        -0.497310388238;
  BAS[ATNO][ 11].a[ 44] =         0.284242800000;     BAS[ATNO][ 11].d[ 44] =        -0.761520344667;
  BAS[ATNO][ 11].a[ 45] =         0.122346300000;     BAS[ATNO][ 11].d[ 45] =         0.754042539168;
  BAS[ATNO][ 11].a[ 46] =         0.048938500000;     BAS[ATNO][ 11].d[ 46] =         0.080563646989;
  BAS[ATNO][ 11].a[ 47] =      1462.496200000000;     BAS[ATNO][ 11].d[ 47] =         0.000354240854;
  BAS[ATNO][ 11].a[ 48] =       354.067310000000;     BAS[ATNO][ 11].d[ 48] =         0.003691167155;
  BAS[ATNO][ 11].a[ 49] =       126.697790000000;     BAS[ATNO][ 11].d[ 49] =         0.008634836805;
  BAS[ATNO][ 11].a[ 50] =        49.989095000000;     BAS[ATNO][ 11].d[ 50] =         0.062260515927;
  BAS[ATNO][ 11].a[ 51] =        20.509295000000;     BAS[ATNO][ 11].d[ 51] =         0.098405692408;
  BAS[ATNO][ 11].a[ 52] =         8.580464100000;     BAS[ATNO][ 11].d[ 52] =         0.318293871608;
  BAS[ATNO][ 11].a[ 53] =         3.630104900000;     BAS[ATNO][ 11].d[ 53] =        -0.451806704605;
  BAS[ATNO][ 11].a[ 54] =         1.546528000000;     BAS[ATNO][ 11].d[ 54] =        -0.681144518400;
  BAS[ATNO][ 11].a[ 55] =         0.661936900000;     BAS[ATNO][ 11].d[ 55] =         1.825309524249;
  BAS[ATNO][ 11].a[ 56] =         0.284242800000;     BAS[ATNO][ 11].d[ 56] =        -1.801807139969;
  BAS[ATNO][ 11].a[ 57] =         0.122346300000;     BAS[ATNO][ 11].d[ 57] =         0.741691060805;
  BAS[ATNO][ 11].a[ 58] =         0.048938500000;     BAS[ATNO][ 11].d[ 58] =         0.120492784930;

  // Basis function  13 L = d
  InitBFNGauss(BAS[ATNO][ 12]);
  BAS[ATNO][ 12].l  = 2;
  BAS[ATNO][ 12].ng = 15;
  BAS[ATNO][ 12].a[  0] =         4.328841700000;     BAS[ATNO][ 12].d[  0] =        -0.021682506373;
  BAS[ATNO][ 12].a[  1] =         1.774230200000;     BAS[ATNO][ 12].d[  1] =        -0.150650644648;
  BAS[ATNO][ 12].a[  2] =         0.727190600000;     BAS[ATNO][ 12].d[  2] =        -0.468291104793;
  BAS[ATNO][ 12].a[  3] =         0.298048200000;     BAS[ATNO][ 12].d[  3] =        -0.237229260355;
  BAS[ATNO][ 12].a[  4] =         0.119219300000;     BAS[ATNO][ 12].d[  4] =        -0.022393517331;
  BAS[ATNO][ 12].a[  5] =         4.328841700000;     BAS[ATNO][ 12].d[  5] =         0.071899382039;
  BAS[ATNO][ 12].a[  6] =         1.774230200000;     BAS[ATNO][ 12].d[  6] =        -0.399129668862;
  BAS[ATNO][ 12].a[  7] =         0.727190600000;     BAS[ATNO][ 12].d[  7] =        -0.176563019202;
  BAS[ATNO][ 12].a[  8] =         0.298048200000;     BAS[ATNO][ 12].d[  8] =         0.519641697433;
  BAS[ATNO][ 12].a[  9] =         0.119219300000;     BAS[ATNO][ 12].d[  9] =         0.037333191028;
  BAS[ATNO][ 12].a[ 10] =         4.328841700000;     BAS[ATNO][ 12].d[ 10] =         0.051302771075;
  BAS[ATNO][ 12].a[ 11] =         1.774230200000;     BAS[ATNO][ 12].d[ 11] =        -0.478162701214;
  BAS[ATNO][ 12].a[ 12] =         0.727190600000;     BAS[ATNO][ 12].d[ 12] =         0.580706156608;
  BAS[ATNO][ 12].a[ 13] =         0.298048200000;     BAS[ATNO][ 12].d[ 13] =        -0.225950110766;
  BAS[ATNO][ 12].a[ 14] =         0.119219300000;     BAS[ATNO][ 12].d[ 14] =        -0.116361342216;

  // Basis function  14 L = d
  InitBFNGauss(BAS[ATNO][ 13]);
  BAS[ATNO][ 13].l  = 2;
  BAS[ATNO][ 13].ng = 15;
  BAS[ATNO][ 13].a[  0] =         4.328841700000;     BAS[ATNO][ 13].d[  0] =         0.017358631820;
  BAS[ATNO][ 13].a[  1] =         1.774230200000;     BAS[ATNO][ 13].d[  1] =         0.120608246521;
  BAS[ATNO][ 13].a[  2] =         0.727190600000;     BAS[ATNO][ 13].d[  2] =         0.374905591293;
  BAS[ATNO][ 13].a[  3] =         0.298048200000;     BAS[ATNO][ 13].d[  3] =         0.189921557799;
  BAS[ATNO][ 13].a[  4] =         0.119219300000;     BAS[ATNO][ 13].d[  4] =         0.017927854641;
  BAS[ATNO][ 13].a[  5] =         4.328841700000;     BAS[ATNO][ 13].d[  5] =         0.078583649572;
  BAS[ATNO][ 13].a[  6] =         1.774230200000;     BAS[ATNO][ 13].d[  6] =        -0.436235543927;
  BAS[ATNO][ 13].a[  7] =         0.727190600000;     BAS[ATNO][ 13].d[  7] =        -0.192977547719;
  BAS[ATNO][ 13].a[  8] =         0.298048200000;     BAS[ATNO][ 13].d[  8] =         0.567951210374;
  BAS[ATNO][ 13].a[  9] =         0.119219300000;     BAS[ATNO][ 13].d[  9] =         0.040803944596;
  BAS[ATNO][ 13].a[ 10] =         4.328841700000;     BAS[ATNO][ 13].d[ 10] =         0.082707438410;
  BAS[ATNO][ 13].a[ 11] =         1.774230200000;     BAS[ATNO][ 13].d[ 11] =        -0.770866979151;
  BAS[ATNO][ 13].a[ 12] =         0.727190600000;     BAS[ATNO][ 13].d[ 12] =         0.936181763199;
  BAS[ATNO][ 13].a[ 13] =         0.298048200000;     BAS[ATNO][ 13].d[ 13] =        -0.364264044190;
  BAS[ATNO][ 13].a[ 14] =         0.119219300000;     BAS[ATNO][ 13].d[ 14] =        -0.187591203029;

  // Basis function  15 L = d
  InitBFNGauss(BAS[ATNO][ 14]);
  BAS[ATNO][ 14].l  = 2;
  BAS[ATNO][ 14].ng = 15;
  BAS[ATNO][ 14].a[  0] =         4.328841700000;     BAS[ATNO][ 14].d[  0] =        -0.002486689964;
  BAS[ATNO][ 14].a[  1] =         1.774230200000;     BAS[ATNO][ 14].d[  1] =        -0.017277589577;
  BAS[ATNO][ 14].a[  2] =         0.727190600000;     BAS[ATNO][ 14].d[  2] =        -0.053706650443;
  BAS[ATNO][ 14].a[  3] =         0.298048200000;     BAS[ATNO][ 14].d[  3] =        -0.027206984780;
  BAS[ATNO][ 14].a[  4] =         0.119219300000;     BAS[ATNO][ 14].d[  4] =        -0.002568233296;
  BAS[ATNO][ 14].a[  5] =         4.328841700000;     BAS[ATNO][ 14].d[  5] =        -0.078358857277;
  BAS[ATNO][ 14].a[  6] =         1.774230200000;     BAS[ATNO][ 14].d[  6] =         0.434987671251;
  BAS[ATNO][ 14].a[  7] =         0.727190600000;     BAS[ATNO][ 14].d[  7] =         0.192425526197;
  BAS[ATNO][ 14].a[  8] =         0.298048200000;     BAS[ATNO][ 14].d[  8] =        -0.566326558724;
  BAS[ATNO][ 14].a[  9] =         0.119219300000;     BAS[ATNO][ 14].d[  9] =        -0.040687222957;
  BAS[ATNO][ 14].a[ 10] =         4.328841700000;     BAS[ATNO][ 14].d[ 10] =         0.130018357071;
  BAS[ATNO][ 14].a[ 11] =         1.774230200000;     BAS[ATNO][ 14].d[ 11] =        -1.211823991607;
  BAS[ATNO][ 14].a[ 12] =         0.727190600000;     BAS[ATNO][ 14].d[ 12] =         1.471703357173;
  BAS[ATNO][ 14].a[ 13] =         0.298048200000;     BAS[ATNO][ 14].d[ 13] =        -0.572633048202;
  BAS[ATNO][ 14].a[ 14] =         0.119219300000;     BAS[ATNO][ 14].d[ 14] =        -0.294898505959;

  // Basis function  16 L = f
  InitBFNGauss(BAS[ATNO][ 15]);
  BAS[ATNO][ 15].l  = 3;
  BAS[ATNO][ 15].ng = 8;
  BAS[ATNO][ 15].a[  0] =         1.631174000000;     BAS[ATNO][ 15].d[  0] =         0.223506932092;
  BAS[ATNO][ 15].a[  1] =         0.820328800000;     BAS[ATNO][ 15].d[  1] =         0.528927156606;
  BAS[ATNO][ 15].a[  2] =         0.412549100000;     BAS[ATNO][ 15].d[  2] =         0.240632450441;
  BAS[ATNO][ 15].a[  3] =         0.165019600000;     BAS[ATNO][ 15].d[  3] =         0.035459263901;
  BAS[ATNO][ 15].a[  4] =         1.631174000000;     BAS[ATNO][ 15].d[  4] =         0.355534949797;
  BAS[ATNO][ 15].a[  5] =         0.820328800000;     BAS[ATNO][ 15].d[  5] =         0.016556860535;
  BAS[ATNO][ 15].a[  6] =         0.412549100000;     BAS[ATNO][ 15].d[  6] =        -0.341150493914;
  BAS[ATNO][ 15].a[  7] =         0.165019600000;     BAS[ATNO][ 15].d[  7] =        -0.042806828190;

  // Basis function  17 L = f
  InitBFNGauss(BAS[ATNO][ 16]);
  BAS[ATNO][ 16].l  = 3;
  BAS[ATNO][ 16].ng = 8;
  BAS[ATNO][ 16].a[  0] =         1.631174000000;     BAS[ATNO][ 16].d[  0] =        -0.101344485495;
  BAS[ATNO][ 16].a[  1] =         0.820328800000;     BAS[ATNO][ 16].d[  1] =        -0.239830818887;
  BAS[ATNO][ 16].a[  2] =         0.412549100000;     BAS[ATNO][ 16].d[  2] =        -0.109109689150;
  BAS[ATNO][ 16].a[  3] =         0.165019600000;     BAS[ATNO][ 16].d[  3] =        -0.016078252350;
  BAS[ATNO][ 16].a[  4] =         1.631174000000;     BAS[ATNO][ 16].d[  4] =         0.784103105465;
  BAS[ATNO][ 16].a[  5] =         0.820328800000;     BAS[ATNO][ 16].d[  5] =         0.036514794873;
  BAS[ATNO][ 16].a[  6] =         0.412549100000;     BAS[ATNO][ 16].d[  6] =        -0.752379370470;
  BAS[ATNO][ 16].a[  7] =         0.165019600000;     BAS[ATNO][ 16].d[  7] =        -0.094406940691;

-------
TIMINGS
-------

Total SCF time: 0 days 0 hours 0 min 14 sec 

Total time                  ....      14.448 sec
Sum of individual times     ....      14.182 sec  ( 98.2%)

Fock matrix formation       ....      13.701 sec  ( 94.8%)
  XC integration            ....       0.027 sec  (  0.2% of F)
    Basis function eval.    ....       0.011 sec  ( 40.6% of XC)
    Density eval.           ....       0.001 sec  (  4.5% of XC)
    XC-Functional eval.     ....       0.001 sec  (  4.7% of XC)
    XC-Potential eval.      ....       0.002 sec  (  6.8% of XC)
Diagonalization             ....       0.001 sec  (  0.0%)
Density matrix formation    ....       0.001 sec  (  0.0%)
Population analysis         ....       0.001 sec  (  0.0%)
Initial guess               ....       0.095 sec  (  0.7%)
Orbital Transformation      ....       0.000 sec  (  0.0%)
Orbital Orthonormalization  ....       0.000 sec  (  0.0%)
DIIS solution               ....       0.000 sec  (  0.0%)
SOSCF solution              ....       0.001 sec  (  0.0%)
Grid generation             ....       0.383 sec  (  2.6%)

-------------------------   --------------------
FINAL SINGLE POINT ENERGY      -311.061722739147
-------------------------   --------------------


                            ***************************************
                            *     ORCA property calculations      *
                            ***************************************

                                    ---------------------
                                    Active property flags
                                    ---------------------
   (+) Dipole Moment


------------------------------------------------------------------------------
                       ORCA ELECTRIC PROPERTIES CALCULATION
------------------------------------------------------------------------------

Dipole Moment Calculation                       ... on
Quadrupole Moment Calculation                   ... off
Polarizability Calculation                      ... off
GBWName                                         ... Ar_ano-rcc-qzp_4385.151648_.gbw
Electron density file                           ... Ar_ano-rcc-qzp_4385.151648_.scfp
The origin for moment calculation is the CENTER OF MASS  = ( 0.000000,  0.000000  0.000000)

-------------
DIPOLE MOMENT
-------------
                                X             Y             Z
Electronic contribution:     -0.00000      -0.00000       0.00000
Nuclear contribution   :      0.00000       0.00000       0.00000
                        -----------------------------------------
Total Dipole Moment    :     -0.00000      -0.00000       0.00000
                        -----------------------------------------
Magnitude (a.u.)       :      0.00000
Magnitude (Debye)      :      0.00000



--------------------
Rotational spectrum 
--------------------
 
Rotational constants in cm-1:     0.000000     0.000000     0.000000 
Rotational constants in MHz :     0.000000     0.000000     0.000000 

 Dipole components along the rotational axes: 
x,y,z [a.u.] :    -0.000000    -0.000000     0.000000 
x,y,z [Debye]:    -0.000000    -0.000000     0.000000 

 

Timings for individual modules:

Sum of individual times         ...       15.574 sec (=   0.260 min)
GTO integral calculation        ...        0.457 sec (=   0.008 min)   2.9 %
Relativistic integrals          ...        0.391 sec (=   0.007 min)   2.5 %
SCF iterations                  ...       14.725 sec (=   0.245 min)  94.5 %
                             ****ORCA TERMINATED NORMALLY****
TOTAL RUN TIME: 0 days 0 hours 0 minutes 15 seconds 923 msec
