
                                 *****************
                                 * O   R   C   A *
                                 *****************

           --- An Ab Initio, DFT and Semiempirical electronic structure package ---

                  #######################################################
                  #                        -***-                        #
                  #          Department of theory and spectroscopy      #
                  #               Directorship: Frank Neese             #
                  #        Max Planck Institute fuer Kohlenforschung    #
                  #                Kaiser Wilhelm Platz 1               #
                  #                 D-45470 Muelheim/Ruhr               #
                  #                      Germany                        #
                  #                                                     #
                  #                  All rights reserved                #
                  #                        -***-                        #
                  #######################################################


                         Program Version 4.2.1 -  RELEASE  -


 With contributions from (in alphabetic order):
   Daniel Aravena         : Magnetic Suceptibility
   Michael Atanasov       : Ab Initio Ligand Field Theory (pilot matlab implementation)
   Alexander A. Auer      : GIAO ZORA, VPT2
   Ute Becker             : Parallelization
   Giovanni Bistoni       : ED, misc. LED, open-shell LED, HFLD
   Martin Brehm           : Molecular dynamics
   Dmytro Bykov           : SCF Hessian
   Vijay G. Chilkuri      : MRCI spin determinant printing, contributions to CSF-ICE
   Dipayan Datta          : RHF DLPNO-CCSD density
   Achintya Kumar Dutta   : EOM-CC, STEOM-CC
   Dmitry Ganyushin       : Spin-Orbit,Spin-Spin,Magnetic field MRCI
   Miquel Garcia          : C-PCM Hessian, Gaussian charge scheme
   Yang Guo               : DLPNO-NEVPT2, CIM, IAO-localization
   Andreas Hansen         : Spin unrestricted coupled pair/coupled cluster methods
   Benjamin Helmich-Paris : CASSCF linear response (MC-RPA)
   Lee Huntington         : MR-EOM, pCC
   Robert Izsak           : Overlap fitted RIJCOSX, COSX-SCS-MP3, EOM
   Christian Kollmar      : KDIIS, OOCD, Brueckner-CCSD(T), CCSD density
   Simone Kossmann        : Meta GGA functionals, TD-DFT gradient, OOMP2, MP2 Hessian
   Martin Krupicka        : AUTO-CI
   Lucas Lang             : DCDCAS
   Dagmar Lenk            : GEPOL surface, SMD
   Dimitrios Liakos       : Extrapolation schemes; Compound Job, initial MDCI parallelization
   Dimitrios Manganas     : Further ROCIS development; embedding schemes
   Dimitrios Pantazis     : SARC Basis sets
   Taras Petrenko         : DFT Hessian,TD-DFT gradient, ASA, ECA, R-Raman, ABS, FL, XAS/XES, NRVS
   Peter Pinski           : DLPNO-MP2, DLPNO-MP2 Gradient
   Christoph Reimann      : Effective Core Potentials
   Marius Retegan         : Local ZFS, SOC
   Christoph Riplinger    : Optimizer, TS searches, QM/MM, DLPNO-CCSD(T), (RO)-DLPNO pert. Triples
   Tobias Risthaus        : Range-separated hybrids, TD-DFT gradient, RPA, STAB
   Michael Roemelt        : Original ROCIS implementation
   Masaaki Saitow         : Open-shell DLPNO-CCSD energy and density
   Barbara Sandhoefer     : DKH picture change effects
   Avijit Sen             : IP-ROCIS
   Kantharuban Sivalingam : CASSCF convergence, NEVPT2, FIC-MRCI
   Bernardo de Souza      : ESD, SOC TD-DFT
   Georgi Stoychev        : AutoAux, RI-MP2 NMR
   Willem Van den Heuvel  : Paramagnetic NMR
   Boris Wezisla          : Elementary symmetry handling
   Frank Wennmohs         : Technical directorship


 We gratefully acknowledge several colleagues who have allowed us to
 interface, adapt or use parts of their codes:
   Stefan Grimme, W. Hujo, H. Kruse,             : VdW corrections, initial TS optimization,
                  C. Bannwarth                     DFT functionals, gCP, sTDA/sTD-DF
   Ed Valeev, F. Pavosevic, A. Kumar             : LibInt (2-el integral package), F12 methods
   Garnet Chan, S. Sharma, J. Yang, R. Olivares  : DMRG
   Ulf Ekstrom                                   : XCFun DFT Library
   Mihaly Kallay                                 : mrcc  (arbitrary order and MRCC methods)
   Andreas Klamt, Michael Diedenhofen            : otool_cosmo (COSMO solvation model)
   Jiri Pittner, Ondrej Demel                    : Mk-CCSD
   Frank Weinhold                                : gennbo (NPA and NBO analysis)
   Christopher J. Cramer and Donald G. Truhlar   : smd solvation model
   Lars Goerigk                                  : TD-DFT with DH, B97 family of functionals
   V. Asgeirsson, H. Jonsson                     : NEB implementation
   FAccTs GmbH                                   : IRC, NEB, NEB-TS, Multilevel, MM, QM/MM, CI optimization
   S Lehtola, MJT Oliveira, MAL Marques          : LibXC Library


 Your calculation uses the libint2 library for the computation of 2-el integrals
 For citations please refer to: http://libint.valeyev.net

 Your ORCA version has been built with support for libXC version: 4.2.3
 For citations please refer to: https://tddft.org/programs/libxc/

 This ORCA versions uses:
   CBLAS   interface :  Fast vector & matrix operations
   LAPACKE interface :  Fast linear algebra routines
   SCALAPACK package :  Parallel linear algebra routines


----- Orbital basis set information -----
Your calculation utilizes the basis: ANO-RCC-TZP
   H, He:       P.-O. Widmark, P.-A. Malmqvist, and B. O. Roos, Theor. Chim. Acta 77, 291 (1990).
   s block:     B. O. Roos, V. Veryazov and P.-O. Widmark, Theor. Chem. Acc. 111, 345 (2004).
   p block:     B. O. Roos, R. Lindh, P.-A. Malmqvist, V. Veryazov, and P.-O. Widmark, J. Phys. Chem. A 108, 2851 (2004).
   d block:     B. O. Roos, R. Lindh, P.-A. Malmqvist, V. Veryazov, and P.-O. Widmark, J. Phys. Chem. A 109, 6575 (2005).
   actinides:   B. O. Roos, R. Lindh, P.-A. Malmqvist, V. Veryazov, and P.-O. Widmark, Chem. Phys. Letters 409, 295 (2005).
   lanthanides: B. O. Roos, R. Lindh, P.-A. Malmqvist, V. Veryazov, P.-O. Widmark and A. C. Borin, J. Phys. Chem. A 112, 11431 (2008).

================================================================================
                                        WARNINGS
                       Please study these warnings very carefully!
================================================================================


INFO   : the flag for use of LIBINT has been found!

================================================================================
                                       INPUT FILE
================================================================================
NAME = Ar_ano-rcc-tzp_4385.151648_.inp
|  1> ! LDA ano-rcc-tzp nori grid5 finalgrid6 verytightscf
|  2> %Pal NProcs 18 End
|  3> 
|  4> % REL
|  5>   Method ZORA
|  6>   ModelPot 1, 0, 0, 0
|  7>   velit 4385.151648
|  8> END
|  9> 
| 10> *xyz 16 1
| 11> Ar 0.0 0.0 0.0
| 12> **                         ****END OF INPUT****
================================================================================

                       ****************************
                       * Single Point Calculation *
                       ****************************

---------------------------------
CARTESIAN COORDINATES (ANGSTROEM)
---------------------------------
  Ar     0.000000    0.000000    0.000000

----------------------------
CARTESIAN COORDINATES (A.U.)
----------------------------
  NO LB      ZA    FRAG     MASS         X           Y           Z
   0 Ar   18.0000    0    39.948    0.000000    0.000000    0.000000

--------------------------------
INTERNAL COORDINATES (ANGSTROEM)
--------------------------------
 Ar     0   0   0     0.000000000000     0.00000000     0.00000000

---------------------------
INTERNAL COORDINATES (A.U.)
---------------------------
 Ar     0   0   0     0.000000000000     0.00000000     0.00000000

---------------------
BASIS SET INFORMATION
---------------------
There are 1 groups of distinct atoms

 Group   1 Type Ar  : 85s48p10d4f contracted to 5s4p2d1f pattern {1717171717/12121212/55/4}

Atom   0Ar   basis set group =>   1


           ************************************************************
           *        Program running with 18 parallel MPI-processes    *
           *              working on a common directory               *
           ************************************************************


------------------------------------------------------------------------------
                       ORCA GTO INTEGRAL CALCULATION
                     -- ANO INTEGRAL GENERATION BRANCH --
------------------------------------------------------------------------------


Gathering ANO information                         ... done
Calculation Information:
Number of atoms                                   ... 1
Number of basis functions                         ... 34
Highest angular momentum                          ... 3
Number of primitive shells                        ... 38
Total number of shells                            ... 12
Maximum number of shells                          ... 12

Getting memory                                    ... done
Making prescreening integrals                     ... done
Gathering atom contracted prescreening            ... done
Making one-electron integrals                     ... done

Timings:

Total time                                        ...    0.2 sec
Prescreening matrix                               ...    0.1 sec
One-electron matrix                               ...    0.0 sec
Two-index integrals + Cholesky                    ...    0.0 sec


           ************************************************************
           *        Program running with 18 parallel MPI-processes    *
           *              working on a common directory               *
           ************************************************************
------------------------------------------------------------------------------
                          ORCA RELATIVISTIC HAMILTONIAN
------------------------------------------------------------------------------

Relativistic Method            ... ZORA(MP)
Treatment of potential         ... Van Wuellen
Nucleus model                  ... Point Nucleus
Speed of light used            ... 4385.15164800000002


            *************************************************
            *         ZERO ORDER REGULAR APPROXIMATION      *
            *                     ZORA(MP)                  *
            *            Programmed by FN according to      *
            *                   C. van Wuellen              *
            *       J. Chem. Phys. (1998) vol 109, 392-399  *
            *************************************************

Terms included in model potential: +V(e,N)
Basis function cutoff value   ... 1.000000e-12
Loading the fitted atomic densities  (DKH4)  ... done
Calculating the cutoffs                      ... done
Number of fit functions                      ... 15
Setting up the integration grid ... done


           ************************************************************
           *        Program running with 18 parallel MPI-processes    *
           *              working on a common directory               *
           ************************************************************
-------------------------------------------------------------------------------
                                 ORCA SCF
-------------------------------------------------------------------------------

------------
SCF SETTINGS
------------
Hamiltonian:
 Density Functional     Method          .... DFT(GTOs)
 Exchange Functional    Exchange        .... Slater
   X-Alpha parameter    XAlpha          ....  0.666667
 Correlation Functional Correlation     .... VWN-5
 Gradients option       PostSCFGGA      .... off
   Density functional embedding theory  .... OFF

Relativistic Settings:
 Scalar relativistic method             .... ZORA
 Speed of light used       Velit        ....       4385.15165
Orbital energies will be scaled


General Settings:
 Integral files         IntName         .... Ar_ano-rcc-tzp_4385.151648_
 Hartree-Fock type      HFTyp           .... RHF
 Total Charge           Charge          ....   16
 Multiplicity           Mult            ....    1
 Number of Electrons    NEL             ....    2
 Basis Dimension        Dim             ....   34
 Nuclear Repulsion      ENuc            ....      0.0000000000 Eh

Convergence Acceleration:
 DIIS                   CNVDIIS         .... on
   Start iteration      DIISMaxIt       ....    12
   Startup error        DIISStart       ....  0.200000
   # of expansion vecs  DIISMaxEq       ....     5
   Bias factor          DIISBfac        ....   1.050
   Max. coefficient     DIISMaxC        ....  10.000
 Newton-Raphson         CNVNR           .... off
 SOSCF                  CNVSOSCF        .... on
   Start iteration      SOSCFMaxIt      ....   150
   Startup grad/error   SOSCFStart      ....  0.003300
 Level Shifting         CNVShift        .... on
   Level shift para.    LevelShift      ....    0.2500
   Turn off err/grad.   ShiftErr        ....    0.0010
 Zerner damping         CNVZerner       .... off
 Static damping         CNVDamp         .... on
   Fraction old density DampFac         ....    0.7000
   Max. Damping (<1)    DampMax         ....    0.9800
   Min. Damping (>=0)   DampMin         ....    0.0000
   Turn off err/grad.   DampErr         ....    0.1000
 Fernandez-Rico         CNVRico         .... off

SCF Procedure:
 Maximum # iterations   MaxIter         ....   125
 SCF integral mode      SCFMode         .... Direct
   Integral package                     .... LIBINT
 Reset frequency        DirectResetFreq ....    20
 Integral Threshold     Thresh          ....  1.000e-12 Eh
 Primitive CutOff       TCut            ....  1.000e-14 Eh

Convergence Tolerance:
 Convergence Check Mode ConvCheckMode   .... Total+1el-Energy
 Convergence forced     ConvForced      .... 0
 Energy Change          TolE            ....  1.000e-09 Eh
 1-El. energy change                    ....  1.000e-06 Eh
 Orbital Gradient       TolG            ....  2.000e-06
 Orbital Rotation angle TolX            ....  2.000e-06
 DIIS Error             TolErr          ....  1.000e-08


Diagonalization of the overlap matrix:
Smallest eigenvalue                        ... 1.000e+00
Time for diagonalization                   ...    0.001 sec
Threshold for overlap eigenvalues          ... 1.000e-08
Number of eigenvalues below threshold      ... 0
Time for construction of square roots      ...    0.001 sec
Total time needed                          ...    0.002 sec

-------------------
DFT GRID GENERATION
-------------------

General Integration Accuracy     IntAcc      ...  5.010
Radial Grid Type                 RadialGrid  ... Gauss-Chebyshev
Angular Grid (max. acc.)         AngularGrid ... Lebedev-434
Angular grid pruning method      GridPruning ... 3 (G Style)
Weight generation scheme         WeightScheme... Becke
Basis function cutoff            BFCut       ...    1.0000e-12
Integration weight cutoff        WCut        ...    1.0000e-14
Grids for H and He will be reduced by one unit

# of grid points (after initial pruning)     ...  11992 (   0.0 sec)
# of grid points (after weights+screening)   ...  11992 (   0.0 sec)
Grid point division into batches done        ...    0.1 sec
Reduced shell lists constructed in    0.1 sec

Total number of grid points                  ...    11992
Total number of batches                      ...      188
Average number of points per batch           ...       63
Average number of grid points per atom       ...    11992
Average number of shells per batch           ...     6.67 (55.56%)
Average number of basis functions per batch  ...    16.33 (48.04%)
Average number of large shells per batch     ...     3.58 (53.75%)
Average number of large basis fcns per batch ...     9.08 (55.61%)
Maximum spatial batch extension              ...  18.71, 18.71, 18.71 au
Average spatial batch extension              ...   0.97,  0.98,  0.97 au

Time for grid setup =    0.155 sec

------------------------------
INITIAL GUESS: MODEL POTENTIAL
------------------------------
Loading ZORA relativistic densities                ... done
Calculating cut-offs                               ... done
Setting up the integral package                    ... done
Initializing the effective Hamiltonian             ... done
Starting the Coulomb interaction                   ... done (   0.0 sec)
Reading the grid                                   ... done
Mapping shells                                     ... done
Starting the XC term evaluation                    ... done (   0.0 sec)
  promolecular density results
     # of electrons  =     18.000000116
     EX              =    -28.047870263
     EC              =     -1.433252902
     EX+EC           =    -29.481123164
Transforming the Hamiltonian                       ... done (   0.0 sec)
Diagonalizing the Hamiltonian                      ... done (   0.0 sec)
Back transforming the eigenvectors                 ... done (   0.0 sec)
Now organizing SCF variables                       ... done
                      ------------------
                      INITIAL GUESS DONE (   0.2 sec)
                      ------------------
--------------
SCF ITERATIONS
--------------
ITER       Energy         Delta-E        Max-DP      RMS-DP      [F,P]     Damp
               ***  Starting incremental Fock matrix formation  ***
  0   -311.0397244974   0.000000000000 0.00521955  0.00017078  1.9383154 0.7000
                      *** Initiating the SOSCF procedure ***
                      *** Re-Reading the Fockian *** 
                      *** Removing any level shift *** 
ITER      Energy       Delta-E        Grad      Rot      Max-DP    RMS-DP
  1   -311.04636583  -0.0066413323  0.000343  0.000343  0.012176  0.000398
               *** Restarting incremental Fock matrix formation ***
  2   -311.06173354  -0.0153677151  0.005797  0.000052  0.000096  0.000003
  3   -311.06173426  -0.0000007170  0.000045  0.000000  0.000001  0.000000
                 **** Energy Check signals convergence ****
              ***Rediagonalizing the Fockian in SOSCF/NRSCF***

               *****************************************************
               *                     SUCCESS                       *
               *           SCF CONVERGED AFTER   4 CYCLES          *
               *****************************************************

Setting up the final grid:

General Integration Accuracy     IntAcc      ...  5.340
Radial Grid Type                 RadialGrid  ... Gauss-Chebyshev
Angular Grid (max. acc.)         AngularGrid ... Lebedev-590
Angular grid pruning method      GridPruning ... 3 (G Style)
Weight generation scheme         WeightScheme... Becke
Basis function cutoff            BFCut       ...    1.0000e-12
Integration weight cutoff        WCut        ...    1.0000e-14
Grids for H and He will be reduced by one unit

# of grid points (after initial pruning)     ...  18110 (   0.0 sec)
# of grid points (after weights+screening)   ...  18110 (   0.0 sec)
Grid point division into batches done        ...    0.2 sec
Reduced shell lists constructed in    0.2 sec

Total number of grid points                  ...    18110
Total number of batches                      ...      283
Average number of points per batch           ...       63
Average number of grid points per atom       ...    18110
Average number of shells per batch           ...     2.35 (19.61%)
Average number of basis functions per batch  ...     5.88 (17.30%)
Average number of large shells per batch     ...     1.18 (50.00%)
Average number of large basis fcns per batch ...     3.53 (60.00%)
Maximum spatial batch extension              ...  19.03, 19.03, 19.03 au
Average spatial batch extension              ...   0.84,  0.84,  0.80 au

Final grid set up in    0.2 sec
Final integration                            ... done (   0.0 sec)
Change in XC energy                          ...     0.000014066
Integrated number of electrons               ...     2.000000249
Previous integrated no of electrons          ...     2.000000961

----------------
TOTAL SCF ENERGY
----------------

Total Energy       :         -311.06172020 Eh           -8464.41973 eV

Components:
Nuclear Repulsion  :            0.00000000 Eh               0.00000 eV
Electronic Energy  :         -311.06172020 Eh           -8464.41973 eV
One Electron Energy:         -323.43111877 Eh           -8801.00818 eV
Two Electron Energy:           12.36939857 Eh             336.58845 eV

Virial components:
Potential Energy   :         -630.56483219 Eh          -17158.54141 eV
Kinetic Energy     :          319.50311200 Eh            8694.12168 eV
Virial Ratio       :            1.97357963


DFT components:
N(Alpha)           :        1.000000124499 electrons
N(Beta)            :        1.000000124499 electrons
N(Total)           :        2.000000248998 electrons
E(X)               :       -9.487715339064 Eh       
E(C)               :       -0.237083589527 Eh       
E(XC)              :       -9.724798928591 Eh       
DFET-embed. en.    :        0.000000000000 Eh       

---------------
SCF CONVERGENCE
---------------

  Last Energy change         ...   -4.3826e-11  Tolerance :   1.0000e-09
  Last MAX-Density change    ...    0.0000e+00  Tolerance :   1.0000e-08
  Last RMS-Density change    ...    0.0000e+00  Tolerance :   1.0000e-09
  Last Orbital Gradient      ...    1.1199e-10  Tolerance :   2.0000e-06
  Last Orbital Rotation      ...    0.0000e+00  Tolerance :   2.0000e-06

================================================================================
                                        WARNING
Number of found core electrons (2) does not match given number of chemical core electrons (10)
================================================================================
             **** THE GBW FILE WAS UPDATED (Ar_ano-rcc-tzp_4385.151648_.gbw) ****
             **** DENSITY FILE WAS UPDATED (Ar_ano-rcc-tzp_4385.151648_.scfp) ****
             **** ENERGY FILE WAS UPDATED (Ar_ano-rcc-tzp_4385.151648_.en.tmp) ****
             **** THE GBW FILE WAS UPDATED (Ar_ano-rcc-tzp_4385.151648_.gbw) ****
             **** DENSITY FILE WAS UPDATED (Ar_ano-rcc-tzp_4385.151648_.scfp) ****
----------------
ORBITAL ENERGIES
----------------

  NO   OCC          E(Eh)            E(eV) 
   0   2.0000    -146.074608     -3974.8922 
   1   0.0000     -33.848959      -921.0770 
   2   0.0000     -32.765913      -891.6058 
   3   0.0000     -32.765913      -891.6058 
   4   0.0000     -32.765913      -891.6058 
   5   0.0000     -14.282078      -388.6351 
   6   0.0000     -13.463524      -366.3611 
   7   0.0000     -13.463524      -366.3611 
   8   0.0000     -13.463524      -366.3611 
   9   0.0000     -10.759711      -292.7866 
  10   0.0000     -10.759711      -292.7866 
  11   0.0000     -10.759711      -292.7866 
  12   0.0000     -10.759711      -292.7866 
  13   0.0000     -10.759711      -292.7866 
  14   0.0000      -7.847222      -213.5338 
  15   0.0000      -7.212935      -196.2739 
  16   0.0000      -7.212934      -196.2739 
  17   0.0000      -7.212934      -196.2739 
  18   0.0000      -7.115238      -193.6155 
  19   0.0000      -7.115238      -193.6155 
  20   0.0000      -7.115238      -193.6155 
  21   0.0000      -7.115238      -193.6155 
  22   0.0000      -7.115238      -193.6155 
  23   0.0000      -7.115238      -193.6155 
  24   0.0000      -7.115238      -193.6155 
  25   0.0000      -5.645692      -153.6271 
  26   0.0000      -5.645692      -153.6271 
  27   0.0000      -5.645692      -153.6271 
  28   0.0000      -5.645692      -153.6271 
  29   0.0000      -5.645692      -153.6271 
  30   0.0000      -4.872689      -132.5926 
  31   0.0000      -4.272559      -116.2622 
  32   0.0000      -4.272558      -116.2622 
  33   0.0000      -4.272558      -116.2622 

                    ********************************
                    * MULLIKEN POPULATION ANALYSIS *
                    ********************************

-----------------------
MULLIKEN ATOMIC CHARGES
-----------------------
   0 Ar:   16.000000
Sum of atomic charges:   16.0000000

--------------------------------
MULLIKEN REDUCED ORBITAL CHARGES
--------------------------------
  0 Ars       :     2.000000  s :     2.000000
      pz      :     0.000000  p :     0.000000
      px      :     0.000000
      py      :     0.000000
      dz2     :     0.000000  d :     0.000000
      dxz     :     0.000000
      dyz     :     0.000000
      dx2y2   :     0.000000
      dxy     :     0.000000
      f0      :     0.000000  f :     0.000000
      f+1     :     0.000000
      f-1     :     0.000000
      f+2     :     0.000000
      f-2     :     0.000000
      f+3     :     0.000000
      f-3     :     0.000000


                     *******************************
                     * LOEWDIN POPULATION ANALYSIS *
                     *******************************

----------------------
LOEWDIN ATOMIC CHARGES
----------------------
   0 Ar:   16.000000

-------------------------------
LOEWDIN REDUCED ORBITAL CHARGES
-------------------------------
  0 Ars       :     2.000000  s :     2.000000
      pz      :     0.000000  p :     0.000000
      px      :     0.000000
      py      :     0.000000
      dz2     :     0.000000  d :     0.000000
      dxz     :     0.000000
      dyz     :     0.000000
      dx2y2   :     0.000000
      dxy     :     0.000000
      f0      :     0.000000  f :     0.000000
      f+1     :     0.000000
      f-1     :     0.000000
      f+2     :     0.000000
      f-2     :     0.000000
      f+3     :     0.000000
      f-3     :     0.000000


                      *****************************
                      * MAYER POPULATION ANALYSIS *
                      *****************************

  NA   - Mulliken gross atomic population
  ZA   - Total nuclear charge
  QA   - Mulliken gross atomic charge
  VA   - Mayer's total valence
  BVA  - Mayer's bonded valence
  FA   - Mayer's free valence

  ATOM       NA         ZA         QA         VA         BVA        FA
  0 Ar     2.0000    18.0000    16.0000    -0.0000     0.0000    -0.0000

  Mayer bond orders larger than 0.100000


--------------------------
ATOM BASIS FOR ELEMENT Ar
--------------------------
 NewGTO Ar
 S 85
    1     455476.770000000019         0.000319857276
    2      64817.743000000002         0.001011611386
    3      19256.987000000001         0.002170201520
    4       6877.007300000000         0.005962899224
    5       2643.487700000000         0.015907984538
    6       1054.237500000000         0.044046514929
    7        429.371220000000         0.114459245342
    8        177.188590000000         0.254626501771
    9         73.763945000000         0.398474266860
   10         30.897007000000         0.278947584669
   11         12.999482000000         0.038335013565
   12          5.487679300000         0.003118583444
   13          2.322571600000        -0.001384658209
   14          0.984980700000         0.001002731461
   15          0.418397300000        -0.000643174523
   16          0.177959400000         0.000282017599
   17          0.071183800000        -0.000076279350
   18     455476.770000000019         0.000000367935
   19      64817.743000000002         0.000001165268
   20      19256.987000000001         0.000002506805
   21       6877.007300000000         0.000006910525
   22       2643.487700000000         0.000018616785
   23       1054.237500000000         0.000052486363
   24        429.371220000000         0.000142861971
   25        177.188590000000         0.000352018533
   26         73.763945000000         0.000702412292
   27         30.897007000000         0.000746876407
   28         12.999482000000        -0.000550350102
   29          5.487679300000        -0.002551258927
   30          2.322571600000        -0.001535637042
   31          0.984980700000        -0.000019998722
   32          0.418397300000        -0.000047158002
   33          0.177959400000         0.000017912029
   34          0.071183800000        -0.000005190682
   35     455476.770000000019         0.000000018706
   36      64817.743000000002         0.000000059193
   37      19256.987000000001         0.000000127807
   38       6877.007300000000         0.000000350246
   39       2643.487700000000         0.000000952598
   40       1054.237500000000         0.000002663495
   41        429.371220000000         0.000007362185
   42        177.188590000000         0.000018114535
   43         73.763945000000         0.000037629133
   44         30.897007000000         0.000040863170
   45         12.999482000000        -0.000031545385
   46          5.487679300000        -0.000213584142
   47          2.322571600000        -0.000226148706
   48          0.984980700000         0.000221917987
   49          0.418397300000         0.000440713515
   50          0.177959400000         0.000165609497
   51          0.071183800000         0.000002938034
   52     455476.770000000019         0.000000018662
   53      64817.743000000002         0.000000059036
   54      19256.987000000001         0.000000127562
   55       6877.007300000000         0.000000349403
   56       2643.487700000000         0.000000951061
   57       1054.237500000000         0.000002661954
   58        429.371220000000         0.000007370850
   59        177.188590000000         0.000018236747
   60         73.763945000000         0.000038354560
   61         30.897007000000         0.000042634928
   62         12.999482000000        -0.000046644947
   63          5.487679300000        -0.000224699649
   64          2.322571600000        -0.000359975337
   65          0.984980700000         0.001024133321
   66          0.418397300000         0.000001440976
   67          0.177959400000        -0.000639670401
   68          0.071183800000        -0.000024782814
   69     455476.770000000019         0.000000018897
   70      64817.743000000002         0.000000057124
   71      19256.987000000001         0.000000141611
   72       6877.007300000000         0.000000294844
   73       2643.487700000000         0.000001150533
   74       1054.237500000000         0.000002088339
   75        429.371220000000         0.000009167997
   76        177.188590000000         0.000013891578
   77         73.763945000000         0.000052732431
   78         30.897007000000         0.000011384494
   79         12.999482000000         0.000014214201
   80          5.487679300000        -0.000505949437
   81          2.322571600000         0.000266757450
   82          0.984980700000         0.001080480533
   83          0.418397300000        -0.001714270747
   84          0.177959400000         0.000804196940
   85          0.071183800000         0.000095117703
 S 84
    1     455476.770000000019        -0.000001316306
    2      64817.743000000002        -0.000004163076
    3      19256.987000000001        -0.000008931012
    4       6877.007300000000        -0.000024539070
    5       2643.487700000000        -0.000065465997
    6       1054.237500000000        -0.000181264257
    7        429.371220000000        -0.000471033181
    8        177.188590000000        -0.001047862327
    9         73.763945000000        -0.001639837839
   10         30.897007000000        -0.001147950677
   11         12.999482000000        -0.000157759763
   12          5.487679300000        -0.000012833881
   13          2.322571600000         0.000005698272
   14          0.984980700000        -0.000004126532
   15          0.418397300000         0.000002646851
   16          0.177959400000        -0.000001160585
   17     455476.770000000019         0.000090487467
   18      64817.743000000002         0.000286578248
   19      19256.987000000001         0.000616507041
   20       6877.007300000000         0.001699529225
   21       2643.487700000000         0.004578489873
   22       1054.237500000000         0.012908151396
   23        429.371220000000         0.035134534704
   24        177.188590000000         0.086573125588
   25         73.763945000000         0.172746664926
   26         30.897007000000         0.183681877134
   27         12.999482000000        -0.135349488778
   28          5.487679300000        -0.627439861039
   29          2.322571600000        -0.377664486505
   30          0.984980700000        -0.004918354196
   31          0.418397300000        -0.011597729155
   32          0.177959400000         0.004405166779
   33          0.071183800000        -0.001276562350
   34     455476.770000000019         0.000002789577
   35      64817.743000000002         0.000008827066
   36      19256.987000000001         0.000019059052
   37       6877.007300000000         0.000052230022
   38       2643.487700000000         0.000142055163
   39       1054.237500000000         0.000397190943
   40        429.371220000000         0.001097878371
   41        177.188590000000         0.002701311786
   42         73.763945000000         0.005611406643
   43         30.897007000000         0.006093679191
   44         12.999482000000        -0.004704173788
   45          5.487679300000        -0.031850520706
   46          2.322571600000        -0.033724198581
   47          0.984980700000         0.033093296886
   48          0.418397300000         0.065720960262
   49          0.177959400000         0.024696349840
   50          0.071183800000         0.000438131430
   51     455476.770000000019         0.000002939223
   52      64817.743000000002         0.000009298069
   53      19256.987000000001         0.000020090717
   54       6877.007300000000         0.000055029935
   55       2643.487700000000         0.000149789316
   56       1054.237500000000         0.000419249951
   57        429.371220000000         0.001160887214
   58        177.188590000000         0.002872233913
   59         73.763945000000         0.006040730146
   60         30.897007000000         0.006714875478
   61         12.999482000000        -0.007346441678
   62          5.487679300000        -0.035389532727
   63          2.322571600000        -0.056695054983
   64          0.984980700000         0.161297980526
   65          0.418397300000         0.000226949517
   66          0.177959400000        -0.100746203429
   67          0.071183800000        -0.003903220209
   68     455476.770000000019         0.000003525011
   69      64817.743000000002         0.000010655758
   70      19256.987000000001         0.000026415670
   71       6877.007300000000         0.000054999395
   72       2643.487700000000         0.000214617423
   73       1054.237500000000         0.000389553294
   74        429.371220000000         0.001710173821
   75        177.188590000000         0.002591298145
   76         73.763945000000         0.009836567804
   77         30.897007000000         0.002123633377
   78         12.999482000000         0.002651479345
   79          5.487679300000        -0.094378466370
   80          2.322571600000         0.049760227344
   81          0.984980700000         0.201549973669
   82          0.418397300000        -0.319775519870
   83          0.177959400000         0.150012764900
   84          0.071183800000         0.017743004185
 S 82
    1     455476.770000000019         0.000000106374
    2      64817.743000000002         0.000000336428
    3      19256.987000000001         0.000000721737
    4       6877.007300000000         0.000001983061
    5       2643.487700000000         0.000005290464
    6       1054.237500000000         0.000014648399
    7        429.371220000000         0.000038065321
    8        177.188590000000         0.000084680268
    9         73.763945000000         0.000132519229
   10         30.897007000000         0.000092768648
   11         12.999482000000         0.000012748945
   12          5.487679300000         0.000001037137
   13          2.322571600000        -0.000000460491
   14          0.984980700000         0.000000333475
   15     455476.770000000019         0.000013411828
   16      64817.743000000002         0.000042475916
   17      19256.987000000001         0.000091377142
   18       6877.007300000000         0.000251900000
   19       2643.487700000000         0.000678612397
   20       1054.237500000000         0.001913214138
   21        429.371220000000         0.005207553466
   22        177.188590000000         0.012831653642
   23         73.763945000000         0.025604081603
   24         30.897007000000         0.027224871595
   25         12.999482000000        -0.020061165042
   26          5.487679300000        -0.092997577752
   27          2.322571600000        -0.055976492137
   28          0.984980700000        -0.000728986243
   29          0.418397300000        -0.001718986609
   30          0.177959400000         0.000652922878
   31          0.071183800000        -0.000189208901
   32     455476.770000000019        -0.000022210049
   33      64817.743000000002        -0.000070279326
   34      19256.987000000001        -0.000151744343
   35       6877.007300000000        -0.000415844954
   36       2643.487700000000        -0.001131014688
   37       1054.237500000000        -0.003162354559
   38        429.371220000000        -0.008741087199
   39        177.188590000000        -0.021507302177
   40         73.763945000000        -0.044676893256
   41         30.897007000000        -0.048516650479
   42         12.999482000000         0.037453687386
   43          5.487679300000         0.253587452202
   44          2.322571600000         0.268505299321
   45          0.984980700000        -0.263482186674
   46          0.418397300000        -0.523257092809
   47          0.177959400000        -0.196627379889
   48          0.071183800000        -0.003488314498
   49     455476.770000000019        -0.000018179661
   50      64817.743000000002        -0.000057510351
   51      19256.987000000001        -0.000124264959
   52       6877.007300000000        -0.000340370754
   53       2643.487700000000        -0.000926475785
   54       1054.237500000000        -0.002593141742
   55        429.371220000000        -0.007180311141
   56        177.188590000000        -0.017765320281
   57         73.763945000000        -0.037363080107
   58         30.897007000000        -0.041532798906
   59         12.999482000000         0.045439157571
   60          5.487679300000         0.218891080118
   61          2.322571600000         0.350669841227
   62          0.984980700000        -0.997659094570
   63          0.418397300000        -0.001403726501
   64          0.177959400000         0.623134683811
   65          0.071183800000         0.024142169214
   66     455476.770000000019        -0.000014840418
   67      64817.743000000002        -0.000044861110
   68      19256.987000000001        -0.000111210887
   69       6877.007300000000        -0.000231549359
   70       2643.487700000000        -0.000903546784
   71       1054.237500000000        -0.001640032864
   72        429.371220000000        -0.007199891027
   73        177.188590000000        -0.010909454956
   74         73.763945000000        -0.041412291206
   75         30.897007000000        -0.008940570084
   76         12.999482000000        -0.011162819891
   77          5.487679300000         0.397336612797
   78          2.322571600000        -0.209492280871
   79          0.984980700000        -0.848532371075
   80          0.418397300000         1.346266016052
   81          0.177959400000        -0.631558936845
   82          0.071183800000        -0.074698662258
 S 79
    1     455476.770000000019         0.000000001587
    2      64817.743000000002         0.000000005018
    3      19256.987000000001         0.000000010766
    4       6877.007300000000         0.000000029580
    5       2643.487700000000         0.000000078914
    6       1054.237500000000         0.000000218499
    7        429.371220000000         0.000000567792
    8        177.188590000000         0.000001263112
    9         73.763945000000         0.000001976690
   10         30.897007000000         0.000001383760
   11         12.999482000000         0.000000190166
   12     455476.770000000019         0.000002810755
   13      64817.743000000002         0.000008901799
   14      19256.987000000001         0.000019150169
   15       6877.007300000000         0.000052791404
   16       2643.487700000000         0.000142218741
   17       1054.237500000000         0.000400957760
   18        429.371220000000         0.001091361876
   19        177.188590000000         0.002689166359
   20         73.763945000000         0.005365920623
   21         30.897007000000         0.005705594218
   22         12.999482000000        -0.004204275744
   23          5.487679300000        -0.019489768393
   24          2.322571600000        -0.011731153580
   25          0.984980700000        -0.000152775732
   26          0.418397300000        -0.000360252941
   27          0.177959400000         0.000136834915
   28          0.071183800000        -0.000039653051
   29     455476.770000000019         0.000017929475
   30      64817.743000000002         0.000056734290
   31      19256.987000000001         0.000122498437
   32       6877.007300000000         0.000335698558
   33       2643.487700000000         0.000913032602
   34       1054.237500000000         0.002552869420
   35        429.371220000000         0.007056404900
   36        177.188590000000         0.017362168918
   37         73.763945000000         0.036066251409
   38         30.897007000000         0.039165966703
   39         12.999482000000        -0.030235184387
   40          5.487679300000        -0.204713178078
   41          2.322571600000        -0.216755887082
   42          0.984980700000         0.212700886155
   43          0.418397300000         0.422409001276
   44          0.177959400000         0.158731102366
   45          0.071183800000         0.002816006631
   46     455476.770000000019        -0.000018511485
   47      64817.743000000002        -0.000058560059
   48      19256.987000000001        -0.000126533104
   49       6877.007300000000        -0.000346583369
   50       2643.487700000000        -0.000943386276
   51       1054.237500000000        -0.002640473039
   52        429.371220000000        -0.007311369706
   53        177.188590000000        -0.018089581632
   54         73.763945000000        -0.038045049395
   55         30.897007000000        -0.042290875949
   56         12.999482000000         0.046268535391
   57          5.487679300000         0.222886387614
   58          2.322571600000         0.357070439390
   59          0.984980700000        -1.015868858335
   60          0.418397300000        -0.001429348006
   61          0.177959400000         0.634508444095
   62          0.071183800000         0.024582823943
   63     455476.770000000019        -0.000025953902
   64      64817.743000000002        -0.000078456070
   65      19256.987000000001        -0.000194492937
   66       6877.007300000000        -0.000404948797
   67       2643.487700000000        -0.001580182232
   68       1054.237500000000        -0.002868197682
   69        429.371220000000        -0.012591644478
   70        177.188590000000        -0.019079174633
   71         73.763945000000        -0.072424547248
   72         30.897007000000        -0.015635858863
   73         12.999482000000        -0.019522275949
   74          5.487679300000         0.694888484759
   75          2.322571600000        -0.366373923104
   76          0.984980700000        -1.483969396763
   77          0.418397300000         2.354438835601
   78          0.177959400000        -1.104511939059
   79          0.071183800000        -0.130637949180
 S 80
    1     455476.770000000019        -0.000000006230
    2      64817.743000000002        -0.000000019704
    3      19256.987000000001        -0.000000042270
    4       6877.007300000000        -0.000000116143
    5       2643.487700000000        -0.000000309849
    6       1054.237500000000        -0.000000857918
    7        429.371220000000        -0.000002229386
    8        177.188590000000        -0.000004959501
    9         73.763945000000        -0.000007761304
   10         30.897007000000        -0.000005433217
   11         12.999482000000        -0.000000746672
   12          5.487679300000        -0.000000060742
   13     455476.770000000019         0.000001358750
   14      64817.743000000002         0.000004303229
   15      19256.987000000001         0.000009257406
   16       6877.007300000000         0.000025519954
   17       2643.487700000000         0.000068750129
   18       1054.237500000000         0.000193827461
   19        429.371220000000         0.000527576525
   20        177.188590000000         0.001299973064
   21         73.763945000000         0.002593945983
   22         30.897007000000         0.002758147994
   23         12.999482000000        -0.002032393869
   24          5.487679300000        -0.009421571800
   25          2.322571600000        -0.005670970713
   26          0.984980700000        -0.000073853496
   27          0.418397300000        -0.000174150297
   28          0.177959400000         0.000066147527
   29          0.071183800000        -0.000019168728
   30     455476.770000000019        -0.000003640557
   31      64817.743000000002        -0.000011519826
   32      19256.987000000001        -0.000024873152
   33       6877.007300000000        -0.000068163166
   34       2643.487700000000        -0.000185390110
   35       1054.237500000000        -0.000518356893
   36        429.371220000000        -0.001432794050
   37        177.188590000000        -0.003525366342
   38         73.763945000000        -0.007323206530
   39         30.897007000000        -0.007952599782
   40         12.999482000000         0.006139215779
   41          5.487679300000         0.041566750739
   42          2.322571600000         0.044012007504
   43          0.984980700000        -0.043188644717
   44          0.418397300000        -0.085769611077
   45          0.177959400000        -0.032230148682
   46          0.071183800000        -0.000571786569
   47     455476.770000000019         0.000021993751
   48      64817.743000000002         0.000069576012
   49      19256.987000000001         0.000150335724
   50       6877.007300000000         0.000411780474
   51       2643.487700000000         0.001120850229
   52       1054.237500000000         0.003137182388
   53        429.371220000000         0.008686739059
   54        177.188590000000         0.021492481113
   55         73.763945000000         0.045201847240
   56         30.897007000000         0.050246372253
   57         12.999482000000        -0.054972284226
   58          5.487679300000        -0.264814387284
   59          2.322571600000        -0.424240307523
   60          0.984980700000         1.206967783721
   61          0.418397300000         0.001698228055
   62          0.177959400000        -0.753868222495
   63          0.071183800000        -0.029207191744
   64     455476.770000000019        -0.000034582560
   65      64817.743000000002        -0.000104539646
   66      19256.987000000001        -0.000259154234
   67       6877.007300000000        -0.000539578439
   68       2643.487700000000        -0.002105531041
   69       1054.237500000000        -0.003821761270
   70        429.371220000000        -0.016777873953
   71        177.188590000000        -0.025422254233
   72         73.763945000000        -0.096502877519
   73         30.897007000000        -0.020834170597
   74         12.999482000000        -0.026012669412
   75          5.487679300000         0.925911736875
   76          2.322571600000        -0.488178927881
   77          0.984980700000        -1.977331200276
   78          0.418397300000         3.137197693517
   79          0.177959400000        -1.471718974085
   80          0.071183800000        -0.174069959541
 P 48
    1       1462.496200000000         0.000947127474
    2        354.067310000000         0.006111881664
    3        126.697790000000         0.025364707733
    4         49.989095000000         0.091562910158
    5         20.509295000000         0.240197284223
    6          8.580464100000         0.409939230935
    7          3.630104900000         0.338870784985
    8          1.546528000000         0.071806155434
    9          0.661936900000         0.003460281219
   10          0.284242800000         0.000285923603
   11          0.122346300000         0.000468782752
   12          0.048938500000        -0.000084157159
   13       1462.496200000000         0.000028290837
   14        354.067310000000         0.000183315632
   15        126.697790000000         0.000767187513
   16         49.989095000000         0.002828915359
   17         20.509295000000         0.007666226610
   18          8.580464100000         0.013748406539
   19          3.630104900000         0.011364409293
   20          1.546528000000        -0.016687443893
   21          0.661936900000        -0.046062753354
   22          0.284242800000        -0.042253775329
   23          0.122346300000        -0.015114126626
   24          0.048938500000        -0.000696960299
   25       1462.496200000000         0.000033121781
   26        354.067310000000         0.000201464001
   27        126.697790000000         0.000916963628
   28         49.989095000000         0.003120253572
   29         20.509295000000         0.009469739576
   30          8.580464100000         0.014159875696
   31          3.630104900000         0.017279187870
   32          1.546528000000        -0.044317156943
   33          0.661936900000        -0.072425305295
   34          0.284242800000         0.050248941029
   35          0.122346300000         0.059527870299
   36          0.048938500000         0.006126938848
   37       1462.496200000000         0.000050122047
   38        354.067310000000         0.000293518374
   39        126.697790000000         0.001419943332
   40         49.989095000000         0.004615957757
   41         20.509295000000         0.015559468365
   42          8.580464100000         0.018359698991
   43          3.630104900000         0.025006748075
   44          1.546528000000        -0.147660427372
   45          0.661936900000         0.071852676179
   46          0.284242800000         0.110026406091
   47          0.122346300000        -0.108945993636
   48          0.048938500000        -0.011640041664
 P 48
    1       1462.496200000000        -0.000164377910
    2        354.067310000000        -0.001060742467
    3        126.697790000000        -0.004402150456
    4         49.989095000000        -0.015891123642
    5         20.509295000000        -0.041687237064
    6          8.580464100000        -0.071146657453
    7          3.630104900000        -0.058812433260
    8          1.546528000000        -0.012462256740
    9          0.661936900000        -0.000600546188
   10          0.284242800000        -0.000049623230
   11          0.122346300000        -0.000081359195
   12          0.048938500000         0.000014605825
   13       1462.496200000000         0.000190964442
   14        354.067310000000         0.001237388891
   15        126.697790000000         0.005178550765
   16         49.989095000000         0.019095307927
   17         20.509295000000         0.051747379892
   18          8.580464100000         0.092802372306
   19          3.630104900000         0.076710281969
   20          1.546528000000        -0.112641008735
   21          0.661936900000        -0.310925689759
   22          0.284242800000        -0.285214914057
   23          0.122346300000        -0.102021045294
   24          0.048938500000        -0.004704513859
   25       1462.496200000000         0.000189143136
   26        354.067310000000         0.001150467499
   27        126.697790000000         0.005236354115
   28         49.989095000000         0.017818321391
   29         20.509295000000         0.054077291913
   30          8.580464100000         0.080860484636
   31          3.630104900000         0.098673430143
   32          1.546528000000        -0.253074734910
   33          0.661936900000        -0.413587337336
   34          0.284242800000         0.286948403458
   35          0.122346300000         0.339936066188
   36          0.048938500000         0.034988106902
   37       1462.496200000000         0.000208570447
   38        354.067310000000         0.001221403792
   39        126.697790000000         0.005908741417
   40         49.989095000000         0.019208161455
   41         20.509295000000         0.064746862130
   42          8.580464100000         0.076399326210
   43          3.630104900000         0.104059369632
   44          1.546528000000        -0.614452184904
   45          0.661936900000         0.298997061402
   46          0.284242800000         0.457847554845
   47          0.122346300000        -0.453351686826
   48          0.048938500000        -0.048437141623
 P 47
    1       1462.496200000000        -0.000028385745
    2        354.067310000000        -0.000183175251
    3        126.697790000000        -0.000760189245
    4         49.989095000000        -0.002744172742
    5         20.509295000000        -0.007198797405
    6          8.580464100000        -0.012286023472
    7          3.630104900000        -0.010156077058
    8          1.546528000000        -0.002152055828
    9          0.661936900000        -0.000103705850
   10          0.284242800000        -0.000008569231
   11          0.122346300000        -0.000014049585
   12       1462.496200000000        -0.000187997511
   13        354.067310000000        -0.001218164123
   14        126.697790000000        -0.005098093898
   15         49.989095000000        -0.018798632522
   16         20.509295000000        -0.050943403598
   17          8.580464100000        -0.091360542641
   18          3.630104900000        -0.075518468038
   19          1.546528000000         0.110890954897
   20          0.661936900000         0.306094973993
   21          0.284242800000         0.280783655312
   22          0.122346300000         0.100435989160
   23          0.048938500000         0.004631421896
   24       1462.496200000000         0.000121076898
   25        354.067310000000         0.000736453029
   26        126.697790000000         0.003351966792
   27         49.989095000000         0.011406108197
   28         20.509295000000         0.034616697555
   29          8.580464100000         0.051761522106
   30          3.630104900000         0.063164189017
   31          1.546528000000        -0.162001669225
   32          0.661936900000        -0.264751197082
   33          0.284242800000         0.183685346378
   34          0.122346300000         0.217604535560
   35          0.048938500000         0.022397066713
   36       1462.496200000000         0.000318957112
   37        354.067310000000         0.001867836172
   38        126.697790000000         0.009035964209
   39         49.989095000000         0.029374150462
   40         20.509295000000         0.099014373374
   41          8.580464100000         0.116833946264
   42          3.630104900000         0.159133167829
   43          1.546528000000        -0.939653228820
   44          0.661936900000         0.457242338878
   45          0.284242800000         0.700165031204
   46          0.122346300000        -0.693289708756
   47          0.048938500000        -0.074072674227
 P 47
    1       1462.496200000000        -0.000012794470
    2        354.067310000000        -0.000082563637
    3        126.697790000000        -0.000342644481
    4         49.989095000000        -0.001236896800
    5         20.509295000000        -0.003244755455
    6          8.580464100000        -0.005537750187
    7          3.630104900000        -0.004577707161
    8          1.546528000000        -0.000970008530
    9          0.661936900000        -0.000046743935
   10          0.284242800000        -0.000003862459
   11          0.122346300000        -0.000006332650
   12       1462.496200000000         0.000057926949
   13        354.067310000000         0.000375348220
   14        126.697790000000         0.001570856038
   15         49.989095000000         0.005792350238
   16         20.509295000000         0.015696994747
   17          8.580464100000         0.028150572138
   18          3.630104900000         0.023269214705
   19          1.546528000000        -0.034168402847
   20          0.661936900000        -0.094315865443
   21          0.284242800000        -0.086516786302
   22          0.122346300000        -0.030946954521
   23          0.048938500000        -0.001427062191
   24       1462.496200000000        -0.000246767698
   25        354.067310000000        -0.001500970226
   26        126.697790000000        -0.006831667673
   27         49.989095000000        -0.023246871308
   28         20.509295000000        -0.070552540735
   29          8.580464100000        -0.105495531198
   30          3.630104900000        -0.128735388798
   31          1.546528000000         0.330176769434
   32          0.661936900000         0.539591322574
   33          0.284242800000        -0.374370428092
   34          0.122346300000        -0.443501371987
   35          0.048938500000        -0.045647623061
   36       1462.496200000000         0.000323089841
   37        354.067310000000         0.001892037737
   38        126.697790000000         0.009153043251
   39         49.989095000000         0.029754751505
   40         20.509295000000         0.100297303200
   41          8.580464100000         0.118347764403
   42          3.630104900000         0.161195057234
   43          1.546528000000        -0.951828321314
   44          0.661936900000         0.463166830592
   45          0.284242800000         0.709237073692
   46          0.122346300000        -0.702272667650
   47          0.048938500000        -0.075032434309
 D 10
    1          4.328841700000         0.023696794024
    2          1.774230200000         0.164645970091
    3          0.727190600000         0.511794977139
    4          0.298048200000         0.259267670553
    5          0.119219300000         0.024473857337
    6          4.328841700000        -0.069706105348
    7          1.774230200000         0.386954295800
    8          0.727190600000         0.171176998579
    9          0.298048200000        -0.503790128335
   10          0.119219300000        -0.036194349284
 D 10
    1          4.328841700000        -0.014700297998
    2          1.774230200000        -0.102138070748
    3          0.727190600000        -0.317491837514
    4          0.298048200000        -0.160836609988
    5          0.119219300000        -0.015182348956
    6          4.328841700000        -0.112365833369
    7          1.774230200000         0.623768057417
    8          0.727190600000         0.275936318673
    9          0.298048200000        -0.812106734847
   10          0.119219300000        -0.058345078960
 F 4
    1          1.631174000000         0.245409970118
    2          0.820328800000         0.580760500278
    3          0.412549100000         0.264213740127
    4          0.165019600000         0.038934170019
 end
  // -----------------------------------------------
  // The basis set
  // -----------------------------------------------
  BAS[ATNO] = new BFNGauss[NSH];
  // Basis function   1 L = s
  InitBFNGauss(BAS[ATNO][  0]);
  BAS[ATNO][  0].l  = 0;
  BAS[ATNO][  0].ng = 85;
  BAS[ATNO][  0].a[  0] =    455476.770000000019;     BAS[ATNO][  0].d[  0] =         0.000319857276;
  BAS[ATNO][  0].a[  1] =     64817.743000000002;     BAS[ATNO][  0].d[  1] =         0.001011611386;
  BAS[ATNO][  0].a[  2] =     19256.987000000001;     BAS[ATNO][  0].d[  2] =         0.002170201520;
  BAS[ATNO][  0].a[  3] =      6877.007300000000;     BAS[ATNO][  0].d[  3] =         0.005962899224;
  BAS[ATNO][  0].a[  4] =      2643.487700000000;     BAS[ATNO][  0].d[  4] =         0.015907984538;
  BAS[ATNO][  0].a[  5] =      1054.237500000000;     BAS[ATNO][  0].d[  5] =         0.044046514929;
  BAS[ATNO][  0].a[  6] =       429.371220000000;     BAS[ATNO][  0].d[  6] =         0.114459245342;
  BAS[ATNO][  0].a[  7] =       177.188590000000;     BAS[ATNO][  0].d[  7] =         0.254626501771;
  BAS[ATNO][  0].a[  8] =        73.763945000000;     BAS[ATNO][  0].d[  8] =         0.398474266860;
  BAS[ATNO][  0].a[  9] =        30.897007000000;     BAS[ATNO][  0].d[  9] =         0.278947584669;
  BAS[ATNO][  0].a[ 10] =        12.999482000000;     BAS[ATNO][  0].d[ 10] =         0.038335013565;
  BAS[ATNO][  0].a[ 11] =         5.487679300000;     BAS[ATNO][  0].d[ 11] =         0.003118583444;
  BAS[ATNO][  0].a[ 12] =         2.322571600000;     BAS[ATNO][  0].d[ 12] =        -0.001384658209;
  BAS[ATNO][  0].a[ 13] =         0.984980700000;     BAS[ATNO][  0].d[ 13] =         0.001002731461;
  BAS[ATNO][  0].a[ 14] =         0.418397300000;     BAS[ATNO][  0].d[ 14] =        -0.000643174523;
  BAS[ATNO][  0].a[ 15] =         0.177959400000;     BAS[ATNO][  0].d[ 15] =         0.000282017599;
  BAS[ATNO][  0].a[ 16] =         0.071183800000;     BAS[ATNO][  0].d[ 16] =        -0.000076279350;
  BAS[ATNO][  0].a[ 17] =    455476.770000000019;     BAS[ATNO][  0].d[ 17] =         0.000000367935;
  BAS[ATNO][  0].a[ 18] =     64817.743000000002;     BAS[ATNO][  0].d[ 18] =         0.000001165268;
  BAS[ATNO][  0].a[ 19] =     19256.987000000001;     BAS[ATNO][  0].d[ 19] =         0.000002506805;
  BAS[ATNO][  0].a[ 20] =      6877.007300000000;     BAS[ATNO][  0].d[ 20] =         0.000006910525;
  BAS[ATNO][  0].a[ 21] =      2643.487700000000;     BAS[ATNO][  0].d[ 21] =         0.000018616785;
  BAS[ATNO][  0].a[ 22] =      1054.237500000000;     BAS[ATNO][  0].d[ 22] =         0.000052486363;
  BAS[ATNO][  0].a[ 23] =       429.371220000000;     BAS[ATNO][  0].d[ 23] =         0.000142861971;
  BAS[ATNO][  0].a[ 24] =       177.188590000000;     BAS[ATNO][  0].d[ 24] =         0.000352018533;
  BAS[ATNO][  0].a[ 25] =        73.763945000000;     BAS[ATNO][  0].d[ 25] =         0.000702412292;
  BAS[ATNO][  0].a[ 26] =        30.897007000000;     BAS[ATNO][  0].d[ 26] =         0.000746876407;
  BAS[ATNO][  0].a[ 27] =        12.999482000000;     BAS[ATNO][  0].d[ 27] =        -0.000550350102;
  BAS[ATNO][  0].a[ 28] =         5.487679300000;     BAS[ATNO][  0].d[ 28] =        -0.002551258927;
  BAS[ATNO][  0].a[ 29] =         2.322571600000;     BAS[ATNO][  0].d[ 29] =        -0.001535637042;
  BAS[ATNO][  0].a[ 30] =         0.984980700000;     BAS[ATNO][  0].d[ 30] =        -0.000019998722;
  BAS[ATNO][  0].a[ 31] =         0.418397300000;     BAS[ATNO][  0].d[ 31] =        -0.000047158002;
  BAS[ATNO][  0].a[ 32] =         0.177959400000;     BAS[ATNO][  0].d[ 32] =         0.000017912029;
  BAS[ATNO][  0].a[ 33] =         0.071183800000;     BAS[ATNO][  0].d[ 33] =        -0.000005190682;
  BAS[ATNO][  0].a[ 34] =    455476.770000000019;     BAS[ATNO][  0].d[ 34] =         0.000000018706;
  BAS[ATNO][  0].a[ 35] =     64817.743000000002;     BAS[ATNO][  0].d[ 35] =         0.000000059193;
  BAS[ATNO][  0].a[ 36] =     19256.987000000001;     BAS[ATNO][  0].d[ 36] =         0.000000127807;
  BAS[ATNO][  0].a[ 37] =      6877.007300000000;     BAS[ATNO][  0].d[ 37] =         0.000000350246;
  BAS[ATNO][  0].a[ 38] =      2643.487700000000;     BAS[ATNO][  0].d[ 38] =         0.000000952598;
  BAS[ATNO][  0].a[ 39] =      1054.237500000000;     BAS[ATNO][  0].d[ 39] =         0.000002663495;
  BAS[ATNO][  0].a[ 40] =       429.371220000000;     BAS[ATNO][  0].d[ 40] =         0.000007362185;
  BAS[ATNO][  0].a[ 41] =       177.188590000000;     BAS[ATNO][  0].d[ 41] =         0.000018114535;
  BAS[ATNO][  0].a[ 42] =        73.763945000000;     BAS[ATNO][  0].d[ 42] =         0.000037629133;
  BAS[ATNO][  0].a[ 43] =        30.897007000000;     BAS[ATNO][  0].d[ 43] =         0.000040863170;
  BAS[ATNO][  0].a[ 44] =        12.999482000000;     BAS[ATNO][  0].d[ 44] =        -0.000031545385;
  BAS[ATNO][  0].a[ 45] =         5.487679300000;     BAS[ATNO][  0].d[ 45] =        -0.000213584142;
  BAS[ATNO][  0].a[ 46] =         2.322571600000;     BAS[ATNO][  0].d[ 46] =        -0.000226148706;
  BAS[ATNO][  0].a[ 47] =         0.984980700000;     BAS[ATNO][  0].d[ 47] =         0.000221917987;
  BAS[ATNO][  0].a[ 48] =         0.418397300000;     BAS[ATNO][  0].d[ 48] =         0.000440713515;
  BAS[ATNO][  0].a[ 49] =         0.177959400000;     BAS[ATNO][  0].d[ 49] =         0.000165609497;
  BAS[ATNO][  0].a[ 50] =         0.071183800000;     BAS[ATNO][  0].d[ 50] =         0.000002938034;
  BAS[ATNO][  0].a[ 51] =    455476.770000000019;     BAS[ATNO][  0].d[ 51] =         0.000000018662;
  BAS[ATNO][  0].a[ 52] =     64817.743000000002;     BAS[ATNO][  0].d[ 52] =         0.000000059036;
  BAS[ATNO][  0].a[ 53] =     19256.987000000001;     BAS[ATNO][  0].d[ 53] =         0.000000127562;
  BAS[ATNO][  0].a[ 54] =      6877.007300000000;     BAS[ATNO][  0].d[ 54] =         0.000000349403;
  BAS[ATNO][  0].a[ 55] =      2643.487700000000;     BAS[ATNO][  0].d[ 55] =         0.000000951061;
  BAS[ATNO][  0].a[ 56] =      1054.237500000000;     BAS[ATNO][  0].d[ 56] =         0.000002661954;
  BAS[ATNO][  0].a[ 57] =       429.371220000000;     BAS[ATNO][  0].d[ 57] =         0.000007370850;
  BAS[ATNO][  0].a[ 58] =       177.188590000000;     BAS[ATNO][  0].d[ 58] =         0.000018236747;
  BAS[ATNO][  0].a[ 59] =        73.763945000000;     BAS[ATNO][  0].d[ 59] =         0.000038354560;
  BAS[ATNO][  0].a[ 60] =        30.897007000000;     BAS[ATNO][  0].d[ 60] =         0.000042634928;
  BAS[ATNO][  0].a[ 61] =        12.999482000000;     BAS[ATNO][  0].d[ 61] =        -0.000046644947;
  BAS[ATNO][  0].a[ 62] =         5.487679300000;     BAS[ATNO][  0].d[ 62] =        -0.000224699649;
  BAS[ATNO][  0].a[ 63] =         2.322571600000;     BAS[ATNO][  0].d[ 63] =        -0.000359975337;
  BAS[ATNO][  0].a[ 64] =         0.984980700000;     BAS[ATNO][  0].d[ 64] =         0.001024133321;
  BAS[ATNO][  0].a[ 65] =         0.418397300000;     BAS[ATNO][  0].d[ 65] =         0.000001440976;
  BAS[ATNO][  0].a[ 66] =         0.177959400000;     BAS[ATNO][  0].d[ 66] =        -0.000639670401;
  BAS[ATNO][  0].a[ 67] =         0.071183800000;     BAS[ATNO][  0].d[ 67] =        -0.000024782814;
  BAS[ATNO][  0].a[ 68] =    455476.770000000019;     BAS[ATNO][  0].d[ 68] =         0.000000018897;
  BAS[ATNO][  0].a[ 69] =     64817.743000000002;     BAS[ATNO][  0].d[ 69] =         0.000000057124;
  BAS[ATNO][  0].a[ 70] =     19256.987000000001;     BAS[ATNO][  0].d[ 70] =         0.000000141611;
  BAS[ATNO][  0].a[ 71] =      6877.007300000000;     BAS[ATNO][  0].d[ 71] =         0.000000294844;
  BAS[ATNO][  0].a[ 72] =      2643.487700000000;     BAS[ATNO][  0].d[ 72] =         0.000001150533;
  BAS[ATNO][  0].a[ 73] =      1054.237500000000;     BAS[ATNO][  0].d[ 73] =         0.000002088339;
  BAS[ATNO][  0].a[ 74] =       429.371220000000;     BAS[ATNO][  0].d[ 74] =         0.000009167997;
  BAS[ATNO][  0].a[ 75] =       177.188590000000;     BAS[ATNO][  0].d[ 75] =         0.000013891578;
  BAS[ATNO][  0].a[ 76] =        73.763945000000;     BAS[ATNO][  0].d[ 76] =         0.000052732431;
  BAS[ATNO][  0].a[ 77] =        30.897007000000;     BAS[ATNO][  0].d[ 77] =         0.000011384494;
  BAS[ATNO][  0].a[ 78] =        12.999482000000;     BAS[ATNO][  0].d[ 78] =         0.000014214201;
  BAS[ATNO][  0].a[ 79] =         5.487679300000;     BAS[ATNO][  0].d[ 79] =        -0.000505949437;
  BAS[ATNO][  0].a[ 80] =         2.322571600000;     BAS[ATNO][  0].d[ 80] =         0.000266757450;
  BAS[ATNO][  0].a[ 81] =         0.984980700000;     BAS[ATNO][  0].d[ 81] =         0.001080480533;
  BAS[ATNO][  0].a[ 82] =         0.418397300000;     BAS[ATNO][  0].d[ 82] =        -0.001714270747;
  BAS[ATNO][  0].a[ 83] =         0.177959400000;     BAS[ATNO][  0].d[ 83] =         0.000804196940;
  BAS[ATNO][  0].a[ 84] =         0.071183800000;     BAS[ATNO][  0].d[ 84] =         0.000095117703;

  // Basis function   2 L = s
  InitBFNGauss(BAS[ATNO][  1]);
  BAS[ATNO][  1].l  = 0;
  BAS[ATNO][  1].ng = 84;
  BAS[ATNO][  1].a[  0] =    455476.770000000019;     BAS[ATNO][  1].d[  0] =         0.000001316306;
  BAS[ATNO][  1].a[  1] =     64817.743000000002;     BAS[ATNO][  1].d[  1] =         0.000004163076;
  BAS[ATNO][  1].a[  2] =     19256.987000000001;     BAS[ATNO][  1].d[  2] =         0.000008931012;
  BAS[ATNO][  1].a[  3] =      6877.007300000000;     BAS[ATNO][  1].d[  3] =         0.000024539070;
  BAS[ATNO][  1].a[  4] =      2643.487700000000;     BAS[ATNO][  1].d[  4] =         0.000065465997;
  BAS[ATNO][  1].a[  5] =      1054.237500000000;     BAS[ATNO][  1].d[  5] =         0.000181264257;
  BAS[ATNO][  1].a[  6] =       429.371220000000;     BAS[ATNO][  1].d[  6] =         0.000471033181;
  BAS[ATNO][  1].a[  7] =       177.188590000000;     BAS[ATNO][  1].d[  7] =         0.001047862327;
  BAS[ATNO][  1].a[  8] =        73.763945000000;     BAS[ATNO][  1].d[  8] =         0.001639837839;
  BAS[ATNO][  1].a[  9] =        30.897007000000;     BAS[ATNO][  1].d[  9] =         0.001147950677;
  BAS[ATNO][  1].a[ 10] =        12.999482000000;     BAS[ATNO][  1].d[ 10] =         0.000157759763;
  BAS[ATNO][  1].a[ 11] =         5.487679300000;     BAS[ATNO][  1].d[ 11] =         0.000012833881;
  BAS[ATNO][  1].a[ 12] =         2.322571600000;     BAS[ATNO][  1].d[ 12] =        -0.000005698272;
  BAS[ATNO][  1].a[ 13] =         0.984980700000;     BAS[ATNO][  1].d[ 13] =         0.000004126532;
  BAS[ATNO][  1].a[ 14] =         0.418397300000;     BAS[ATNO][  1].d[ 14] =        -0.000002646851;
  BAS[ATNO][  1].a[ 15] =         0.177959400000;     BAS[ATNO][  1].d[ 15] =         0.000001160585;
  BAS[ATNO][  1].a[ 16] =    455476.770000000019;     BAS[ATNO][  1].d[ 16] =        -0.000090487467;
  BAS[ATNO][  1].a[ 17] =     64817.743000000002;     BAS[ATNO][  1].d[ 17] =        -0.000286578248;
  BAS[ATNO][  1].a[ 18] =     19256.987000000001;     BAS[ATNO][  1].d[ 18] =        -0.000616507041;
  BAS[ATNO][  1].a[ 19] =      6877.007300000000;     BAS[ATNO][  1].d[ 19] =        -0.001699529225;
  BAS[ATNO][  1].a[ 20] =      2643.487700000000;     BAS[ATNO][  1].d[ 20] =        -0.004578489873;
  BAS[ATNO][  1].a[ 21] =      1054.237500000000;     BAS[ATNO][  1].d[ 21] =        -0.012908151396;
  BAS[ATNO][  1].a[ 22] =       429.371220000000;     BAS[ATNO][  1].d[ 22] =        -0.035134534704;
  BAS[ATNO][  1].a[ 23] =       177.188590000000;     BAS[ATNO][  1].d[ 23] =        -0.086573125588;
  BAS[ATNO][  1].a[ 24] =        73.763945000000;     BAS[ATNO][  1].d[ 24] =        -0.172746664926;
  BAS[ATNO][  1].a[ 25] =        30.897007000000;     BAS[ATNO][  1].d[ 25] =        -0.183681877134;
  BAS[ATNO][  1].a[ 26] =        12.999482000000;     BAS[ATNO][  1].d[ 26] =         0.135349488778;
  BAS[ATNO][  1].a[ 27] =         5.487679300000;     BAS[ATNO][  1].d[ 27] =         0.627439861039;
  BAS[ATNO][  1].a[ 28] =         2.322571600000;     BAS[ATNO][  1].d[ 28] =         0.377664486505;
  BAS[ATNO][  1].a[ 29] =         0.984980700000;     BAS[ATNO][  1].d[ 29] =         0.004918354196;
  BAS[ATNO][  1].a[ 30] =         0.418397300000;     BAS[ATNO][  1].d[ 30] =         0.011597729155;
  BAS[ATNO][  1].a[ 31] =         0.177959400000;     BAS[ATNO][  1].d[ 31] =        -0.004405166779;
  BAS[ATNO][  1].a[ 32] =         0.071183800000;     BAS[ATNO][  1].d[ 32] =         0.001276562350;
  BAS[ATNO][  1].a[ 33] =    455476.770000000019;     BAS[ATNO][  1].d[ 33] =        -0.000002789577;
  BAS[ATNO][  1].a[ 34] =     64817.743000000002;     BAS[ATNO][  1].d[ 34] =        -0.000008827066;
  BAS[ATNO][  1].a[ 35] =     19256.987000000001;     BAS[ATNO][  1].d[ 35] =        -0.000019059052;
  BAS[ATNO][  1].a[ 36] =      6877.007300000000;     BAS[ATNO][  1].d[ 36] =        -0.000052230022;
  BAS[ATNO][  1].a[ 37] =      2643.487700000000;     BAS[ATNO][  1].d[ 37] =        -0.000142055163;
  BAS[ATNO][  1].a[ 38] =      1054.237500000000;     BAS[ATNO][  1].d[ 38] =        -0.000397190943;
  BAS[ATNO][  1].a[ 39] =       429.371220000000;     BAS[ATNO][  1].d[ 39] =        -0.001097878371;
  BAS[ATNO][  1].a[ 40] =       177.188590000000;     BAS[ATNO][  1].d[ 40] =        -0.002701311786;
  BAS[ATNO][  1].a[ 41] =        73.763945000000;     BAS[ATNO][  1].d[ 41] =        -0.005611406643;
  BAS[ATNO][  1].a[ 42] =        30.897007000000;     BAS[ATNO][  1].d[ 42] =        -0.006093679191;
  BAS[ATNO][  1].a[ 43] =        12.999482000000;     BAS[ATNO][  1].d[ 43] =         0.004704173788;
  BAS[ATNO][  1].a[ 44] =         5.487679300000;     BAS[ATNO][  1].d[ 44] =         0.031850520706;
  BAS[ATNO][  1].a[ 45] =         2.322571600000;     BAS[ATNO][  1].d[ 45] =         0.033724198581;
  BAS[ATNO][  1].a[ 46] =         0.984980700000;     BAS[ATNO][  1].d[ 46] =        -0.033093296886;
  BAS[ATNO][  1].a[ 47] =         0.418397300000;     BAS[ATNO][  1].d[ 47] =        -0.065720960262;
  BAS[ATNO][  1].a[ 48] =         0.177959400000;     BAS[ATNO][  1].d[ 48] =        -0.024696349840;
  BAS[ATNO][  1].a[ 49] =         0.071183800000;     BAS[ATNO][  1].d[ 49] =        -0.000438131430;
  BAS[ATNO][  1].a[ 50] =    455476.770000000019;     BAS[ATNO][  1].d[ 50] =        -0.000002939223;
  BAS[ATNO][  1].a[ 51] =     64817.743000000002;     BAS[ATNO][  1].d[ 51] =        -0.000009298069;
  BAS[ATNO][  1].a[ 52] =     19256.987000000001;     BAS[ATNO][  1].d[ 52] =        -0.000020090717;
  BAS[ATNO][  1].a[ 53] =      6877.007300000000;     BAS[ATNO][  1].d[ 53] =        -0.000055029935;
  BAS[ATNO][  1].a[ 54] =      2643.487700000000;     BAS[ATNO][  1].d[ 54] =        -0.000149789316;
  BAS[ATNO][  1].a[ 55] =      1054.237500000000;     BAS[ATNO][  1].d[ 55] =        -0.000419249951;
  BAS[ATNO][  1].a[ 56] =       429.371220000000;     BAS[ATNO][  1].d[ 56] =        -0.001160887214;
  BAS[ATNO][  1].a[ 57] =       177.188590000000;     BAS[ATNO][  1].d[ 57] =        -0.002872233913;
  BAS[ATNO][  1].a[ 58] =        73.763945000000;     BAS[ATNO][  1].d[ 58] =        -0.006040730146;
  BAS[ATNO][  1].a[ 59] =        30.897007000000;     BAS[ATNO][  1].d[ 59] =        -0.006714875478;
  BAS[ATNO][  1].a[ 60] =        12.999482000000;     BAS[ATNO][  1].d[ 60] =         0.007346441678;
  BAS[ATNO][  1].a[ 61] =         5.487679300000;     BAS[ATNO][  1].d[ 61] =         0.035389532727;
  BAS[ATNO][  1].a[ 62] =         2.322571600000;     BAS[ATNO][  1].d[ 62] =         0.056695054983;
  BAS[ATNO][  1].a[ 63] =         0.984980700000;     BAS[ATNO][  1].d[ 63] =        -0.161297980526;
  BAS[ATNO][  1].a[ 64] =         0.418397300000;     BAS[ATNO][  1].d[ 64] =        -0.000226949517;
  BAS[ATNO][  1].a[ 65] =         0.177959400000;     BAS[ATNO][  1].d[ 65] =         0.100746203429;
  BAS[ATNO][  1].a[ 66] =         0.071183800000;     BAS[ATNO][  1].d[ 66] =         0.003903220209;
  BAS[ATNO][  1].a[ 67] =    455476.770000000019;     BAS[ATNO][  1].d[ 67] =        -0.000003525011;
  BAS[ATNO][  1].a[ 68] =     64817.743000000002;     BAS[ATNO][  1].d[ 68] =        -0.000010655758;
  BAS[ATNO][  1].a[ 69] =     19256.987000000001;     BAS[ATNO][  1].d[ 69] =        -0.000026415670;
  BAS[ATNO][  1].a[ 70] =      6877.007300000000;     BAS[ATNO][  1].d[ 70] =        -0.000054999395;
  BAS[ATNO][  1].a[ 71] =      2643.487700000000;     BAS[ATNO][  1].d[ 71] =        -0.000214617423;
  BAS[ATNO][  1].a[ 72] =      1054.237500000000;     BAS[ATNO][  1].d[ 72] =        -0.000389553294;
  BAS[ATNO][  1].a[ 73] =       429.371220000000;     BAS[ATNO][  1].d[ 73] =        -0.001710173821;
  BAS[ATNO][  1].a[ 74] =       177.188590000000;     BAS[ATNO][  1].d[ 74] =        -0.002591298145;
  BAS[ATNO][  1].a[ 75] =        73.763945000000;     BAS[ATNO][  1].d[ 75] =        -0.009836567804;
  BAS[ATNO][  1].a[ 76] =        30.897007000000;     BAS[ATNO][  1].d[ 76] =        -0.002123633377;
  BAS[ATNO][  1].a[ 77] =        12.999482000000;     BAS[ATNO][  1].d[ 77] =        -0.002651479345;
  BAS[ATNO][  1].a[ 78] =         5.487679300000;     BAS[ATNO][  1].d[ 78] =         0.094378466370;
  BAS[ATNO][  1].a[ 79] =         2.322571600000;     BAS[ATNO][  1].d[ 79] =        -0.049760227344;
  BAS[ATNO][  1].a[ 80] =         0.984980700000;     BAS[ATNO][  1].d[ 80] =        -0.201549973669;
  BAS[ATNO][  1].a[ 81] =         0.418397300000;     BAS[ATNO][  1].d[ 81] =         0.319775519870;
  BAS[ATNO][  1].a[ 82] =         0.177959400000;     BAS[ATNO][  1].d[ 82] =        -0.150012764900;
  BAS[ATNO][  1].a[ 83] =         0.071183800000;     BAS[ATNO][  1].d[ 83] =        -0.017743004185;

  // Basis function   3 L = s
  InitBFNGauss(BAS[ATNO][  2]);
  BAS[ATNO][  2].l  = 0;
  BAS[ATNO][  2].ng = 82;
  BAS[ATNO][  2].a[  0] =    455476.770000000019;     BAS[ATNO][  2].d[  0] =         0.000000106374;
  BAS[ATNO][  2].a[  1] =     64817.743000000002;     BAS[ATNO][  2].d[  1] =         0.000000336428;
  BAS[ATNO][  2].a[  2] =     19256.987000000001;     BAS[ATNO][  2].d[  2] =         0.000000721737;
  BAS[ATNO][  2].a[  3] =      6877.007300000000;     BAS[ATNO][  2].d[  3] =         0.000001983061;
  BAS[ATNO][  2].a[  4] =      2643.487700000000;     BAS[ATNO][  2].d[  4] =         0.000005290464;
  BAS[ATNO][  2].a[  5] =      1054.237500000000;     BAS[ATNO][  2].d[  5] =         0.000014648399;
  BAS[ATNO][  2].a[  6] =       429.371220000000;     BAS[ATNO][  2].d[  6] =         0.000038065321;
  BAS[ATNO][  2].a[  7] =       177.188590000000;     BAS[ATNO][  2].d[  7] =         0.000084680268;
  BAS[ATNO][  2].a[  8] =        73.763945000000;     BAS[ATNO][  2].d[  8] =         0.000132519229;
  BAS[ATNO][  2].a[  9] =        30.897007000000;     BAS[ATNO][  2].d[  9] =         0.000092768648;
  BAS[ATNO][  2].a[ 10] =        12.999482000000;     BAS[ATNO][  2].d[ 10] =         0.000012748945;
  BAS[ATNO][  2].a[ 11] =         5.487679300000;     BAS[ATNO][  2].d[ 11] =         0.000001037137;
  BAS[ATNO][  2].a[ 12] =         2.322571600000;     BAS[ATNO][  2].d[ 12] =        -0.000000460491;
  BAS[ATNO][  2].a[ 13] =         0.984980700000;     BAS[ATNO][  2].d[ 13] =         0.000000333475;
  BAS[ATNO][  2].a[ 14] =    455476.770000000019;     BAS[ATNO][  2].d[ 14] =         0.000013411828;
  BAS[ATNO][  2].a[ 15] =     64817.743000000002;     BAS[ATNO][  2].d[ 15] =         0.000042475916;
  BAS[ATNO][  2].a[ 16] =     19256.987000000001;     BAS[ATNO][  2].d[ 16] =         0.000091377142;
  BAS[ATNO][  2].a[ 17] =      6877.007300000000;     BAS[ATNO][  2].d[ 17] =         0.000251900000;
  BAS[ATNO][  2].a[ 18] =      2643.487700000000;     BAS[ATNO][  2].d[ 18] =         0.000678612397;
  BAS[ATNO][  2].a[ 19] =      1054.237500000000;     BAS[ATNO][  2].d[ 19] =         0.001913214138;
  BAS[ATNO][  2].a[ 20] =       429.371220000000;     BAS[ATNO][  2].d[ 20] =         0.005207553466;
  BAS[ATNO][  2].a[ 21] =       177.188590000000;     BAS[ATNO][  2].d[ 21] =         0.012831653642;
  BAS[ATNO][  2].a[ 22] =        73.763945000000;     BAS[ATNO][  2].d[ 22] =         0.025604081603;
  BAS[ATNO][  2].a[ 23] =        30.897007000000;     BAS[ATNO][  2].d[ 23] =         0.027224871595;
[...]
  BAS[ATNO][  6].a[ 12] =      1462.496200000000;     BAS[ATNO][  6].d[ 12] =        -0.000190964442;
  BAS[ATNO][  6].a[ 13] =       354.067310000000;     BAS[ATNO][  6].d[ 13] =        -0.001237388891;
  BAS[ATNO][  6].a[ 14] =       126.697790000000;     BAS[ATNO][  6].d[ 14] =        -0.005178550765;
  BAS[ATNO][  6].a[ 15] =        49.989095000000;     BAS[ATNO][  6].d[ 15] =        -0.019095307927;
  BAS[ATNO][  6].a[ 16] =        20.509295000000;     BAS[ATNO][  6].d[ 16] =        -0.051747379892;
  BAS[ATNO][  6].a[ 17] =         8.580464100000;     BAS[ATNO][  6].d[ 17] =        -0.092802372306;
  BAS[ATNO][  6].a[ 18] =         3.630104900000;     BAS[ATNO][  6].d[ 18] =        -0.076710281969;
  BAS[ATNO][  6].a[ 19] =         1.546528000000;     BAS[ATNO][  6].d[ 19] =         0.112641008735;
  BAS[ATNO][  6].a[ 20] =         0.661936900000;     BAS[ATNO][  6].d[ 20] =         0.310925689759;
  BAS[ATNO][  6].a[ 21] =         0.284242800000;     BAS[ATNO][  6].d[ 21] =         0.285214914057;
  BAS[ATNO][  6].a[ 22] =         0.122346300000;     BAS[ATNO][  6].d[ 22] =         0.102021045294;
  BAS[ATNO][  6].a[ 23] =         0.048938500000;     BAS[ATNO][  6].d[ 23] =         0.004704513859;
  BAS[ATNO][  6].a[ 24] =      1462.496200000000;     BAS[ATNO][  6].d[ 24] =        -0.000189143136;
  BAS[ATNO][  6].a[ 25] =       354.067310000000;     BAS[ATNO][  6].d[ 25] =        -0.001150467499;
  BAS[ATNO][  6].a[ 26] =       126.697790000000;     BAS[ATNO][  6].d[ 26] =        -0.005236354115;
  BAS[ATNO][  6].a[ 27] =        49.989095000000;     BAS[ATNO][  6].d[ 27] =        -0.017818321391;
  BAS[ATNO][  6].a[ 28] =        20.509295000000;     BAS[ATNO][  6].d[ 28] =        -0.054077291913;
  BAS[ATNO][  6].a[ 29] =         8.580464100000;     BAS[ATNO][  6].d[ 29] =        -0.080860484636;
  BAS[ATNO][  6].a[ 30] =         3.630104900000;     BAS[ATNO][  6].d[ 30] =        -0.098673430143;
  BAS[ATNO][  6].a[ 31] =         1.546528000000;     BAS[ATNO][  6].d[ 31] =         0.253074734910;
  BAS[ATNO][  6].a[ 32] =         0.661936900000;     BAS[ATNO][  6].d[ 32] =         0.413587337336;
  BAS[ATNO][  6].a[ 33] =         0.284242800000;     BAS[ATNO][  6].d[ 33] =        -0.286948403458;
  BAS[ATNO][  6].a[ 34] =         0.122346300000;     BAS[ATNO][  6].d[ 34] =        -0.339936066188;
  BAS[ATNO][  6].a[ 35] =         0.048938500000;     BAS[ATNO][  6].d[ 35] =        -0.034988106902;
  BAS[ATNO][  6].a[ 36] =      1462.496200000000;     BAS[ATNO][  6].d[ 36] =        -0.000208570447;
  BAS[ATNO][  6].a[ 37] =       354.067310000000;     BAS[ATNO][  6].d[ 37] =        -0.001221403792;
  BAS[ATNO][  6].a[ 38] =       126.697790000000;     BAS[ATNO][  6].d[ 38] =        -0.005908741417;
  BAS[ATNO][  6].a[ 39] =        49.989095000000;     BAS[ATNO][  6].d[ 39] =        -0.019208161455;
  BAS[ATNO][  6].a[ 40] =        20.509295000000;     BAS[ATNO][  6].d[ 40] =        -0.064746862130;
  BAS[ATNO][  6].a[ 41] =         8.580464100000;     BAS[ATNO][  6].d[ 41] =        -0.076399326210;
  BAS[ATNO][  6].a[ 42] =         3.630104900000;     BAS[ATNO][  6].d[ 42] =        -0.104059369632;
  BAS[ATNO][  6].a[ 43] =         1.546528000000;     BAS[ATNO][  6].d[ 43] =         0.614452184904;
  BAS[ATNO][  6].a[ 44] =         0.661936900000;     BAS[ATNO][  6].d[ 44] =        -0.298997061402;
  BAS[ATNO][  6].a[ 45] =         0.284242800000;     BAS[ATNO][  6].d[ 45] =        -0.457847554845;
  BAS[ATNO][  6].a[ 46] =         0.122346300000;     BAS[ATNO][  6].d[ 46] =         0.453351686826;
  BAS[ATNO][  6].a[ 47] =         0.048938500000;     BAS[ATNO][  6].d[ 47] =         0.048437141623;

  // Basis function   8 L = p
  InitBFNGauss(BAS[ATNO][  7]);
  BAS[ATNO][  7].l  = 1;
  BAS[ATNO][  7].ng = 47;
  BAS[ATNO][  7].a[  0] =      1462.496200000000;     BAS[ATNO][  7].d[  0] =         0.000028385745;
  BAS[ATNO][  7].a[  1] =       354.067310000000;     BAS[ATNO][  7].d[  1] =         0.000183175251;
  BAS[ATNO][  7].a[  2] =       126.697790000000;     BAS[ATNO][  7].d[  2] =         0.000760189245;
  BAS[ATNO][  7].a[  3] =        49.989095000000;     BAS[ATNO][  7].d[  3] =         0.002744172742;
  BAS[ATNO][  7].a[  4] =        20.509295000000;     BAS[ATNO][  7].d[  4] =         0.007198797405;
  BAS[ATNO][  7].a[  5] =         8.580464100000;     BAS[ATNO][  7].d[  5] =         0.012286023472;
  BAS[ATNO][  7].a[  6] =         3.630104900000;     BAS[ATNO][  7].d[  6] =         0.010156077058;
  BAS[ATNO][  7].a[  7] =         1.546528000000;     BAS[ATNO][  7].d[  7] =         0.002152055828;
  BAS[ATNO][  7].a[  8] =         0.661936900000;     BAS[ATNO][  7].d[  8] =         0.000103705850;
  BAS[ATNO][  7].a[  9] =         0.284242800000;     BAS[ATNO][  7].d[  9] =         0.000008569231;
  BAS[ATNO][  7].a[ 10] =         0.122346300000;     BAS[ATNO][  7].d[ 10] =         0.000014049585;
  BAS[ATNO][  7].a[ 11] =      1462.496200000000;     BAS[ATNO][  7].d[ 11] =         0.000187997511;
  BAS[ATNO][  7].a[ 12] =       354.067310000000;     BAS[ATNO][  7].d[ 12] =         0.001218164123;
  BAS[ATNO][  7].a[ 13] =       126.697790000000;     BAS[ATNO][  7].d[ 13] =         0.005098093898;
  BAS[ATNO][  7].a[ 14] =        49.989095000000;     BAS[ATNO][  7].d[ 14] =         0.018798632522;
  BAS[ATNO][  7].a[ 15] =        20.509295000000;     BAS[ATNO][  7].d[ 15] =         0.050943403598;
  BAS[ATNO][  7].a[ 16] =         8.580464100000;     BAS[ATNO][  7].d[ 16] =         0.091360542641;
  BAS[ATNO][  7].a[ 17] =         3.630104900000;     BAS[ATNO][  7].d[ 17] =         0.075518468038;
  BAS[ATNO][  7].a[ 18] =         1.546528000000;     BAS[ATNO][  7].d[ 18] =        -0.110890954897;
  BAS[ATNO][  7].a[ 19] =         0.661936900000;     BAS[ATNO][  7].d[ 19] =        -0.306094973993;
  BAS[ATNO][  7].a[ 20] =         0.284242800000;     BAS[ATNO][  7].d[ 20] =        -0.280783655312;
  BAS[ATNO][  7].a[ 21] =         0.122346300000;     BAS[ATNO][  7].d[ 21] =        -0.100435989160;
  BAS[ATNO][  7].a[ 22] =         0.048938500000;     BAS[ATNO][  7].d[ 22] =        -0.004631421896;
  BAS[ATNO][  7].a[ 23] =      1462.496200000000;     BAS[ATNO][  7].d[ 23] =        -0.000121076898;
  BAS[ATNO][  7].a[ 24] =       354.067310000000;     BAS[ATNO][  7].d[ 24] =        -0.000736453029;
  BAS[ATNO][  7].a[ 25] =       126.697790000000;     BAS[ATNO][  7].d[ 25] =        -0.003351966792;
  BAS[ATNO][  7].a[ 26] =        49.989095000000;     BAS[ATNO][  7].d[ 26] =        -0.011406108197;
  BAS[ATNO][  7].a[ 27] =        20.509295000000;     BAS[ATNO][  7].d[ 27] =        -0.034616697555;
  BAS[ATNO][  7].a[ 28] =         8.580464100000;     BAS[ATNO][  7].d[ 28] =        -0.051761522106;
  BAS[ATNO][  7].a[ 29] =         3.630104900000;     BAS[ATNO][  7].d[ 29] =        -0.063164189017;
  BAS[ATNO][  7].a[ 30] =         1.546528000000;     BAS[ATNO][  7].d[ 30] =         0.162001669225;
  BAS[ATNO][  7].a[ 31] =         0.661936900000;     BAS[ATNO][  7].d[ 31] =         0.264751197082;
  BAS[ATNO][  7].a[ 32] =         0.284242800000;     BAS[ATNO][  7].d[ 32] =        -0.183685346378;
  BAS[ATNO][  7].a[ 33] =         0.122346300000;     BAS[ATNO][  7].d[ 33] =        -0.217604535560;
  BAS[ATNO][  7].a[ 34] =         0.048938500000;     BAS[ATNO][  7].d[ 34] =        -0.022397066713;
  BAS[ATNO][  7].a[ 35] =      1462.496200000000;     BAS[ATNO][  7].d[ 35] =        -0.000318957112;
  BAS[ATNO][  7].a[ 36] =       354.067310000000;     BAS[ATNO][  7].d[ 36] =        -0.001867836172;
  BAS[ATNO][  7].a[ 37] =       126.697790000000;     BAS[ATNO][  7].d[ 37] =        -0.009035964209;
  BAS[ATNO][  7].a[ 38] =        49.989095000000;     BAS[ATNO][  7].d[ 38] =        -0.029374150462;
  BAS[ATNO][  7].a[ 39] =        20.509295000000;     BAS[ATNO][  7].d[ 39] =        -0.099014373374;
  BAS[ATNO][  7].a[ 40] =         8.580464100000;     BAS[ATNO][  7].d[ 40] =        -0.116833946264;
  BAS[ATNO][  7].a[ 41] =         3.630104900000;     BAS[ATNO][  7].d[ 41] =        -0.159133167829;
  BAS[ATNO][  7].a[ 42] =         1.546528000000;     BAS[ATNO][  7].d[ 42] =         0.939653228820;
  BAS[ATNO][  7].a[ 43] =         0.661936900000;     BAS[ATNO][  7].d[ 43] =        -0.457242338878;
  BAS[ATNO][  7].a[ 44] =         0.284242800000;     BAS[ATNO][  7].d[ 44] =        -0.700165031204;
  BAS[ATNO][  7].a[ 45] =         0.122346300000;     BAS[ATNO][  7].d[ 45] =         0.693289708756;
  BAS[ATNO][  7].a[ 46] =         0.048938500000;     BAS[ATNO][  7].d[ 46] =         0.074072674227;

  // Basis function   9 L = p
  InitBFNGauss(BAS[ATNO][  8]);
  BAS[ATNO][  8].l  = 1;
  BAS[ATNO][  8].ng = 47;
  BAS[ATNO][  8].a[  0] =      1462.496200000000;     BAS[ATNO][  8].d[  0] =         0.000012794470;
  BAS[ATNO][  8].a[  1] =       354.067310000000;     BAS[ATNO][  8].d[  1] =         0.000082563637;
  BAS[ATNO][  8].a[  2] =       126.697790000000;     BAS[ATNO][  8].d[  2] =         0.000342644481;
  BAS[ATNO][  8].a[  3] =        49.989095000000;     BAS[ATNO][  8].d[  3] =         0.001236896800;
  BAS[ATNO][  8].a[  4] =        20.509295000000;     BAS[ATNO][  8].d[  4] =         0.003244755455;
  BAS[ATNO][  8].a[  5] =         8.580464100000;     BAS[ATNO][  8].d[  5] =         0.005537750187;
  BAS[ATNO][  8].a[  6] =         3.630104900000;     BAS[ATNO][  8].d[  6] =         0.004577707161;
  BAS[ATNO][  8].a[  7] =         1.546528000000;     BAS[ATNO][  8].d[  7] =         0.000970008530;
  BAS[ATNO][  8].a[  8] =         0.661936900000;     BAS[ATNO][  8].d[  8] =         0.000046743935;
  BAS[ATNO][  8].a[  9] =         0.284242800000;     BAS[ATNO][  8].d[  9] =         0.000003862459;
  BAS[ATNO][  8].a[ 10] =         0.122346300000;     BAS[ATNO][  8].d[ 10] =         0.000006332650;
  BAS[ATNO][  8].a[ 11] =      1462.496200000000;     BAS[ATNO][  8].d[ 11] =        -0.000057926949;
  BAS[ATNO][  8].a[ 12] =       354.067310000000;     BAS[ATNO][  8].d[ 12] =        -0.000375348220;
  BAS[ATNO][  8].a[ 13] =       126.697790000000;     BAS[ATNO][  8].d[ 13] =        -0.001570856038;
  BAS[ATNO][  8].a[ 14] =        49.989095000000;     BAS[ATNO][  8].d[ 14] =        -0.005792350238;
  BAS[ATNO][  8].a[ 15] =        20.509295000000;     BAS[ATNO][  8].d[ 15] =        -0.015696994747;
  BAS[ATNO][  8].a[ 16] =         8.580464100000;     BAS[ATNO][  8].d[ 16] =        -0.028150572138;
  BAS[ATNO][  8].a[ 17] =         3.630104900000;     BAS[ATNO][  8].d[ 17] =        -0.023269214705;
  BAS[ATNO][  8].a[ 18] =         1.546528000000;     BAS[ATNO][  8].d[ 18] =         0.034168402847;
  BAS[ATNO][  8].a[ 19] =         0.661936900000;     BAS[ATNO][  8].d[ 19] =         0.094315865443;
  BAS[ATNO][  8].a[ 20] =         0.284242800000;     BAS[ATNO][  8].d[ 20] =         0.086516786302;
  BAS[ATNO][  8].a[ 21] =         0.122346300000;     BAS[ATNO][  8].d[ 21] =         0.030946954521;
  BAS[ATNO][  8].a[ 22] =         0.048938500000;     BAS[ATNO][  8].d[ 22] =         0.001427062191;
  BAS[ATNO][  8].a[ 23] =      1462.496200000000;     BAS[ATNO][  8].d[ 23] =         0.000246767698;
  BAS[ATNO][  8].a[ 24] =       354.067310000000;     BAS[ATNO][  8].d[ 24] =         0.001500970226;
  BAS[ATNO][  8].a[ 25] =       126.697790000000;     BAS[ATNO][  8].d[ 25] =         0.006831667673;
  BAS[ATNO][  8].a[ 26] =        49.989095000000;     BAS[ATNO][  8].d[ 26] =         0.023246871308;
  BAS[ATNO][  8].a[ 27] =        20.509295000000;     BAS[ATNO][  8].d[ 27] =         0.070552540735;
  BAS[ATNO][  8].a[ 28] =         8.580464100000;     BAS[ATNO][  8].d[ 28] =         0.105495531198;
  BAS[ATNO][  8].a[ 29] =         3.630104900000;     BAS[ATNO][  8].d[ 29] =         0.128735388798;
  BAS[ATNO][  8].a[ 30] =         1.546528000000;     BAS[ATNO][  8].d[ 30] =        -0.330176769434;
  BAS[ATNO][  8].a[ 31] =         0.661936900000;     BAS[ATNO][  8].d[ 31] =        -0.539591322574;
  BAS[ATNO][  8].a[ 32] =         0.284242800000;     BAS[ATNO][  8].d[ 32] =         0.374370428092;
  BAS[ATNO][  8].a[ 33] =         0.122346300000;     BAS[ATNO][  8].d[ 33] =         0.443501371987;
  BAS[ATNO][  8].a[ 34] =         0.048938500000;     BAS[ATNO][  8].d[ 34] =         0.045647623061;
  BAS[ATNO][  8].a[ 35] =      1462.496200000000;     BAS[ATNO][  8].d[ 35] =        -0.000323089841;
  BAS[ATNO][  8].a[ 36] =       354.067310000000;     BAS[ATNO][  8].d[ 36] =        -0.001892037737;
  BAS[ATNO][  8].a[ 37] =       126.697790000000;     BAS[ATNO][  8].d[ 37] =        -0.009153043251;
  BAS[ATNO][  8].a[ 38] =        49.989095000000;     BAS[ATNO][  8].d[ 38] =        -0.029754751505;
  BAS[ATNO][  8].a[ 39] =        20.509295000000;     BAS[ATNO][  8].d[ 39] =        -0.100297303200;
  BAS[ATNO][  8].a[ 40] =         8.580464100000;     BAS[ATNO][  8].d[ 40] =        -0.118347764403;
  BAS[ATNO][  8].a[ 41] =         3.630104900000;     BAS[ATNO][  8].d[ 41] =        -0.161195057234;
  BAS[ATNO][  8].a[ 42] =         1.546528000000;     BAS[ATNO][  8].d[ 42] =         0.951828321314;
  BAS[ATNO][  8].a[ 43] =         0.661936900000;     BAS[ATNO][  8].d[ 43] =        -0.463166830592;
  BAS[ATNO][  8].a[ 44] =         0.284242800000;     BAS[ATNO][  8].d[ 44] =        -0.709237073692;
  BAS[ATNO][  8].a[ 45] =         0.122346300000;     BAS[ATNO][  8].d[ 45] =         0.702272667650;
  BAS[ATNO][  8].a[ 46] =         0.048938500000;     BAS[ATNO][  8].d[ 46] =         0.075032434309;

  // Basis function  10 L = d
  InitBFNGauss(BAS[ATNO][  9]);
  BAS[ATNO][  9].l  = 2;
  BAS[ATNO][  9].ng = 10;
  BAS[ATNO][  9].a[  0] =         4.328841700000;     BAS[ATNO][  9].d[  0] =         0.023696794024;
  BAS[ATNO][  9].a[  1] =         1.774230200000;     BAS[ATNO][  9].d[  1] =         0.164645970091;
  BAS[ATNO][  9].a[  2] =         0.727190600000;     BAS[ATNO][  9].d[  2] =         0.511794977139;
  BAS[ATNO][  9].a[  3] =         0.298048200000;     BAS[ATNO][  9].d[  3] =         0.259267670553;
  BAS[ATNO][  9].a[  4] =         0.119219300000;     BAS[ATNO][  9].d[  4] =         0.024473857337;
  BAS[ATNO][  9].a[  5] =         4.328841700000;     BAS[ATNO][  9].d[  5] =        -0.069706105348;
  BAS[ATNO][  9].a[  6] =         1.774230200000;     BAS[ATNO][  9].d[  6] =         0.386954295800;
  BAS[ATNO][  9].a[  7] =         0.727190600000;     BAS[ATNO][  9].d[  7] =         0.171176998579;
  BAS[ATNO][  9].a[  8] =         0.298048200000;     BAS[ATNO][  9].d[  8] =        -0.503790128335;
  BAS[ATNO][  9].a[  9] =         0.119219300000;     BAS[ATNO][  9].d[  9] =        -0.036194349284;

  // Basis function  11 L = d
  InitBFNGauss(BAS[ATNO][ 10]);
  BAS[ATNO][ 10].l  = 2;
  BAS[ATNO][ 10].ng = 10;
  BAS[ATNO][ 10].a[  0] =         4.328841700000;     BAS[ATNO][ 10].d[  0] =         0.014700297998;
  BAS[ATNO][ 10].a[  1] =         1.774230200000;     BAS[ATNO][ 10].d[  1] =         0.102138070748;
  BAS[ATNO][ 10].a[  2] =         0.727190600000;     BAS[ATNO][ 10].d[  2] =         0.317491837514;
  BAS[ATNO][ 10].a[  3] =         0.298048200000;     BAS[ATNO][ 10].d[  3] =         0.160836609988;
  BAS[ATNO][ 10].a[  4] =         0.119219300000;     BAS[ATNO][ 10].d[  4] =         0.015182348956;
  BAS[ATNO][ 10].a[  5] =         4.328841700000;     BAS[ATNO][ 10].d[  5] =         0.112365833369;
  BAS[ATNO][ 10].a[  6] =         1.774230200000;     BAS[ATNO][ 10].d[  6] =        -0.623768057417;
  BAS[ATNO][ 10].a[  7] =         0.727190600000;     BAS[ATNO][ 10].d[  7] =        -0.275936318673;
  BAS[ATNO][ 10].a[  8] =         0.298048200000;     BAS[ATNO][ 10].d[  8] =         0.812106734847;
  BAS[ATNO][ 10].a[  9] =         0.119219300000;     BAS[ATNO][ 10].d[  9] =         0.058345078960;

  // Basis function  12 L = f
  InitBFNGauss(BAS[ATNO][ 11]);
  BAS[ATNO][ 11].l  = 3;
  BAS[ATNO][ 11].ng = 4;
  BAS[ATNO][ 11].a[  0] =         1.631174000000;     BAS[ATNO][ 11].d[  0] =         0.245409970118;
  BAS[ATNO][ 11].a[  1] =         0.820328800000;     BAS[ATNO][ 11].d[  1] =         0.580760500278;
  BAS[ATNO][ 11].a[  2] =         0.412549100000;     BAS[ATNO][ 11].d[  2] =         0.264213740127;
  BAS[ATNO][ 11].a[  3] =         0.165019600000;     BAS[ATNO][ 11].d[  3] =         0.038934170019;

-------
TIMINGS
-------

Total SCF time: 0 days 0 hours 0 min 7 sec 

Total time                  ....       7.290 sec
Sum of individual times     ....       7.006 sec  ( 96.1%)

Fock matrix formation       ....       6.534 sec  ( 89.6%)
  XC integration            ....       0.023 sec  (  0.4% of F)
    Basis function eval.    ....       0.010 sec  ( 42.4% of XC)
    Density eval.           ....       0.001 sec  (  4.0% of XC)
    XC-Functional eval.     ....       0.001 sec  (  5.4% of XC)
    XC-Potential eval.      ....       0.001 sec  (  3.9% of XC)
Diagonalization             ....       0.000 sec  (  0.0%)
Density matrix formation    ....       0.000 sec  (  0.0%)
Population analysis         ....       0.001 sec  (  0.0%)
Initial guess               ....       0.089 sec  (  1.2%)
Orbital Transformation      ....       0.000 sec  (  0.0%)
Orbital Orthonormalization  ....       0.000 sec  (  0.0%)
DIIS solution               ....       0.000 sec  (  0.0%)
SOSCF solution              ....       0.001 sec  (  0.0%)
Grid generation             ....       0.381 sec  (  5.2%)

-------------------------   --------------------
FINAL SINGLE POINT ENERGY      -311.061720196102
-------------------------   --------------------


                            ***************************************
                            *     ORCA property calculations      *
                            ***************************************

                                    ---------------------
                                    Active property flags
                                    ---------------------
   (+) Dipole Moment


------------------------------------------------------------------------------
                       ORCA ELECTRIC PROPERTIES CALCULATION
------------------------------------------------------------------------------

Dipole Moment Calculation                       ... on
Quadrupole Moment Calculation                   ... off
Polarizability Calculation                      ... off
GBWName                                         ... Ar_ano-rcc-tzp_4385.151648_.gbw
Electron density file                           ... Ar_ano-rcc-tzp_4385.151648_.scfp
The origin for moment calculation is the CENTER OF MASS  = ( 0.000000,  0.000000  0.000000)

-------------
DIPOLE MOMENT
-------------
                                X             Y             Z
Electronic contribution:     -0.00000       0.00000      -0.00000
Nuclear contribution   :      0.00000       0.00000       0.00000
                        -----------------------------------------
Total Dipole Moment    :     -0.00000       0.00000      -0.00000
                        -----------------------------------------
Magnitude (a.u.)       :      0.00000
Magnitude (Debye)      :      0.00000



--------------------
Rotational spectrum 
--------------------
 
Rotational constants in cm-1:     0.000000     0.000000     0.000000 
Rotational constants in MHz :     0.000000     0.000000     0.000000 

 Dipole components along the rotational axes: 
x,y,z [a.u.] :    -0.000000     0.000000    -0.000000 
x,y,z [Debye]:    -0.000000     0.000000    -0.000000 

 

Timings for individual modules:

Sum of individual times         ...        8.361 sec (=   0.139 min)
GTO integral calculation        ...        0.402 sec (=   0.007 min)   4.8 %
Relativistic integrals          ...        0.401 sec (=   0.007 min)   4.8 %
SCF iterations                  ...        7.557 sec (=   0.126 min)  90.4 %
                             ****ORCA TERMINATED NORMALLY****
TOTAL RUN TIME: 0 days 0 hours 0 minutes 8 seconds 698 msec
