
                                 *****************
                                 * O   R   C   A *
                                 *****************

           --- An Ab Initio, DFT and Semiempirical electronic structure package ---

                  #######################################################
                  #                        -***-                        #
                  #          Department of theory and spectroscopy      #
                  #               Directorship: Frank Neese             #
                  #        Max Planck Institute fuer Kohlenforschung    #
                  #                Kaiser Wilhelm Platz 1               #
                  #                 D-45470 Muelheim/Ruhr               #
                  #                      Germany                        #
                  #                                                     #
                  #                  All rights reserved                #
                  #                        -***-                        #
                  #######################################################


                         Program Version 4.2.1 -  RELEASE  -


 With contributions from (in alphabetic order):
   Daniel Aravena         : Magnetic Suceptibility
   Michael Atanasov       : Ab Initio Ligand Field Theory (pilot matlab implementation)
   Alexander A. Auer      : GIAO ZORA, VPT2
   Ute Becker             : Parallelization
   Giovanni Bistoni       : ED, misc. LED, open-shell LED, HFLD
   Martin Brehm           : Molecular dynamics
   Dmytro Bykov           : SCF Hessian
   Vijay G. Chilkuri      : MRCI spin determinant printing, contributions to CSF-ICE
   Dipayan Datta          : RHF DLPNO-CCSD density
   Achintya Kumar Dutta   : EOM-CC, STEOM-CC
   Dmitry Ganyushin       : Spin-Orbit,Spin-Spin,Magnetic field MRCI
   Miquel Garcia          : C-PCM Hessian, Gaussian charge scheme
   Yang Guo               : DLPNO-NEVPT2, CIM, IAO-localization
   Andreas Hansen         : Spin unrestricted coupled pair/coupled cluster methods
   Benjamin Helmich-Paris : CASSCF linear response (MC-RPA)
   Lee Huntington         : MR-EOM, pCC
   Robert Izsak           : Overlap fitted RIJCOSX, COSX-SCS-MP3, EOM
   Christian Kollmar      : KDIIS, OOCD, Brueckner-CCSD(T), CCSD density
   Simone Kossmann        : Meta GGA functionals, TD-DFT gradient, OOMP2, MP2 Hessian
   Martin Krupicka        : AUTO-CI
   Lucas Lang             : DCDCAS
   Dagmar Lenk            : GEPOL surface, SMD
   Dimitrios Liakos       : Extrapolation schemes; Compound Job, initial MDCI parallelization
   Dimitrios Manganas     : Further ROCIS development; embedding schemes
   Dimitrios Pantazis     : SARC Basis sets
   Taras Petrenko         : DFT Hessian,TD-DFT gradient, ASA, ECA, R-Raman, ABS, FL, XAS/XES, NRVS
   Peter Pinski           : DLPNO-MP2, DLPNO-MP2 Gradient
   Christoph Reimann      : Effective Core Potentials
   Marius Retegan         : Local ZFS, SOC
   Christoph Riplinger    : Optimizer, TS searches, QM/MM, DLPNO-CCSD(T), (RO)-DLPNO pert. Triples
   Tobias Risthaus        : Range-separated hybrids, TD-DFT gradient, RPA, STAB
   Michael Roemelt        : Original ROCIS implementation
   Masaaki Saitow         : Open-shell DLPNO-CCSD energy and density
   Barbara Sandhoefer     : DKH picture change effects
   Avijit Sen             : IP-ROCIS
   Kantharuban Sivalingam : CASSCF convergence, NEVPT2, FIC-MRCI
   Bernardo de Souza      : ESD, SOC TD-DFT
   Georgi Stoychev        : AutoAux, RI-MP2 NMR
   Willem Van den Heuvel  : Paramagnetic NMR
   Boris Wezisla          : Elementary symmetry handling
   Frank Wennmohs         : Technical directorship


 We gratefully acknowledge several colleagues who have allowed us to
 interface, adapt or use parts of their codes:
   Stefan Grimme, W. Hujo, H. Kruse,             : VdW corrections, initial TS optimization,
                  C. Bannwarth                     DFT functionals, gCP, sTDA/sTD-DF
   Ed Valeev, F. Pavosevic, A. Kumar             : LibInt (2-el integral package), F12 methods
   Garnet Chan, S. Sharma, J. Yang, R. Olivares  : DMRG
   Ulf Ekstrom                                   : XCFun DFT Library
   Mihaly Kallay                                 : mrcc  (arbitrary order and MRCC methods)
   Andreas Klamt, Michael Diedenhofen            : otool_cosmo (COSMO solvation model)
   Jiri Pittner, Ondrej Demel                    : Mk-CCSD
   Frank Weinhold                                : gennbo (NPA and NBO analysis)
   Christopher J. Cramer and Donald G. Truhlar   : smd solvation model
   Lars Goerigk                                  : TD-DFT with DH, B97 family of functionals
   V. Asgeirsson, H. Jonsson                     : NEB implementation
   FAccTs GmbH                                   : IRC, NEB, NEB-TS, Multilevel, MM, QM/MM, CI optimization
   S Lehtola, MJT Oliveira, MAL Marques          : LibXC Library


 Your calculation uses the libint2 library for the computation of 2-el integrals
 For citations please refer to: http://libint.valeyev.net

 Your ORCA version has been built with support for libXC version: 4.2.3
 For citations please refer to: https://tddft.org/programs/libxc/

 This ORCA versions uses:
   CBLAS   interface :  Fast vector & matrix operations
   LAPACKE interface :  Fast linear algebra routines
   SCALAPACK package :  Parallel linear algebra routines


----- Orbital basis set information -----
Your calculation utilizes the basis: ANO-RCC-DZP
   H, He:       P.-O. Widmark, P.-A. Malmqvist, and B. O. Roos, Theor. Chim. Acta 77, 291 (1990).
   s block:     B. O. Roos, V. Veryazov and P.-O. Widmark, Theor. Chem. Acc. 111, 345 (2004).
   p block:     B. O. Roos, R. Lindh, P.-A. Malmqvist, V. Veryazov, and P.-O. Widmark, J. Phys. Chem. A 108, 2851 (2004).
   d block:     B. O. Roos, R. Lindh, P.-A. Malmqvist, V. Veryazov, and P.-O. Widmark, J. Phys. Chem. A 109, 6575 (2005).
   actinides:   B. O. Roos, R. Lindh, P.-A. Malmqvist, V. Veryazov, and P.-O. Widmark, Chem. Phys. Letters 409, 295 (2005).
   lanthanides: B. O. Roos, R. Lindh, P.-A. Malmqvist, V. Veryazov, P.-O. Widmark and A. C. Borin, J. Phys. Chem. A 112, 11431 (2008).

================================================================================
                                        WARNINGS
                       Please study these warnings very carefully!
================================================================================


INFO   : the flag for use of LIBINT has been found!

================================================================================
                                       INPUT FILE
================================================================================
NAME = Ar_ano-rcc-dzp_2192.575824_.inp
|  1> ! LDA ano-rcc-dzp nori grid5 finalgrid6 verytightscf
|  2> %Pal NProcs 18 End
|  3> 
|  4> % REL
|  5>   Method ZORA
|  6>   ModelPot 1, 0, 0, 0
|  7>   velit 2192.575824
|  8> END
|  9> 
| 10> *xyz 16 1
| 11> Ar 0.0 0.0 0.0
| 12> **                         ****END OF INPUT****
================================================================================

                       ****************************
                       * Single Point Calculation *
                       ****************************

---------------------------------
CARTESIAN COORDINATES (ANGSTROEM)
---------------------------------
  Ar     0.000000    0.000000    0.000000

----------------------------
CARTESIAN COORDINATES (A.U.)
----------------------------
  NO LB      ZA    FRAG     MASS         X           Y           Z
   0 Ar   18.0000    0    39.948    0.000000    0.000000    0.000000

--------------------------------
INTERNAL COORDINATES (ANGSTROEM)
--------------------------------
 Ar     0   0   0     0.000000000000     0.00000000     0.00000000

---------------------------
INTERNAL COORDINATES (A.U.)
---------------------------
 Ar     0   0   0     0.000000000000     0.00000000     0.00000000

---------------------
BASIS SET INFORMATION
---------------------
There are 1 groups of distinct atoms

 Group   1 Type Ar  : 68s36p5d contracted to 4s3p1d pattern {17171717/121212/5}

Atom   0Ar   basis set group =>   1


           ************************************************************
           *        Program running with 18 parallel MPI-processes    *
           *              working on a common directory               *
           ************************************************************


------------------------------------------------------------------------------
                       ORCA GTO INTEGRAL CALCULATION
                     -- ANO INTEGRAL GENERATION BRANCH --
------------------------------------------------------------------------------


Gathering ANO information                         ... done
Calculation Information:
Number of atoms                                   ... 1
Number of basis functions                         ... 18
Highest angular momentum                          ... 2
Number of primitive shells                        ... 34
Total number of shells                            ... 8
Maximum number of shells                          ... 8

Getting memory                                    ... done
Making prescreening integrals                     ... done
Gathering atom contracted prescreening            ... done
Making one-electron integrals                     ... done

Timings:

Total time                                        ...    0.1 sec
Prescreening matrix                               ...    0.0 sec
One-electron matrix                               ...    0.0 sec
Two-index integrals + Cholesky                    ...    0.0 sec


           ************************************************************
           *        Program running with 18 parallel MPI-processes    *
           *              working on a common directory               *
           ************************************************************
------------------------------------------------------------------------------
                          ORCA RELATIVISTIC HAMILTONIAN
------------------------------------------------------------------------------

Relativistic Method            ... ZORA(MP)
Treatment of potential         ... Van Wuellen
Nucleus model                  ... Point Nucleus
Speed of light used            ... 2192.57582400000001


            *************************************************
            *         ZERO ORDER REGULAR APPROXIMATION      *
            *                     ZORA(MP)                  *
            *            Programmed by FN according to      *
            *                   C. van Wuellen              *
            *       J. Chem. Phys. (1998) vol 109, 392-399  *
            *************************************************

Terms included in model potential: +V(e,N)
Basis function cutoff value   ... 1.000000e-12
Loading the fitted atomic densities  (DKH4)  ... done
Calculating the cutoffs                      ... done
Number of fit functions                      ... 15
Setting up the integration grid ... done


           ************************************************************
           *        Program running with 18 parallel MPI-processes    *
           *              working on a common directory               *
           ************************************************************
-------------------------------------------------------------------------------
                                 ORCA SCF
-------------------------------------------------------------------------------

------------
SCF SETTINGS
------------
Hamiltonian:
 Density Functional     Method          .... DFT(GTOs)
 Exchange Functional    Exchange        .... Slater
   X-Alpha parameter    XAlpha          ....  0.666667
 Correlation Functional Correlation     .... VWN-5
 Gradients option       PostSCFGGA      .... off
   Density functional embedding theory  .... OFF

Relativistic Settings:
 Scalar relativistic method             .... ZORA
 Speed of light used       Velit        ....       2192.57582
Orbital energies will be scaled


General Settings:
 Integral files         IntName         .... Ar_ano-rcc-dzp_2192.575824_
 Hartree-Fock type      HFTyp           .... RHF
 Total Charge           Charge          ....   16
 Multiplicity           Mult            ....    1
 Number of Electrons    NEL             ....    2
 Basis Dimension        Dim             ....   18
 Nuclear Repulsion      ENuc            ....      0.0000000000 Eh

Convergence Acceleration:
 DIIS                   CNVDIIS         .... on
   Start iteration      DIISMaxIt       ....    12
   Startup error        DIISStart       ....  0.200000
   # of expansion vecs  DIISMaxEq       ....     5
   Bias factor          DIISBfac        ....   1.050
   Max. coefficient     DIISMaxC        ....  10.000
 Newton-Raphson         CNVNR           .... off
 SOSCF                  CNVSOSCF        .... on
   Start iteration      SOSCFMaxIt      ....   150
   Startup grad/error   SOSCFStart      ....  0.003300
 Level Shifting         CNVShift        .... on
   Level shift para.    LevelShift      ....    0.2500
   Turn off err/grad.   ShiftErr        ....    0.0010
 Zerner damping         CNVZerner       .... off
 Static damping         CNVDamp         .... on
   Fraction old density DampFac         ....    0.7000
   Max. Damping (<1)    DampMax         ....    0.9800
   Min. Damping (>=0)   DampMin         ....    0.0000
   Turn off err/grad.   DampErr         ....    0.1000
 Fernandez-Rico         CNVRico         .... off

SCF Procedure:
 Maximum # iterations   MaxIter         ....   125
 SCF integral mode      SCFMode         .... Direct
   Integral package                     .... LIBINT
 Reset frequency        DirectResetFreq ....    20
 Integral Threshold     Thresh          ....  1.000e-12 Eh
 Primitive CutOff       TCut            ....  1.000e-14 Eh

Convergence Tolerance:
 Convergence Check Mode ConvCheckMode   .... Total+1el-Energy
 Convergence forced     ConvForced      .... 0
 Energy Change          TolE            ....  1.000e-09 Eh
 1-El. energy change                    ....  1.000e-06 Eh
 Orbital Gradient       TolG            ....  2.000e-06
 Orbital Rotation angle TolX            ....  2.000e-06
 DIIS Error             TolErr          ....  1.000e-08


Diagonalization of the overlap matrix:
Smallest eigenvalue                        ... 1.000e+00
Time for diagonalization                   ...    0.000 sec
Threshold for overlap eigenvalues          ... 1.000e-08
Number of eigenvalues below threshold      ... 0
Time for construction of square roots      ...    0.001 sec
Total time needed                          ...    0.001 sec

-------------------
DFT GRID GENERATION
-------------------

General Integration Accuracy     IntAcc      ...  5.010
Radial Grid Type                 RadialGrid  ... Gauss-Chebyshev
Angular Grid (max. acc.)         AngularGrid ... Lebedev-434
Angular grid pruning method      GridPruning ... 3 (G Style)
Weight generation scheme         WeightScheme... Becke
Basis function cutoff            BFCut       ...    1.0000e-12
Integration weight cutoff        WCut        ...    1.0000e-14
Grids for H and He will be reduced by one unit

# of grid points (after initial pruning)     ...  11992 (   0.0 sec)
# of grid points (after weights+screening)   ...  11992 (   0.0 sec)
Grid point division into batches done        ...    0.1 sec
Reduced shell lists constructed in    0.1 sec

Total number of grid points                  ...    11992
Total number of batches                      ...      188
Average number of points per batch           ...       63
Average number of grid points per atom       ...    11992
Average number of shells per batch           ...     3.50 (43.75%)
Average number of basis functions per batch  ...     9.67 (53.70%)
Average number of large shells per batch     ...     2.25 (64.29%)
Average number of large basis fcns per batch ...     5.92 (61.21%)
Maximum spatial batch extension              ...  18.71, 18.71, 18.71 au
Average spatial batch extension              ...   0.97,  0.98,  0.97 au

Time for grid setup =    0.153 sec

------------------------------
INITIAL GUESS: MODEL POTENTIAL
------------------------------
Loading ZORA relativistic densities                ... done
Calculating cut-offs                               ... done
Setting up the integral package                    ... done
Initializing the effective Hamiltonian             ... done
Starting the Coulomb interaction                   ... done (   0.0 sec)
Reading the grid                                   ... done
Mapping shells                                     ... done
Starting the XC term evaluation                    ... done (   0.0 sec)
  promolecular density results
     # of electrons  =     18.000000116
     EX              =    -28.047870263
     EC              =     -1.433252902
     EX+EC           =    -29.481123164
Transforming the Hamiltonian                       ... done (   0.0 sec)
Diagonalizing the Hamiltonian                      ... done (   0.0 sec)
Back transforming the eigenvectors                 ... done (   0.0 sec)
Now organizing SCF variables                       ... done
                      ------------------
                      INITIAL GUESS DONE (   0.2 sec)
                      ------------------
--------------
SCF ITERATIONS
--------------
ITER       Energy         Delta-E        Max-DP      RMS-DP      [F,P]     Damp
               ***  Starting incremental Fock matrix formation  ***
  0   -311.0508628483   0.000000000000 0.00521319  0.00030227  1.9463873 0.7000
                      *** Initiating the SOSCF procedure ***
                      *** Re-Reading the Fockian *** 
                      *** Removing any level shift *** 
ITER      Energy       Delta-E        Grad      Rot      Max-DP    RMS-DP
  1   -311.05679812  -0.0059352679  0.000142  0.000142  0.012167  0.000705
               *** Restarting incremental Fock matrix formation ***
  2   -311.07054906  -0.0137509392  0.004879  0.000043  0.000083  0.000005
  3   -311.07054952  -0.0000004640  0.000032  0.000000  0.000001  0.000000
                 **** Energy Check signals convergence ****
              ***Rediagonalizing the Fockian in SOSCF/NRSCF***

               *****************************************************
               *                     SUCCESS                       *
               *           SCF CONVERGED AFTER   4 CYCLES          *
               *****************************************************

Setting up the final grid:

General Integration Accuracy     IntAcc      ...  5.340
Radial Grid Type                 RadialGrid  ... Gauss-Chebyshev
Angular Grid (max. acc.)         AngularGrid ... Lebedev-590
Angular grid pruning method      GridPruning ... 3 (G Style)
Weight generation scheme         WeightScheme... Becke
Basis function cutoff            BFCut       ...    1.0000e-12
Integration weight cutoff        WCut        ...    1.0000e-14
Grids for H and He will be reduced by one unit

# of grid points (after initial pruning)     ...  18110 (   0.0 sec)
# of grid points (after weights+screening)   ...  18110 (   0.0 sec)
Grid point division into batches done        ...    0.2 sec
Reduced shell lists constructed in    0.2 sec

Total number of grid points                  ...    18110
Total number of batches                      ...      283
Average number of points per batch           ...       63
Average number of grid points per atom       ...    18110
Average number of shells per batch           ...     1.18 (14.71%)
Average number of basis functions per batch  ...     3.53 (19.61%)
Average number of large shells per batch     ...     0.59 (50.00%)
Average number of large basis fcns per batch ...     1.76 (50.00%)
Maximum spatial batch extension              ...  19.03, 19.03, 19.03 au
Average spatial batch extension              ...   0.84,  0.84,  0.80 au

Final grid set up in    0.2 sec
Final integration                            ... done (   0.0 sec)
Change in XC energy                          ...     0.000014063
Integrated number of electrons               ...     2.000000249
Previous integrated no of electrons          ...     2.000000960

----------------
TOTAL SCF ENERGY
----------------

Total Energy       :         -311.07053546 Eh           -8464.65960 eV

Components:
Nuclear Repulsion  :            0.00000000 Eh               0.00000 eV
Electronic Energy  :         -311.07053546 Eh           -8464.65960 eV
One Electron Energy:         -323.43880126 Eh           -8801.21723 eV
Two Electron Energy:           12.36826581 Eh             336.55762 eV

Virial components:
Potential Energy   :         -630.52362496 Eh          -17157.42010 eV
Kinetic Energy     :          319.45308951 Eh            8692.76050 eV
Virial Ratio       :            1.97375967


DFT components:
N(Alpha)           :        1.000000124394 electrons
N(Beta)            :        1.000000124394 electrons
N(Total)           :        2.000000248788 electrons
E(X)               :       -9.486928009816 Eh       
E(C)               :       -0.237077668843 Eh       
E(XC)              :       -9.724005678658 Eh       
DFET-embed. en.    :        0.000000000000 Eh       

---------------
SCF CONVERGENCE
---------------

  Last Energy change         ...   -2.0236e-11  Tolerance :   1.0000e-09
  Last MAX-Density change    ...    0.0000e+00  Tolerance :   1.0000e-08
  Last RMS-Density change    ...    0.0000e+00  Tolerance :   1.0000e-09
  Last Orbital Gradient      ...    5.8513e-11  Tolerance :   2.0000e-06
  Last Orbital Rotation      ...    0.0000e+00  Tolerance :   2.0000e-06

================================================================================
                                        WARNING
Number of found core electrons (2) does not match given number of chemical core electrons (10)
================================================================================
             **** THE GBW FILE WAS UPDATED (Ar_ano-rcc-dzp_2192.575824_.gbw) ****
             **** DENSITY FILE WAS UPDATED (Ar_ano-rcc-dzp_2192.575824_.scfp) ****
             **** ENERGY FILE WAS UPDATED (Ar_ano-rcc-dzp_2192.575824_.en.tmp) ****
             **** THE GBW FILE WAS UPDATED (Ar_ano-rcc-dzp_2192.575824_.gbw) ****
             **** DENSITY FILE WAS UPDATED (Ar_ano-rcc-dzp_2192.575824_.scfp) ****
----------------
ORBITAL ENERGIES
----------------

  NO   OCC          E(Eh)            E(eV) 
   0   2.0000    -146.079847     -3975.0347 
   1   0.0000     -33.692379      -916.8162 
   2   0.0000     -32.515266      -884.7854 
   3   0.0000     -32.515266      -884.7854 
   4   0.0000     -32.515266      -884.7854 
   5   0.0000     -13.435493      -365.5983 
   6   0.0000     -12.171006      -331.1899 
   7   0.0000     -12.171006      -331.1899 
   8   0.0000     -12.171006      -331.1899 
   9   0.0000      -9.339449      -254.1393 
  10   0.0000      -9.339449      -254.1393 
  11   0.0000      -9.339449      -254.1393 
  12   0.0000      -9.339449      -254.1393 
  13   0.0000      -9.339449      -254.1393 
  14   0.0000      -6.743023      -183.4870 
  15   0.0000      -5.702260      -155.1664 
  16   0.0000      -5.702260      -155.1664 
  17   0.0000      -5.702260      -155.1664 

                    ********************************
                    * MULLIKEN POPULATION ANALYSIS *
                    ********************************

-----------------------
MULLIKEN ATOMIC CHARGES
-----------------------
   0 Ar:   16.000000
Sum of atomic charges:   16.0000000

--------------------------------
MULLIKEN REDUCED ORBITAL CHARGES
--------------------------------
  0 Ars       :     2.000000  s :     2.000000
      pz      :     0.000000  p :     0.000000
      px      :     0.000000
      py      :     0.000000
      dz2     :     0.000000  d :     0.000000
      dxz     :     0.000000
      dyz     :     0.000000
      dx2y2   :     0.000000
      dxy     :     0.000000


                     *******************************
                     * LOEWDIN POPULATION ANALYSIS *
                     *******************************

----------------------
LOEWDIN ATOMIC CHARGES
----------------------
   0 Ar:   16.000000

-------------------------------
LOEWDIN REDUCED ORBITAL CHARGES
-------------------------------
  0 Ars       :     2.000000  s :     2.000000
      pz      :     0.000000  p :     0.000000
      px      :     0.000000
      py      :     0.000000
      dz2     :     0.000000  d :     0.000000
      dxz     :     0.000000
      dyz     :     0.000000
      dx2y2   :     0.000000
      dxy     :     0.000000


                      *****************************
                      * MAYER POPULATION ANALYSIS *
                      *****************************

  NA   - Mulliken gross atomic population
  ZA   - Total nuclear charge
  QA   - Mulliken gross atomic charge
  VA   - Mayer's total valence
  BVA  - Mayer's bonded valence
  FA   - Mayer's free valence

  ATOM       NA         ZA         QA         VA         BVA        FA
  0 Ar     2.0000    18.0000    16.0000    -0.0000     0.0000    -0.0000

  Mayer bond orders larger than 0.100000


--------------------------
ATOM BASIS FOR ELEMENT Ar
--------------------------
 NewGTO Ar
 S 68
    1     455476.770000000019         0.000319857294
    2      64817.743000000002         0.001011611443
    3      19256.987000000001         0.002170201643
    4       6877.007300000000         0.005962899563
    5       2643.487700000000         0.015907985442
    6       1054.237500000000         0.044046517431
    7        429.371220000000         0.114459251843
    8        177.188590000000         0.254626516233
    9         73.763945000000         0.398474289492
   10         30.897007000000         0.278947600513
   11         12.999482000000         0.038335015742
   12          5.487679300000         0.003118583621
   13          2.322571600000        -0.001384658288
   14          0.984980700000         0.001002731518
   15          0.418397300000        -0.000643174560
   16          0.177959400000         0.000282017615
   17          0.071183800000        -0.000076279355
   18     455476.770000000019         0.000000368635
   19      64817.743000000002         0.000001167486
   20      19256.987000000001         0.000002511577
   21       6877.007300000000         0.000006923683
   22       2643.487700000000         0.000018652230
   23       1054.237500000000         0.000052586293
   24        429.371220000000         0.000143133970
   25        177.188590000000         0.000352688751
   26         73.763945000000         0.000703749634
   27         30.897007000000         0.000748298404
   28         12.999482000000        -0.000551397928
   29          5.487679300000        -0.002556116337
   30          2.322571600000        -0.001538560783
   31          0.984980700000        -0.000020036798
   32          0.418397300000        -0.000047247787
   33          0.177959400000         0.000017946132
   34          0.071183800000        -0.000005200565
   35     455476.770000000019         0.000000018680
   36      64817.743000000002         0.000000059110
   37      19256.987000000001         0.000000127628
   38       6877.007300000000         0.000000349756
   39       2643.487700000000         0.000000951267
   40       1054.237500000000         0.000002659773
   41        429.371220000000         0.000007351899
   42        177.188590000000         0.000018089227
   43         73.763945000000         0.000037576562
   44         30.897007000000         0.000040806081
   45         12.999482000000        -0.000031501313
   46          5.487679300000        -0.000213285747
   47          2.322571600000        -0.000225832756
   48          0.984980700000         0.000221607948
   49          0.418397300000         0.000440097800
   50          0.177959400000         0.000165378126
   51          0.071183800000         0.000002933930
   52     455476.770000000019         0.000000018532
   53      64817.743000000002         0.000000058625
   54      19256.987000000001         0.000000126674
   55       6877.007300000000         0.000000346970
   56       2643.487700000000         0.000000944438
   57       1054.237500000000         0.000002643417
   58        429.371220000000         0.000007319520
   59        177.188590000000         0.000018109747
   60         73.763945000000         0.000038087461
   61         30.897007000000         0.000042338020
   62         12.999482000000        -0.000046320114
   63          5.487679300000        -0.000223134854
   64          2.322571600000        -0.000357468489
   65          0.984980700000         0.001017001314
   66          0.418397300000         0.000001430941
   67          0.177959400000        -0.000635215772
   68          0.071183800000        -0.000024610228
 S 67
    1     455476.770000000019        -0.000001311289
    2      64817.743000000002        -0.000004147207
    3      19256.987000000001        -0.000008896970
    4       6877.007300000000        -0.000024445534
    5       2643.487700000000        -0.000065216459
    6       1054.237500000000        -0.000180573328
    7        429.371220000000        -0.000469237735
    8        177.188590000000        -0.001043868170
    9         73.763945000000        -0.001633587238
   10         30.897007000000        -0.001143575012
   11         12.999482000000        -0.000157158427
   12          5.487679300000        -0.000012784961
   13          2.322571600000         0.000005676552
   14          0.984980700000        -0.000004110803
   15          0.418397300000         0.000002636762
   16          0.177959400000        -0.000001156161
   17     455476.770000000019         0.000090869956
   18      64817.743000000002         0.000287789609
   19      19256.987000000001         0.000619113006
   20       6877.007300000000         0.001706713105
   21       2643.487700000000         0.004597843071
   22       1054.237500000000         0.012962713929
   23        429.371220000000         0.035283047777
   24        177.188590000000         0.086939068697
   25         73.763945000000         0.173476862101
   26         30.897007000000         0.184458297263
   27         12.999482000000        -0.135921608735
   28          5.487679300000        -0.630092038518
   29          2.322571600000        -0.379260867781
   30          0.984980700000        -0.004939143995
   31          0.418397300000        -0.011646752557
   32          0.177959400000         0.004423787343
   33          0.071183800000        -0.001281958357
   34     455476.770000000019         0.000002632085
   35      64817.743000000002         0.000008328713
   36      19256.987000000001         0.000017983028
   37       6877.007300000000         0.000049281254
   38       2643.487700000000         0.000134035104
   39       1054.237500000000         0.000374766594
   40        429.371220000000         0.001035895063
   41        177.188590000000         0.002548802871
   42         73.763945000000         0.005294601473
   43         30.897007000000         0.005749646190
   44         12.999482000000        -0.004438588584
   45          5.487679300000        -0.030052324591
   46          2.322571600000        -0.031820219572
   47          0.984980700000         0.031224936917
   48          0.418397300000         0.062010528759
   49          0.177959400000         0.023302059280
   50          0.071183800000         0.000413395689
   51     455476.770000000019         0.000002658673
   52      64817.743000000002         0.000008410565
   53      19256.987000000001         0.000018173051
   54       6877.007300000000         0.000049777307
   55       2643.487700000000         0.000135491869
   56       1054.237500000000         0.000379232383
   57        429.371220000000         0.001050080088
   58        177.188590000000         0.002598078094
   59         73.763945000000         0.005464140157
   60         30.897007000000         0.006073938060
   61         12.999482000000        -0.006645221027
   62          5.487679300000        -0.032011588374
   63          2.322571600000        -0.051283490430
   64          0.984980700000         0.145902026961
   65          0.418397300000         0.000205287099
   66          0.177959400000        -0.091129940009
   67          0.071183800000        -0.003530656356
 S 65
    1     455476.770000000019        -0.000000112405
    2      64817.743000000002        -0.000000355504
    3      19256.987000000001        -0.000000762661
    4       6877.007300000000        -0.000002095505
    5       2643.487700000000        -0.000005590445
    6       1054.237500000000        -0.000015478996
    7        429.371220000000        -0.000040223709
    8        177.188590000000        -0.000089481826
    9         73.763945000000        -0.000140033362
   10         30.897007000000        -0.000098028835
   11         12.999482000000        -0.000013471838
   12          5.487679300000        -0.000001095945
   13          2.322571600000         0.000000486602
   14          0.984980700000        -0.000000352384
   15     455476.770000000019        -0.000010808378
   16      64817.743000000002        -0.000034230663
   17      19256.987000000001        -0.000073639382
   18       6877.007300000000        -0.000203002193
   19       2643.487700000000        -0.000546882908
   20       1054.237500000000        -0.001541828762
   21        429.371220000000        -0.004196684287
   22        177.188590000000        -0.010340825029
   23         73.763945000000        -0.020633921027
   24         30.897007000000        -0.021940089833
   25         12.999482000000         0.016166972970
   26          5.487679300000         0.074945264774
   27          2.322571600000         0.045110562294
   28          0.984980700000         0.000587478387
   29          0.418397300000         0.001385303893
   30          0.177959400000        -0.000526180135
   31          0.071183800000         0.000152480436
   32     455476.770000000019         0.000024673376
   33      64817.743000000002         0.000078074036
   34      19256.987000000001         0.000168574373
   35       6877.007300000000         0.000461966497
   36       2643.487700000000         0.001256456017
   37       1054.237500000000         0.003513092671
   38        429.371220000000         0.009710564961
   39        177.188590000000         0.023892686364
   40         73.763945000000         0.049632026812
   41         30.897007000000         0.053897653170
   42         12.999482000000        -0.041607692054
   43          5.487679300000        -0.281712946213
   44          2.322571600000        -0.298285338209
   45          0.984980700000         0.292705109966
   46          0.418397300000         0.581291763304
   47          0.177959400000         0.218435407643
   48          0.071183800000         0.003875204968
   49     455476.770000000019         0.000017329900
   50      64817.743000000002         0.000054822179
   51      19256.987000000001         0.000118456515
   52       6877.007300000000         0.000324461004
   53       2643.487700000000         0.000883170072
   54       1054.237500000000         0.002471932043
   55        429.371220000000         0.006844686081
   56        177.188590000000         0.016934926366
   57         73.763945000000         0.035616639634
   58         30.897007000000         0.039591455719
   59         12.999482000000        -0.043315221759
   60          5.487679300000        -0.208659583128
   61          2.322571600000        -0.334278687128
   62          0.984980700000         0.951026102408
   63          0.418397300000         0.001338112939
   64          0.177959400000        -0.594007865859
   65          0.071183800000        -0.023013706000
 S 63
    1     455476.770000000019        -0.000000016840
    2      64817.743000000002        -0.000000053260
    3      19256.987000000001        -0.000000114259
    4       6877.007300000000        -0.000000313942
    5       2643.487700000000        -0.000000837542
    6       1054.237500000000        -0.000002319011
    7        429.371220000000        -0.000006026182
    8        177.188590000000        -0.000013405868
    9         73.763945000000        -0.000020979330
   10         30.897007000000        -0.000014686352
   11         12.999482000000        -0.000002018306
   12          5.487679300000        -0.000000164191
   13     455476.770000000019        -0.000001853349
   14      64817.743000000002        -0.000005869648
   15      19256.987000000001        -0.000012627194
   16       6877.007300000000        -0.000034809474
   17       2643.487700000000        -0.000093775867
   18       1054.237500000000        -0.000264382606
   19        429.371220000000        -0.000719619685
   20        177.188590000000        -0.001773176331
   21         73.763945000000        -0.003538168403
   22         30.897007000000        -0.003762141597
   23         12.999482000000         0.002772205673
   24          5.487679300000         0.012851118672
   25          2.322571600000         0.007735261076
   26          0.984980700000         0.000100736911
   27          0.418397300000         0.000237542756
   28          0.177959400000        -0.000090225892
   29          0.071183800000         0.000026146337
   30     455476.770000000019        -0.000014835242
   31      64817.743000000002        -0.000046943202
   32      19256.987000000001        -0.000101357907
   33       6877.007300000000        -0.000277764385
   34       2643.487700000000        -0.000755463296
   35       1054.237500000000        -0.002112300417
   36        429.371220000000        -0.005838624919
   37        177.188590000000        -0.014365841180
   38         73.763945000000        -0.029842011223
   39         30.897007000000        -0.032406783967
   40         12.999482000000         0.025017257867
   41          5.487679300000         0.169384194892
   42          2.322571600000         0.179348597712
   43          0.984980700000        -0.175993400584
   44          0.418397300000        -0.349510516461
   45          0.177959400000        -0.131337612122
   46          0.071183800000        -0.002330025944
   47     455476.770000000019         0.000029294117
   48      64817.743000000002         0.000092670317
   49      19256.987000000001         0.000200236530
   50       6877.007300000000         0.000548462408
   51       2643.487700000000         0.001492893067
   52       1054.237500000000         0.004178504600
   53        429.371220000000         0.011570120772
   54        177.188590000000         0.028626461607
   55         73.763945000000         0.060205656937
   56         30.897007000000         0.066924606734
   57         12.999482000000        -0.073219186542
   58          5.487679300000        -0.352713995693
   59          2.322571600000        -0.565058022471
   60          0.984980700000         1.607595546585
   61          0.418397300000         0.002261919410
   62          0.177959400000        -1.004099043521
   63          0.071183800000        -0.038901909404
 P 36
    1       1462.496200000000         0.000953780373
    2        354.067310000000         0.006154813303
    3        126.697790000000         0.025542876834
    4         49.989095000000         0.092206074731
    5         20.509295000000         0.241884499968
    6          8.580464100000         0.412818763595
    7          3.630104900000         0.341251112163
    8          1.546528000000         0.072310542802
    9          0.661936900000         0.003484587243
   10          0.284242800000         0.000287932014
   11          0.122346300000         0.000472075618
   12          0.048938500000        -0.000084748303
   13       1462.496200000000         0.000026232852
   14        354.067310000000         0.000169980541
   15        126.697790000000         0.000711379312
   16         49.989095000000         0.002623129064
   17         20.509295000000         0.007108555500
   18          8.580464100000         0.012748294028
   19          3.630104900000         0.010537718005
   20          1.546528000000        -0.015473534386
   21          0.661936900000        -0.042711969700
   22          0.284242800000        -0.039180071536
   23          0.122346300000        -0.014014666330
   24          0.048938500000        -0.000646260698
   25       1462.496200000000         0.000029091075
   26        354.067310000000         0.000176947139
   27        126.697790000000         0.000805375103
   28         49.989095000000         0.002740538952
   29         20.509295000000         0.008317333696
   30          8.580464100000         0.012436710674
   31          3.630104900000         0.015176422791
   32          1.546528000000        -0.038924046413
   33          0.661936900000        -0.063611615438
   34          0.284242800000         0.044133970853
   35          0.122346300000         0.052283714620
   36          0.048938500000         0.005381330133
 P 36
    1       1462.496200000000        -0.000122468524
    2        354.067310000000        -0.000790298189
    3        126.697790000000        -0.003279789055
    4         49.989095000000        -0.011839562030
    5         20.509295000000        -0.031058762125
    6          8.580464100000        -0.053007281495
    7          3.630104900000        -0.043817760621
    8          1.546528000000        -0.009284910560
    9          0.661936900000        -0.000447432416
   10          0.284242800000        -0.000036971414
   11          0.122346300000        -0.000060616056
   12          0.048938500000         0.000010881960
   13       1462.496200000000         0.000227535007
   14        354.067310000000         0.001474354531
   15        126.697790000000         0.006170266957
   16         49.989095000000         0.022752146862
   17         20.509295000000         0.061657240173
   18          8.580464100000         0.110574451688
   19          3.630104900000         0.091400652341
   20          1.546528000000        -0.134212277865
   21          0.661936900000        -0.370469383557
   22          0.284242800000        -0.339834876540
   23          0.122346300000        -0.121558542780
   24          0.048938500000        -0.005605449813
   25       1462.496200000000         0.000184345414
   26        354.067310000000         0.001121285239
   27        126.697790000000         0.005103531027
   28         49.989095000000         0.017366349579
   29         20.509295000000         0.052705590780
   30          8.580464100000         0.078809412652
   31          3.630104900000         0.096170522708
   32          1.546528000000        -0.246655350941
   33          0.661936900000        -0.403096460306
   34          0.284242800000         0.279669794703
   35          0.122346300000         0.331313395361
   36          0.048938500000         0.034100613756
 P 35
    1       1462.496200000000        -0.000018559579
    2        354.067310000000        -0.000119766300
    3        126.697790000000        -0.000497037960
    4         49.989095000000        -0.001794234832
    5         20.509295000000        -0.004706822152
    6          8.580464100000        -0.008033026099
    7          3.630104900000        -0.006640393635
    8          1.546528000000        -0.001407088361
    9          0.661936900000        -0.000067806463
   10          0.284242800000        -0.000005602859
   11          0.122346300000        -0.000009186103
   12       1462.496200000000        -0.000153316807
   13        354.067310000000        -0.000993444179
   14        126.697790000000        -0.004157626720
   15         49.989095000000        -0.015330768408
   16         20.509295000000        -0.041545656131
   17          8.580464100000        -0.074506872734
   18          3.630104900000        -0.061587253365
   19          1.546528000000         0.090434426340
   20          0.661936900000         0.249628325451
   21          0.284242800000         0.228986293944
   22          0.122346300000         0.081908132832
   23          0.048938500000         0.003777043697
   24       1462.496200000000         0.000278561606
   25        354.067310000000         0.001694357405
   26        126.697790000000         0.007711869635
   27         49.989095000000         0.026242031894
   28         20.509295000000         0.079642632320
   29          8.580464100000         0.119087728309
   30          3.630104900000         0.145321842839
   31          1.546528000000        -0.372717222861
   32          0.661936900000        -0.609113050488
   33          0.284242800000         0.422604856542
   34          0.122346300000         0.500642731425
   35          0.048938500000         0.051528928963
 D 5
    1          4.328841700000         0.027886140074
    2          1.774230200000         0.193753660516
    3          0.727190600000         0.602274991605
    4          0.298048200000         0.305103490813
    5          0.119219300000         0.028800580077
 end
  // -----------------------------------------------
  // The basis set
  // -----------------------------------------------
  BAS[ATNO] = new BFNGauss[NSH];
  // Basis function   1 L = s
  InitBFNGauss(BAS[ATNO][  0]);
  BAS[ATNO][  0].l  = 0;
  BAS[ATNO][  0].ng = 68;
  BAS[ATNO][  0].a[  0] =    455476.770000000019;     BAS[ATNO][  0].d[  0] =         0.000319857294;
  BAS[ATNO][  0].a[  1] =     64817.743000000002;     BAS[ATNO][  0].d[  1] =         0.001011611443;
  BAS[ATNO][  0].a[  2] =     19256.987000000001;     BAS[ATNO][  0].d[  2] =         0.002170201643;
  BAS[ATNO][  0].a[  3] =      6877.007300000000;     BAS[ATNO][  0].d[  3] =         0.005962899563;
  BAS[ATNO][  0].a[  4] =      2643.487700000000;     BAS[ATNO][  0].d[  4] =         0.015907985442;
  BAS[ATNO][  0].a[  5] =      1054.237500000000;     BAS[ATNO][  0].d[  5] =         0.044046517431;
  BAS[ATNO][  0].a[  6] =       429.371220000000;     BAS[ATNO][  0].d[  6] =         0.114459251843;
  BAS[ATNO][  0].a[  7] =       177.188590000000;     BAS[ATNO][  0].d[  7] =         0.254626516233;
  BAS[ATNO][  0].a[  8] =        73.763945000000;     BAS[ATNO][  0].d[  8] =         0.398474289492;
  BAS[ATNO][  0].a[  9] =        30.897007000000;     BAS[ATNO][  0].d[  9] =         0.278947600513;
  BAS[ATNO][  0].a[ 10] =        12.999482000000;     BAS[ATNO][  0].d[ 10] =         0.038335015742;
  BAS[ATNO][  0].a[ 11] =         5.487679300000;     BAS[ATNO][  0].d[ 11] =         0.003118583621;
  BAS[ATNO][  0].a[ 12] =         2.322571600000;     BAS[ATNO][  0].d[ 12] =        -0.001384658288;
  BAS[ATNO][  0].a[ 13] =         0.984980700000;     BAS[ATNO][  0].d[ 13] =         0.001002731518;
  BAS[ATNO][  0].a[ 14] =         0.418397300000;     BAS[ATNO][  0].d[ 14] =        -0.000643174560;
  BAS[ATNO][  0].a[ 15] =         0.177959400000;     BAS[ATNO][  0].d[ 15] =         0.000282017615;
  BAS[ATNO][  0].a[ 16] =         0.071183800000;     BAS[ATNO][  0].d[ 16] =        -0.000076279355;
  BAS[ATNO][  0].a[ 17] =    455476.770000000019;     BAS[ATNO][  0].d[ 17] =         0.000000368635;
  BAS[ATNO][  0].a[ 18] =     64817.743000000002;     BAS[ATNO][  0].d[ 18] =         0.000001167486;
  BAS[ATNO][  0].a[ 19] =     19256.987000000001;     BAS[ATNO][  0].d[ 19] =         0.000002511577;
  BAS[ATNO][  0].a[ 20] =      6877.007300000000;     BAS[ATNO][  0].d[ 20] =         0.000006923683;
  BAS[ATNO][  0].a[ 21] =      2643.487700000000;     BAS[ATNO][  0].d[ 21] =         0.000018652230;
  BAS[ATNO][  0].a[ 22] =      1054.237500000000;     BAS[ATNO][  0].d[ 22] =         0.000052586293;
  BAS[ATNO][  0].a[ 23] =       429.371220000000;     BAS[ATNO][  0].d[ 23] =         0.000143133970;
  BAS[ATNO][  0].a[ 24] =       177.188590000000;     BAS[ATNO][  0].d[ 24] =         0.000352688751;
  BAS[ATNO][  0].a[ 25] =        73.763945000000;     BAS[ATNO][  0].d[ 25] =         0.000703749634;
  BAS[ATNO][  0].a[ 26] =        30.897007000000;     BAS[ATNO][  0].d[ 26] =         0.000748298404;
  BAS[ATNO][  0].a[ 27] =        12.999482000000;     BAS[ATNO][  0].d[ 27] =        -0.000551397928;
  BAS[ATNO][  0].a[ 28] =         5.487679300000;     BAS[ATNO][  0].d[ 28] =        -0.002556116337;
  BAS[ATNO][  0].a[ 29] =         2.322571600000;     BAS[ATNO][  0].d[ 29] =        -0.001538560783;
  BAS[ATNO][  0].a[ 30] =         0.984980700000;     BAS[ATNO][  0].d[ 30] =        -0.000020036798;
  BAS[ATNO][  0].a[ 31] =         0.418397300000;     BAS[ATNO][  0].d[ 31] =        -0.000047247787;
  BAS[ATNO][  0].a[ 32] =         0.177959400000;     BAS[ATNO][  0].d[ 32] =         0.000017946132;
  BAS[ATNO][  0].a[ 33] =         0.071183800000;     BAS[ATNO][  0].d[ 33] =        -0.000005200565;
  BAS[ATNO][  0].a[ 34] =    455476.770000000019;     BAS[ATNO][  0].d[ 34] =         0.000000018680;
  BAS[ATNO][  0].a[ 35] =     64817.743000000002;     BAS[ATNO][  0].d[ 35] =         0.000000059110;
  BAS[ATNO][  0].a[ 36] =     19256.987000000001;     BAS[ATNO][  0].d[ 36] =         0.000000127628;
  BAS[ATNO][  0].a[ 37] =      6877.007300000000;     BAS[ATNO][  0].d[ 37] =         0.000000349756;
  BAS[ATNO][  0].a[ 38] =      2643.487700000000;     BAS[ATNO][  0].d[ 38] =         0.000000951267;
  BAS[ATNO][  0].a[ 39] =      1054.237500000000;     BAS[ATNO][  0].d[ 39] =         0.000002659773;
  BAS[ATNO][  0].a[ 40] =       429.371220000000;     BAS[ATNO][  0].d[ 40] =         0.000007351899;
  BAS[ATNO][  0].a[ 41] =       177.188590000000;     BAS[ATNO][  0].d[ 41] =         0.000018089227;
  BAS[ATNO][  0].a[ 42] =        73.763945000000;     BAS[ATNO][  0].d[ 42] =         0.000037576562;
  BAS[ATNO][  0].a[ 43] =        30.897007000000;     BAS[ATNO][  0].d[ 43] =         0.000040806081;
  BAS[ATNO][  0].a[ 44] =        12.999482000000;     BAS[ATNO][  0].d[ 44] =        -0.000031501313;
  BAS[ATNO][  0].a[ 45] =         5.487679300000;     BAS[ATNO][  0].d[ 45] =        -0.000213285747;
  BAS[ATNO][  0].a[ 46] =         2.322571600000;     BAS[ATNO][  0].d[ 46] =        -0.000225832756;
  BAS[ATNO][  0].a[ 47] =         0.984980700000;     BAS[ATNO][  0].d[ 47] =         0.000221607948;
  BAS[ATNO][  0].a[ 48] =         0.418397300000;     BAS[ATNO][  0].d[ 48] =         0.000440097800;
  BAS[ATNO][  0].a[ 49] =         0.177959400000;     BAS[ATNO][  0].d[ 49] =         0.000165378126;
  BAS[ATNO][  0].a[ 50] =         0.071183800000;     BAS[ATNO][  0].d[ 50] =         0.000002933930;
  BAS[ATNO][  0].a[ 51] =    455476.770000000019;     BAS[ATNO][  0].d[ 51] =         0.000000018532;
  BAS[ATNO][  0].a[ 52] =     64817.743000000002;     BAS[ATNO][  0].d[ 52] =         0.000000058625;
  BAS[ATNO][  0].a[ 53] =     19256.987000000001;     BAS[ATNO][  0].d[ 53] =         0.000000126674;
  BAS[ATNO][  0].a[ 54] =      6877.007300000000;     BAS[ATNO][  0].d[ 54] =         0.000000346970;
  BAS[ATNO][  0].a[ 55] =      2643.487700000000;     BAS[ATNO][  0].d[ 55] =         0.000000944438;
  BAS[ATNO][  0].a[ 56] =      1054.237500000000;     BAS[ATNO][  0].d[ 56] =         0.000002643417;
  BAS[ATNO][  0].a[ 57] =       429.371220000000;     BAS[ATNO][  0].d[ 57] =         0.000007319520;
  BAS[ATNO][  0].a[ 58] =       177.188590000000;     BAS[ATNO][  0].d[ 58] =         0.000018109747;
  BAS[ATNO][  0].a[ 59] =        73.763945000000;     BAS[ATNO][  0].d[ 59] =         0.000038087461;
  BAS[ATNO][  0].a[ 60] =        30.897007000000;     BAS[ATNO][  0].d[ 60] =         0.000042338020;
  BAS[ATNO][  0].a[ 61] =        12.999482000000;     BAS[ATNO][  0].d[ 61] =        -0.000046320114;
  BAS[ATNO][  0].a[ 62] =         5.487679300000;     BAS[ATNO][  0].d[ 62] =        -0.000223134854;
  BAS[ATNO][  0].a[ 63] =         2.322571600000;     BAS[ATNO][  0].d[ 63] =        -0.000357468489;
  BAS[ATNO][  0].a[ 64] =         0.984980700000;     BAS[ATNO][  0].d[ 64] =         0.001017001314;
  BAS[ATNO][  0].a[ 65] =         0.418397300000;     BAS[ATNO][  0].d[ 65] =         0.000001430941;
  BAS[ATNO][  0].a[ 66] =         0.177959400000;     BAS[ATNO][  0].d[ 66] =        -0.000635215772;
  BAS[ATNO][  0].a[ 67] =         0.071183800000;     BAS[ATNO][  0].d[ 67] =        -0.000024610228;

  // Basis function   2 L = s
  InitBFNGauss(BAS[ATNO][  1]);
  BAS[ATNO][  1].l  = 0;
  BAS[ATNO][  1].ng = 67;
  BAS[ATNO][  1].a[  0] =    455476.770000000019;     BAS[ATNO][  1].d[  0] =         0.000001311289;
  BAS[ATNO][  1].a[  1] =     64817.743000000002;     BAS[ATNO][  1].d[  1] =         0.000004147207;
  BAS[ATNO][  1].a[  2] =     19256.987000000001;     BAS[ATNO][  1].d[  2] =         0.000008896970;
  BAS[ATNO][  1].a[  3] =      6877.007300000000;     BAS[ATNO][  1].d[  3] =         0.000024445534;
  BAS[ATNO][  1].a[  4] =      2643.487700000000;     BAS[ATNO][  1].d[  4] =         0.000065216459;
  BAS[ATNO][  1].a[  5] =      1054.237500000000;     BAS[ATNO][  1].d[  5] =         0.000180573328;
  BAS[ATNO][  1].a[  6] =       429.371220000000;     BAS[ATNO][  1].d[  6] =         0.000469237735;
  BAS[ATNO][  1].a[  7] =       177.188590000000;     BAS[ATNO][  1].d[  7] =         0.001043868170;
  BAS[ATNO][  1].a[  8] =        73.763945000000;     BAS[ATNO][  1].d[  8] =         0.001633587238;
  BAS[ATNO][  1].a[  9] =        30.897007000000;     BAS[ATNO][  1].d[  9] =         0.001143575012;
  BAS[ATNO][  1].a[ 10] =        12.999482000000;     BAS[ATNO][  1].d[ 10] =         0.000157158427;
  BAS[ATNO][  1].a[ 11] =         5.487679300000;     BAS[ATNO][  1].d[ 11] =         0.000012784961;
  BAS[ATNO][  1].a[ 12] =         2.322571600000;     BAS[ATNO][  1].d[ 12] =        -0.000005676552;
  BAS[ATNO][  1].a[ 13] =         0.984980700000;     BAS[ATNO][  1].d[ 13] =         0.000004110803;
  BAS[ATNO][  1].a[ 14] =         0.418397300000;     BAS[ATNO][  1].d[ 14] =        -0.000002636762;
  BAS[ATNO][  1].a[ 15] =         0.177959400000;     BAS[ATNO][  1].d[ 15] =         0.000001156161;
  BAS[ATNO][  1].a[ 16] =    455476.770000000019;     BAS[ATNO][  1].d[ 16] =        -0.000090869956;
  BAS[ATNO][  1].a[ 17] =     64817.743000000002;     BAS[ATNO][  1].d[ 17] =        -0.000287789609;
  BAS[ATNO][  1].a[ 18] =     19256.987000000001;     BAS[ATNO][  1].d[ 18] =        -0.000619113006;
  BAS[ATNO][  1].a[ 19] =      6877.007300000000;     BAS[ATNO][  1].d[ 19] =        -0.001706713105;
  BAS[ATNO][  1].a[ 20] =      2643.487700000000;     BAS[ATNO][  1].d[ 20] =        -0.004597843071;
  BAS[ATNO][  1].a[ 21] =      1054.237500000000;     BAS[ATNO][  1].d[ 21] =        -0.012962713929;
  BAS[ATNO][  1].a[ 22] =       429.371220000000;     BAS[ATNO][  1].d[ 22] =        -0.035283047777;
  BAS[ATNO][  1].a[ 23] =       177.188590000000;     BAS[ATNO][  1].d[ 23] =        -0.086939068697;
  BAS[ATNO][  1].a[ 24] =        73.763945000000;     BAS[ATNO][  1].d[ 24] =        -0.173476862101;
  BAS[ATNO][  1].a[ 25] =        30.897007000000;     BAS[ATNO][  1].d[ 25] =        -0.184458297263;
  BAS[ATNO][  1].a[ 26] =        12.999482000000;     BAS[ATNO][  1].d[ 26] =         0.135921608735;
  BAS[ATNO][  1].a[ 27] =         5.487679300000;     BAS[ATNO][  1].d[ 27] =         0.630092038518;
  BAS[ATNO][  1].a[ 28] =         2.322571600000;     BAS[ATNO][  1].d[ 28] =         0.379260867781;
  BAS[ATNO][  1].a[ 29] =         0.984980700000;     BAS[ATNO][  1].d[ 29] =         0.004939143995;
  BAS[ATNO][  1].a[ 30] =         0.418397300000;     BAS[ATNO][  1].d[ 30] =         0.011646752557;
  BAS[ATNO][  1].a[ 31] =         0.177959400000;     BAS[ATNO][  1].d[ 31] =        -0.004423787343;
  BAS[ATNO][  1].a[ 32] =         0.071183800000;     BAS[ATNO][  1].d[ 32] =         0.001281958357;
  BAS[ATNO][  1].a[ 33] =    455476.770000000019;     BAS[ATNO][  1].d[ 33] =        -0.000002632085;
  BAS[ATNO][  1].a[ 34] =     64817.743000000002;     BAS[ATNO][  1].d[ 34] =        -0.000008328713;
  BAS[ATNO][  1].a[ 35] =     19256.987000000001;     BAS[ATNO][  1].d[ 35] =        -0.000017983028;
  BAS[ATNO][  1].a[ 36] =      6877.007300000000;     BAS[ATNO][  1].d[ 36] =        -0.000049281254;
  BAS[ATNO][  1].a[ 37] =      2643.487700000000;     BAS[ATNO][  1].d[ 37] =        -0.000134035104;
  BAS[ATNO][  1].a[ 38] =      1054.237500000000;     BAS[ATNO][  1].d[ 38] =        -0.000374766594;
  BAS[ATNO][  1].a[ 39] =       429.371220000000;     BAS[ATNO][  1].d[ 39] =        -0.001035895063;
  BAS[ATNO][  1].a[ 40] =       177.188590000000;     BAS[ATNO][  1].d[ 40] =        -0.002548802871;
  BAS[ATNO][  1].a[ 41] =        73.763945000000;     BAS[ATNO][  1].d[ 41] =        -0.005294601473;
  BAS[ATNO][  1].a[ 42] =        30.897007000000;     BAS[ATNO][  1].d[ 42] =        -0.005749646190;
  BAS[ATNO][  1].a[ 43] =        12.999482000000;     BAS[ATNO][  1].d[ 43] =         0.004438588584;
  BAS[ATNO][  1].a[ 44] =         5.487679300000;     BAS[ATNO][  1].d[ 44] =         0.030052324591;
  BAS[ATNO][  1].a[ 45] =         2.322571600000;     BAS[ATNO][  1].d[ 45] =         0.031820219572;
  BAS[ATNO][  1].a[ 46] =         0.984980700000;     BAS[ATNO][  1].d[ 46] =        -0.031224936917;
  BAS[ATNO][  1].a[ 47] =         0.418397300000;     BAS[ATNO][  1].d[ 47] =        -0.062010528759;
  BAS[ATNO][  1].a[ 48] =         0.177959400000;     BAS[ATNO][  1].d[ 48] =        -0.023302059280;
  BAS[ATNO][  1].a[ 49] =         0.071183800000;     BAS[ATNO][  1].d[ 49] =        -0.000413395689;
  BAS[ATNO][  1].a[ 50] =    455476.770000000019;     BAS[ATNO][  1].d[ 50] =        -0.000002658673;
  BAS[ATNO][  1].a[ 51] =     64817.743000000002;     BAS[ATNO][  1].d[ 51] =        -0.000008410565;
  BAS[ATNO][  1].a[ 52] =     19256.987000000001;     BAS[ATNO][  1].d[ 52] =        -0.000018173051;
  BAS[ATNO][  1].a[ 53] =      6877.007300000000;     BAS[ATNO][  1].d[ 53] =        -0.000049777307;
  BAS[ATNO][  1].a[ 54] =      2643.487700000000;     BAS[ATNO][  1].d[ 54] =        -0.000135491869;
  BAS[ATNO][  1].a[ 55] =      1054.237500000000;     BAS[ATNO][  1].d[ 55] =        -0.000379232383;
  BAS[ATNO][  1].a[ 56] =       429.371220000000;     BAS[ATNO][  1].d[ 56] =        -0.001050080088;
  BAS[ATNO][  1].a[ 57] =       177.188590000000;     BAS[ATNO][  1].d[ 57] =        -0.002598078094;
  BAS[ATNO][  1].a[ 58] =        73.763945000000;     BAS[ATNO][  1].d[ 58] =        -0.005464140157;
  BAS[ATNO][  1].a[ 59] =        30.897007000000;     BAS[ATNO][  1].d[ 59] =        -0.006073938060;
  BAS[ATNO][  1].a[ 60] =        12.999482000000;     BAS[ATNO][  1].d[ 60] =         0.006645221027;
  BAS[ATNO][  1].a[ 61] =         5.487679300000;     BAS[ATNO][  1].d[ 61] =         0.032011588374;
  BAS[ATNO][  1].a[ 62] =         2.322571600000;     BAS[ATNO][  1].d[ 62] =         0.051283490430;
  BAS[ATNO][  1].a[ 63] =         0.984980700000;     BAS[ATNO][  1].d[ 63] =        -0.145902026961;
  BAS[ATNO][  1].a[ 64] =         0.418397300000;     BAS[ATNO][  1].d[ 64] =        -0.000205287099;
  BAS[ATNO][  1].a[ 65] =         0.177959400000;     BAS[ATNO][  1].d[ 65] =         0.091129940009;
  BAS[ATNO][  1].a[ 66] =         0.071183800000;     BAS[ATNO][  1].d[ 66] =         0.003530656356;

  // Basis function   3 L = s
  InitBFNGauss(BAS[ATNO][  2]);
  BAS[ATNO][  2].l  = 0;
  BAS[ATNO][  2].ng = 65;
  BAS[ATNO][  2].a[  0] =    455476.770000000019;     BAS[ATNO][  2].d[  0] =        -0.000000112405;
  BAS[ATNO][  2].a[  1] =     64817.743000000002;     BAS[ATNO][  2].d[  1] =        -0.000000355504;
  BAS[ATNO][  2].a[  2] =     19256.987000000001;     BAS[ATNO][  2].d[  2] =        -0.000000762661;
  BAS[ATNO][  2].a[  3] =      6877.007300000000;     BAS[ATNO][  2].d[  3] =        -0.000002095505;
  BAS[ATNO][  2].a[  4] =      2643.487700000000;     BAS[ATNO][  2].d[  4] =        -0.000005590445;
  BAS[ATNO][  2].a[  5] =      1054.237500000000;     BAS[ATNO][  2].d[  5] =        -0.000015478996;
  BAS[ATNO][  2].a[  6] =       429.371220000000;     BAS[ATNO][  2].d[  6] =        -0.000040223709;
  BAS[ATNO][  2].a[  7] =       177.188590000000;     BAS[ATNO][  2].d[  7] =        -0.000089481826;
  BAS[ATNO][  2].a[  8] =        73.763945000000;     BAS[ATNO][  2].d[  8] =        -0.000140033362;
  BAS[ATNO][  2].a[  9] =        30.897007000000;     BAS[ATNO][  2].d[  9] =        -0.000098028835;
  BAS[ATNO][  2].a[ 10] =        12.999482000000;     BAS[ATNO][  2].d[ 10] =        -0.000013471838;
  BAS[ATNO][  2].a[ 11] =         5.487679300000;     BAS[ATNO][  2].d[ 11] =        -0.000001095945;
  BAS[ATNO][  2].a[ 12] =         2.322571600000;     BAS[ATNO][  2].d[ 12] =         0.000000486602;
  BAS[ATNO][  2].a[ 13] =         0.984980700000;     BAS[ATNO][  2].d[ 13] =        -0.000000352384;
  BAS[ATNO][  2].a[ 14] =    455476.770000000019;     BAS[ATNO][  2].d[ 14] =        -0.000010808378;
  BAS[ATNO][  2].a[ 15] =     64817.743000000002;     BAS[ATNO][  2].d[ 15] =        -0.000034230663;
  BAS[ATNO][  2].a[ 16] =     19256.987000000001;     BAS[ATNO][  2].d[ 16] =        -0.000073639382;
  BAS[ATNO][  2].a[ 17] =      6877.007300000000;     BAS[ATNO][  2].d[ 17] =        -0.000203002193;
  BAS[ATNO][  2].a[ 18] =      2643.487700000000;     BAS[ATNO][  2].d[ 18] =        -0.000546882908;
  BAS[ATNO][  2].a[ 19] =      1054.237500000000;     BAS[ATNO][  2].d[ 19] =        -0.001541828762;
  BAS[ATNO][  2].a[ 20] =       429.371220000000;     BAS[ATNO][  2].d[ 20] =        -0.004196684287;
  BAS[ATNO][  2].a[ 21] =       177.188590000000;     BAS[ATNO][  2].d[ 21] =        -0.010340825029;
  BAS[ATNO][  2].a[ 22] =        73.763945000000;     BAS[ATNO][  2].d[ 22] =        -0.020633921027;
  BAS[ATNO][  2].a[ 23] =        30.897007000000;     BAS[ATNO][  2].d[ 23] =        -0.021940089833;
  BAS[ATNO][  2].a[ 24] =        12.999482000000;     BAS[ATNO][  2].d[ 24] =         0.016166972970;
  BAS[ATNO][  2].a[ 25] =         5.487679300000;     BAS[ATNO][  2].d[ 25] =         0.074945264774;
  BAS[ATNO][  2].a[ 26] =         2.322571600000;     BAS[ATNO][  2].d[ 26] =         0.045110562294;
  BAS[ATNO][  2].a[ 27] =         0.984980700000;     BAS[ATNO][  2].d[ 27] =         0.000587478387;
  BAS[ATNO][  2].a[ 28] =         0.418397300000;     BAS[ATNO][  2].d[ 28] =         0.001385303893;
  BAS[ATNO][  2].a[ 29] =         0.177959400000;     BAS[ATNO][  2].d[ 29] =        -0.000526180135;
  BAS[ATNO][  2].a[ 30] =         0.071183800000;     BAS[ATNO][  2].d[ 30] =         0.000152480436;
  BAS[ATNO][  2].a[ 31] =    455476.770000000019;     BAS[ATNO][  2].d[ 31] =         0.000024673376;
  BAS[ATNO][  2].a[ 32] =     64817.743000000002;     BAS[ATNO][  2].d[ 32] =         0.000078074036;
  BAS[ATNO][  2].a[ 33] =     19256.987000000001;     BAS[ATNO][  2].d[ 33] =         0.000168574373;
  BAS[ATNO][  2].a[ 34] =      6877.007300000000;     BAS[ATNO][  2].d[ 34] =         0.000461966497;
  BAS[ATNO][  2].a[ 35] =      2643.487700000000;     BAS[ATNO][  2].d[ 35] =         0.001256456017;
  BAS[ATNO][  2].a[ 36] =      1054.237500000000;     BAS[ATNO][  2].d[ 36] =         0.003513092671;
  BAS[ATNO][  2].a[ 37] =       429.371220000000;     BAS[ATNO][  2].d[ 37] =         0.009710564961;
  BAS[ATNO][  2].a[ 38] =       177.188590000000;     BAS[ATNO][  2].d[ 38] =         0.023892686364;
  BAS[ATNO][  2].a[ 39] =        73.763945000000;     BAS[ATNO][  2].d[ 39] =         0.049632026812;
  BAS[ATNO][  2].a[ 40] =        30.897007000000;     BAS[ATNO][  2].d[ 40] =         0.053897653170;
  BAS[ATNO][  2].a[ 41] =        12.999482000000;     BAS[ATNO][  2].d[ 41] =        -0.041607692054;
  BAS[ATNO][  2].a[ 42] =         5.487679300000;     BAS[ATNO][  2].d[ 42] =        -0.281712946213;
  BAS[ATNO][  2].a[ 43] =         2.322571600000;     BAS[ATNO][  2].d[ 43] =        -0.298285338209;
  BAS[ATNO][  2].a[ 44] =         0.984980700000;     BAS[ATNO][  2].d[ 44] =         0.292705109966;
  BAS[ATNO][  2].a[ 45] =         0.418397300000;     BAS[ATNO][  2].d[ 45] =         0.581291763304;
  BAS[ATNO][  2].a[ 46] =         0.177959400000;     BAS[ATNO][  2].d[ 46] =         0.218435407643;
  BAS[ATNO][  2].a[ 47] =         0.071183800000;     BAS[ATNO][  2].d[ 47] =         0.003875204968;
  BAS[ATNO][  2].a[ 48] =    455476.770000000019;     BAS[ATNO][  2].d[ 48] =         0.000017329900;
  BAS[ATNO][  2].a[ 49] =     64817.743000000002;     BAS[ATNO][  2].d[ 49] =         0.000054822179;
  BAS[ATNO][  2].a[ 50] =     19256.987000000001;     BAS[ATNO][  2].d[ 50] =         0.000118456515;
  BAS[ATNO][  2].a[ 51] =      6877.007300000000;     BAS[ATNO][  2].d[ 51] =         0.000324461004;
  BAS[ATNO][  2].a[ 52] =      2643.487700000000;     BAS[ATNO][  2].d[ 52] =         0.000883170072;
  BAS[ATNO][  2].a[ 53] =      1054.237500000000;     BAS[ATNO][  2].d[ 53] =         0.002471932043;
  BAS[ATNO][  2].a[ 54] =       429.371220000000;     BAS[ATNO][  2].d[ 54] =         0.006844686081;
  BAS[ATNO][  2].a[ 55] =       177.188590000000;     BAS[ATNO][  2].d[ 55] =         0.016934926366;
  BAS[ATNO][  2].a[ 56] =        73.763945000000;     BAS[ATNO][  2].d[ 56] =         0.035616639634;
  BAS[ATNO][  2].a[ 57] =        30.897007000000;     BAS[ATNO][  2].d[ 57] =         0.039591455719;
  BAS[ATNO][  2].a[ 58] =        12.999482000000;     BAS[ATNO][  2].d[ 58] =        -0.043315221759;
  BAS[ATNO][  2].a[ 59] =         5.487679300000;     BAS[ATNO][  2].d[ 59] =        -0.208659583128;
  BAS[ATNO][  2].a[ 60] =         2.322571600000;     BAS[ATNO][  2].d[ 60] =        -0.334278687128;
  BAS[ATNO][  2].a[ 61] =         0.984980700000;     BAS[ATNO][  2].d[ 61] =         0.951026102408;
  BAS[ATNO][  2].a[ 62] =         0.418397300000;     BAS[ATNO][  2].d[ 62] =         0.001338112939;
  BAS[ATNO][  2].a[ 63] =         0.177959400000;     BAS[ATNO][  2].d[ 63] =        -0.594007865859;
  BAS[ATNO][  2].a[ 64] =         0.071183800000;     BAS[ATNO][  2].d[ 64] =        -0.023013706000;

  // Basis function   4 L = s
  InitBFNGauss(BAS[ATNO][  3]);
  BAS[ATNO][  3].l  = 0;
  BAS[ATNO][  3].ng = 63;
  BAS[ATNO][  3].a[  0] =    455476.770000000019;     BAS[ATNO][  3].d[  0] =        -0.000000016840;
  BAS[ATNO][  3].a[  1] =     64817.743000000002;     BAS[ATNO][  3].d[  1] =        -0.000000053260;
  BAS[ATNO][  3].a[  2] =     19256.987000000001;     BAS[ATNO][  3].d[  2] =        -0.000000114259;
  BAS[ATNO][  3].a[  3] =      6877.007300000000;     BAS[ATNO][  3].d[  3] =        -0.000000313942;
  BAS[ATNO][  3].a[  4] =      2643.487700000000;     BAS[ATNO][  3].d[  4] =        -0.000000837542;
  BAS[ATNO][  3].a[  5] =      1054.237500000000;     BAS[ATNO][  3].d[  5] =        -0.000002319011;
  BAS[ATNO][  3].a[  6] =       429.371220000000;     BAS[ATNO][  3].d[  6] =        -0.000006026182;
  BAS[ATNO][  3].a[  7] =       177.188590000000;     BAS[ATNO][  3].d[  7] =        -0.000013405868;
  BAS[ATNO][  3].a[  8] =        73.763945000000;     BAS[ATNO][  3].d[  8] =        -0.000020979330;
  BAS[ATNO][  3].a[  9] =        30.897007000000;     BAS[ATNO][  3].d[  9] =        -0.000014686352;
  BAS[ATNO][  3].a[ 10] =        12.999482000000;     BAS[ATNO][  3].d[ 10] =        -0.000002018306;
  BAS[ATNO][  3].a[ 11] =         5.487679300000;     BAS[ATNO][  3].d[ 11] =        -0.000000164191;
  BAS[ATNO][  3].a[ 12] =    455476.770000000019;     BAS[ATNO][  3].d[ 12] =        -0.000001853349;
  BAS[ATNO][  3].a[ 13] =     64817.743000000002;     BAS[ATNO][  3].d[ 13] =        -0.000005869648;
  BAS[ATNO][  3].a[ 14] =     19256.987000000001;     BAS[ATNO][  3].d[ 14] =        -0.000012627194;
  BAS[ATNO][  3].a[ 15] =      6877.007300000000;     BAS[ATNO][  3].d[ 15] =        -0.000034809474;
  BAS[ATNO][  3].a[ 16] =      2643.487700000000;     BAS[ATNO][  3].d[ 16] =        -0.000093775867;
  BAS[ATNO][  3].a[ 17] =      1054.237500000000;     BAS[ATNO][  3].d[ 17] =        -0.000264382606;
  BAS[ATNO][  3].a[ 18] =       429.371220000000;     BAS[ATNO][  3].d[ 18] =        -0.000719619685;
  BAS[ATNO][  3].a[ 19] =       177.188590000000;     BAS[ATNO][  3].d[ 19] =        -0.001773176331;
  BAS[ATNO][  3].a[ 20] =        73.763945000000;     BAS[ATNO][  3].d[ 20] =        -0.003538168403;
  BAS[ATNO][  3].a[ 21] =        30.897007000000;     BAS[ATNO][  3].d[ 21] =        -0.003762141597;
  BAS[ATNO][  3].a[ 22] =        12.999482000000;     BAS[ATNO][  3].d[ 22] =         0.002772205673;
  BAS[ATNO][  3].a[ 23] =         5.487679300000;     BAS[ATNO][  3].d[ 23] =         0.012851118672;
  BAS[ATNO][  3].a[ 24] =         2.322571600000;     BAS[ATNO][  3].d[ 24] =         0.007735261076;
  BAS[ATNO][  3].a[ 25] =         0.984980700000;     BAS[ATNO][  3].d[ 25] =         0.000100736911;
  BAS[ATNO][  3].a[ 26] =         0.418397300000;     BAS[ATNO][  3].d[ 26] =         0.000237542756;
  BAS[ATNO][  3].a[ 27] =         0.177959400000;     BAS[ATNO][  3].d[ 27] =        -0.000090225892;
  BAS[ATNO][  3].a[ 28] =         0.071183800000;     BAS[ATNO][  3].d[ 28] =         0.000026146337;
  BAS[ATNO][  3].a[ 29] =    455476.770000000019;     BAS[ATNO][  3].d[ 29] =        -0.000014835242;
  BAS[ATNO][  3].a[ 30] =     64817.743000000002;     BAS[ATNO][  3].d[ 30] =        -0.000046943202;
  BAS[ATNO][  3].a[ 31] =     19256.987000000001;     BAS[ATNO][  3].d[ 31] =        -0.000101357907;
  BAS[ATNO][  3].a[ 32] =      6877.007300000000;     BAS[ATNO][  3].d[ 32] =        -0.000277764385;
  BAS[ATNO][  3].a[ 33] =      2643.487700000000;     BAS[ATNO][  3].d[ 33] =        -0.000755463296;
  BAS[ATNO][  3].a[ 34] =      1054.237500000000;     BAS[ATNO][  3].d[ 34] =        -0.002112300417;
  BAS[ATNO][  3].a[ 35] =       429.371220000000;     BAS[ATNO][  3].d[ 35] =        -0.005838624919;
  BAS[ATNO][  3].a[ 36] =       177.188590000000;     BAS[ATNO][  3].d[ 36] =        -0.014365841180;
  BAS[ATNO][  3].a[ 37] =        73.763945000000;     BAS[ATNO][  3].d[ 37] =        -0.029842011223;
  BAS[ATNO][  3].a[ 38] =        30.897007000000;     BAS[ATNO][  3].d[ 38] =        -0.032406783967;
  BAS[ATNO][  3].a[ 39] =        12.999482000000;     BAS[ATNO][  3].d[ 39] =         0.025017257867;
  BAS[ATNO][  3].a[ 40] =         5.487679300000;     BAS[ATNO][  3].d[ 40] =         0.169384194892;
  BAS[ATNO][  3].a[ 41] =         2.322571600000;     BAS[ATNO][  3].d[ 41] =         0.179348597712;
  BAS[ATNO][  3].a[ 42] =         0.984980700000;     BAS[ATNO][  3].d[ 42] =        -0.175993400584;
  BAS[ATNO][  3].a[ 43] =         0.418397300000;     BAS[ATNO][  3].d[ 43] =        -0.349510516461;
  BAS[ATNO][  3].a[ 44] =         0.177959400000;     BAS[ATNO][  3].d[ 44] =        -0.131337612122;
  BAS[ATNO][  3].a[ 45] =         0.071183800000;     BAS[ATNO][  3].d[ 45] =        -0.002330025944;
  BAS[ATNO][  3].a[ 46] =    455476.770000000019;     BAS[ATNO][  3].d[ 46] =         0.000029294117;
  BAS[ATNO][  3].a[ 47] =     64817.743000000002;     BAS[ATNO][  3].d[ 47] =         0.000092670317;
  BAS[ATNO][  3].a[ 48] =     19256.987000000001;     BAS[ATNO][  3].d[ 48] =         0.000200236530;
  BAS[ATNO][  3].a[ 49] =      6877.007300000000;     BAS[ATNO][  3].d[ 49] =         0.000548462408;
  BAS[ATNO][  3].a[ 50] =      2643.487700000000;     BAS[ATNO][  3].d[ 50] =         0.001492893067;
  BAS[ATNO][  3].a[ 51] =      1054.237500000000;     BAS[ATNO][  3].d[ 51] =         0.004178504600;
  BAS[ATNO][  3].a[ 52] =       429.371220000000;     BAS[ATNO][  3].d[ 52] =         0.011570120772;
  BAS[ATNO][  3].a[ 53] =       177.188590000000;     BAS[ATNO][  3].d[ 53] =         0.028626461607;
  BAS[ATNO][  3].a[ 54] =        73.763945000000;     BAS[ATNO][  3].d[ 54] =         0.060205656937;
  BAS[ATNO][  3].a[ 55] =        30.897007000000;     BAS[ATNO][  3].d[ 55] =         0.066924606734;
  BAS[ATNO][  3].a[ 56] =        12.999482000000;     BAS[ATNO][  3].d[ 56] =        -0.073219186542;
  BAS[ATNO][  3].a[ 57] =         5.487679300000;     BAS[ATNO][  3].d[ 57] =        -0.352713995693;
  BAS[ATNO][  3].a[ 58] =         2.322571600000;     BAS[ATNO][  3].d[ 58] =        -0.565058022471;
  BAS[ATNO][  3].a[ 59] =         0.984980700000;     BAS[ATNO][  3].d[ 59] =         1.607595546585;
  BAS[ATNO][  3].a[ 60] =         0.418397300000;     BAS[ATNO][  3].d[ 60] =         0.002261919410;
  BAS[ATNO][  3].a[ 61] =         0.177959400000;     BAS[ATNO][  3].d[ 61] =        -1.004099043521;
  BAS[ATNO][  3].a[ 62] =         0.071183800000;     BAS[ATNO][  3].d[ 62] =        -0.038901909404;

  // Basis function   5 L = p
  InitBFNGauss(BAS[ATNO][  4]);
  BAS[ATNO][  4].l  = 1;
  BAS[ATNO][  4].ng = 36;
  BAS[ATNO][  4].a[  0] =      1462.496200000000;     BAS[ATNO][  4].d[  0] =         0.000953780373;
  BAS[ATNO][  4].a[  1] =       354.067310000000;     BAS[ATNO][  4].d[  1] =         0.006154813303;
  BAS[ATNO][  4].a[  2] =       126.697790000000;     BAS[ATNO][  4].d[  2] =         0.025542876834;
  BAS[ATNO][  4].a[  3] =        49.989095000000;     BAS[ATNO][  4].d[  3] =         0.092206074731;
  BAS[ATNO][  4].a[  4] =        20.509295000000;     BAS[ATNO][  4].d[  4] =         0.241884499968;
  BAS[ATNO][  4].a[  5] =         8.580464100000;     BAS[ATNO][  4].d[  5] =         0.412818763595;
  BAS[ATNO][  4].a[  6] =         3.630104900000;     BAS[ATNO][  4].d[  6] =         0.341251112163;
  BAS[ATNO][  4].a[  7] =         1.546528000000;     BAS[ATNO][  4].d[  7] =         0.072310542802;
  BAS[ATNO][  4].a[  8] =         0.661936900000;     BAS[ATNO][  4].d[  8] =         0.003484587243;
  BAS[ATNO][  4].a[  9] =         0.284242800000;     BAS[ATNO][  4].d[  9] =         0.000287932014;
  BAS[ATNO][  4].a[ 10] =         0.122346300000;     BAS[ATNO][  4].d[ 10] =         0.000472075618;
  BAS[ATNO][  4].a[ 11] =         0.048938500000;     BAS[ATNO][  4].d[ 11] =        -0.000084748303;
  BAS[ATNO][  4].a[ 12] =      1462.496200000000;     BAS[ATNO][  4].d[ 12] =         0.000026232852;
  BAS[ATNO][  4].a[ 13] =       354.067310000000;     BAS[ATNO][  4].d[ 13] =         0.000169980541;
  BAS[ATNO][  4].a[ 14] =       126.697790000000;     BAS[ATNO][  4].d[ 14] =         0.000711379312;
  BAS[ATNO][  4].a[ 15] =        49.989095000000;     BAS[ATNO][  4].d[ 15] =         0.002623129064;
  BAS[ATNO][  4].a[ 16] =        20.509295000000;     BAS[ATNO][  4].d[ 16] =         0.007108555500;
  BAS[ATNO][  4].a[ 17] =         8.580464100000;     BAS[ATNO][  4].d[ 17] =         0.012748294028;
  BAS[ATNO][  4].a[ 18] =         3.630104900000;     BAS[ATNO][  4].d[ 18] =         0.010537718005;
  BAS[ATNO][  4].a[ 19] =         1.546528000000;     BAS[ATNO][  4].d[ 19] =        -0.015473534386;
  BAS[ATNO][  4].a[ 20] =         0.661936900000;     BAS[ATNO][  4].d[ 20] =        -0.042711969700;
  BAS[ATNO][  4].a[ 21] =         0.284242800000;     BAS[ATNO][  4].d[ 21] =        -0.039180071536;
  BAS[ATNO][  4].a[ 22] =         0.122346300000;     BAS[ATNO][  4].d[ 22] =        -0.014014666330;
  BAS[ATNO][  4].a[ 23] =         0.048938500000;     BAS[ATNO][  4].d[ 23] =        -0.000646260698;
  BAS[ATNO][  4].a[ 24] =      1462.496200000000;     BAS[ATNO][  4].d[ 24] =         0.000029091075;
  BAS[ATNO][  4].a[ 25] =       354.067310000000;     BAS[ATNO][  4].d[ 25] =         0.000176947139;
  BAS[ATNO][  4].a[ 26] =       126.697790000000;     BAS[ATNO][  4].d[ 26] =         0.000805375103;
  BAS[ATNO][  4].a[ 27] =        49.989095000000;     BAS[ATNO][  4].d[ 27] =         0.002740538952;
  BAS[ATNO][  4].a[ 28] =        20.509295000000;     BAS[ATNO][  4].d[ 28] =         0.008317333696;
  BAS[ATNO][  4].a[ 29] =         8.580464100000;     BAS[ATNO][  4].d[ 29] =         0.012436710674;
  BAS[ATNO][  4].a[ 30] =         3.630104900000;     BAS[ATNO][  4].d[ 30] =         0.015176422791;
  BAS[ATNO][  4].a[ 31] =         1.546528000000;     BAS[ATNO][  4].d[ 31] =        -0.038924046413;
  BAS[ATNO][  4].a[ 32] =         0.661936900000;     BAS[ATNO][  4].d[ 32] =        -0.063611615438;
  BAS[ATNO][  4].a[ 33] =         0.284242800000;     BAS[ATNO][  4].d[ 33] =         0.044133970853;
  BAS[ATNO][  4].a[ 34] =         0.122346300000;     BAS[ATNO][  4].d[ 34] =         0.052283714620;
  BAS[ATNO][  4].a[ 35] =         0.048938500000;     BAS[ATNO][  4].d[ 35] =         0.005381330133;

  // Basis function   6 L = p
  InitBFNGauss(BAS[ATNO][  5]);
  BAS[ATNO][  5].l  = 1;
  BAS[ATNO][  5].ng = 36;
  BAS[ATNO][  5].a[  0] =      1462.496200000000;     BAS[ATNO][  5].d[  0] =         0.000122468524;
  BAS[ATNO][  5].a[  1] =       354.067310000000;     BAS[ATNO][  5].d[  1] =         0.000790298189;
  BAS[ATNO][  5].a[  2] =       126.697790000000;     BAS[ATNO][  5].d[  2] =         0.003279789055;
  BAS[ATNO][  5].a[  3] =        49.989095000000;     BAS[ATNO][  5].d[  3] =         0.011839562030;
  BAS[ATNO][  5].a[  4] =        20.509295000000;     BAS[ATNO][  5].d[  4] =         0.031058762125;
  BAS[ATNO][  5].a[  5] =         8.580464100000;     BAS[ATNO][  5].d[  5] =         0.053007281495;
  BAS[ATNO][  5].a[  6] =         3.630104900000;     BAS[ATNO][  5].d[  6] =         0.043817760621;
  BAS[ATNO][  5].a[  7] =         1.546528000000;     BAS[ATNO][  5].d[  7] =         0.009284910560;
  BAS[ATNO][  5].a[  8] =         0.661936900000;     BAS[ATNO][  5].d[  8] =         0.000447432416;
  BAS[ATNO][  5].a[  9] =         0.284242800000;     BAS[ATNO][  5].d[  9] =         0.000036971414;
  BAS[ATNO][  5].a[ 10] =         0.122346300000;     BAS[ATNO][  5].d[ 10] =         0.000060616056;
  BAS[ATNO][  5].a[ 11] =         0.048938500000;     BAS[ATNO][  5].d[ 11] =        -0.000010881960;
  BAS[ATNO][  5].a[ 12] =      1462.496200000000;     BAS[ATNO][  5].d[ 12] =        -0.000227535007;
  BAS[ATNO][  5].a[ 13] =       354.067310000000;     BAS[ATNO][  5].d[ 13] =        -0.001474354531;
  BAS[ATNO][  5].a[ 14] =       126.697790000000;     BAS[ATNO][  5].d[ 14] =        -0.006170266957;
  BAS[ATNO][  5].a[ 15] =        49.989095000000;     BAS[ATNO][  5].d[ 15] =        -0.022752146862;
  BAS[ATNO][  5].a[ 16] =        20.509295000000;     BAS[ATNO][  5].d[ 16] =        -0.061657240173;
  BAS[ATNO][  5].a[ 17] =         8.580464100000;     BAS[ATNO][  5].d[ 17] =        -0.110574451688;
  BAS[ATNO][  5].a[ 18] =         3.630104900000;     BAS[ATNO][  5].d[ 18] =        -0.091400652341;
  BAS[ATNO][  5].a[ 19] =         1.546528000000;     BAS[ATNO][  5].d[ 19] =         0.134212277865;
  BAS[ATNO][  5].a[ 20] =         0.661936900000;     BAS[ATNO][  5].d[ 20] =         0.370469383557;
  BAS[ATNO][  5].a[ 21] =         0.284242800000;     BAS[ATNO][  5].d[ 21] =         0.339834876540;
  BAS[ATNO][  5].a[ 22] =         0.122346300000;     BAS[ATNO][  5].d[ 22] =         0.121558542780;
  BAS[ATNO][  5].a[ 23] =         0.048938500000;     BAS[ATNO][  5].d[ 23] =         0.005605449813;
  BAS[ATNO][  5].a[ 24] =      1462.496200000000;     BAS[ATNO][  5].d[ 24] =        -0.000184345414;
  BAS[ATNO][  5].a[ 25] =       354.067310000000;     BAS[ATNO][  5].d[ 25] =        -0.001121285239;
  BAS[ATNO][  5].a[ 26] =       126.697790000000;     BAS[ATNO][  5].d[ 26] =        -0.005103531027;
  BAS[ATNO][  5].a[ 27] =        49.989095000000;     BAS[ATNO][  5].d[ 27] =        -0.017366349579;
  BAS[ATNO][  5].a[ 28] =        20.509295000000;     BAS[ATNO][  5].d[ 28] =        -0.052705590780;
  BAS[ATNO][  5].a[ 29] =         8.580464100000;     BAS[ATNO][  5].d[ 29] =        -0.078809412652;
  BAS[ATNO][  5].a[ 30] =         3.630104900000;     BAS[ATNO][  5].d[ 30] =        -0.096170522708;
  BAS[ATNO][  5].a[ 31] =         1.546528000000;     BAS[ATNO][  5].d[ 31] =         0.246655350941;
  BAS[ATNO][  5].a[ 32] =         0.661936900000;     BAS[ATNO][  5].d[ 32] =         0.403096460306;
  BAS[ATNO][  5].a[ 33] =         0.284242800000;     BAS[ATNO][  5].d[ 33] =        -0.279669794703;
  BAS[ATNO][  5].a[ 34] =         0.122346300000;     BAS[ATNO][  5].d[ 34] =        -0.331313395361;
  BAS[ATNO][  5].a[ 35] =         0.048938500000;     BAS[ATNO][  5].d[ 35] =        -0.034100613756;

  // Basis function   7 L = p
  InitBFNGauss(BAS[ATNO][  6]);
  BAS[ATNO][  6].l  = 1;
  BAS[ATNO][  6].ng = 35;
  BAS[ATNO][  6].a[  0] =      1462.496200000000;     BAS[ATNO][  6].d[  0] =         0.000018559579;
  BAS[ATNO][  6].a[  1] =       354.067310000000;     BAS[ATNO][  6].d[  1] =         0.000119766300;
  BAS[ATNO][  6].a[  2] =       126.697790000000;     BAS[ATNO][  6].d[  2] =         0.000497037960;
  BAS[ATNO][  6].a[  3] =        49.989095000000;     BAS[ATNO][  6].d[  3] =         0.001794234832;
  BAS[ATNO][  6].a[  4] =        20.509295000000;     BAS[ATNO][  6].d[  4] =         0.004706822152;
  BAS[ATNO][  6].a[  5] =         8.580464100000;     BAS[ATNO][  6].d[  5] =         0.008033026099;
  BAS[ATNO][  6].a[  6] =         3.630104900000;     BAS[ATNO][  6].d[  6] =         0.006640393635;
  BAS[ATNO][  6].a[  7] =         1.546528000000;     BAS[ATNO][  6].d[  7] =         0.001407088361;
  BAS[ATNO][  6].a[  8] =         0.661936900000;     BAS[ATNO][  6].d[  8] =         0.000067806463;
  BAS[ATNO][  6].a[  9] =         0.284242800000;     BAS[ATNO][  6].d[  9] =         0.000005602859;
  BAS[ATNO][  6].a[ 10] =         0.122346300000;     BAS[ATNO][  6].d[ 10] =         0.000009186103;
  BAS[ATNO][  6].a[ 11] =      1462.496200000000;     BAS[ATNO][  6].d[ 11] =         0.000153316807;
  BAS[ATNO][  6].a[ 12] =       354.067310000000;     BAS[ATNO][  6].d[ 12] =         0.000993444179;
  BAS[ATNO][  6].a[ 13] =       126.697790000000;     BAS[ATNO][  6].d[ 13] =         0.004157626720;
  BAS[ATNO][  6].a[ 14] =        49.989095000000;     BAS[ATNO][  6].d[ 14] =         0.015330768408;
  BAS[ATNO][  6].a[ 15] =        20.509295000000;     BAS[ATNO][  6].d[ 15] =         0.041545656131;
  BAS[ATNO][  6].a[ 16] =         8.580464100000;     BAS[ATNO][  6].d[ 16] =         0.074506872734;
  BAS[ATNO][  6].a[ 17] =         3.630104900000;     BAS[ATNO][  6].d[ 17] =         0.061587253365;
  BAS[ATNO][  6].a[ 18] =         1.546528000000;     BAS[ATNO][  6].d[ 18] =        -0.090434426340;
  BAS[ATNO][  6].a[ 19] =         0.661936900000;     BAS[ATNO][  6].d[ 19] =        -0.249628325451;
  BAS[ATNO][  6].a[ 20] =         0.284242800000;     BAS[ATNO][  6].d[ 20] =        -0.228986293944;
  BAS[ATNO][  6].a[ 21] =         0.122346300000;     BAS[ATNO][  6].d[ 21] =        -0.081908132832;
  BAS[ATNO][  6].a[ 22] =         0.048938500000;     BAS[ATNO][  6].d[ 22] =        -0.003777043697;
  BAS[ATNO][  6].a[ 23] =      1462.496200000000;     BAS[ATNO][  6].d[ 23] =        -0.000278561606;
  BAS[ATNO][  6].a[ 24] =       354.067310000000;     BAS[ATNO][  6].d[ 24] =        -0.001694357405;
  BAS[ATNO][  6].a[ 25] =       126.697790000000;     BAS[ATNO][  6].d[ 25] =        -0.007711869635;
  BAS[ATNO][  6].a[ 26] =        49.989095000000;     BAS[ATNO][  6].d[ 26] =        -0.026242031894;
  BAS[ATNO][  6].a[ 27] =        20.509295000000;     BAS[ATNO][  6].d[ 27] =        -0.079642632320;
  BAS[ATNO][  6].a[ 28] =         8.580464100000;     BAS[ATNO][  6].d[ 28] =        -0.119087728309;
  BAS[ATNO][  6].a[ 29] =         3.630104900000;     BAS[ATNO][  6].d[ 29] =        -0.145321842839;
  BAS[ATNO][  6].a[ 30] =         1.546528000000;     BAS[ATNO][  6].d[ 30] =         0.372717222861;
  BAS[ATNO][  6].a[ 31] =         0.661936900000;     BAS[ATNO][  6].d[ 31] =         0.609113050488;
  BAS[ATNO][  6].a[ 32] =         0.284242800000;     BAS[ATNO][  6].d[ 32] =        -0.422604856542;
  BAS[ATNO][  6].a[ 33] =         0.122346300000;     BAS[ATNO][  6].d[ 33] =        -0.500642731425;
  BAS[ATNO][  6].a[ 34] =         0.048938500000;     BAS[ATNO][  6].d[ 34] =        -0.051528928963;

  // Basis function   8 L = d
  InitBFNGauss(BAS[ATNO][  7]);
  BAS[ATNO][  7].l  = 2;
  BAS[ATNO][  7].ng = 5;
  BAS[ATNO][  7].a[  0] =         4.328841700000;     BAS[ATNO][  7].d[  0] =         0.027886140074;
  BAS[ATNO][  7].a[  1] =         1.774230200000;     BAS[ATNO][  7].d[  1] =         0.193753660516;
  BAS[ATNO][  7].a[  2] =         0.727190600000;     BAS[ATNO][  7].d[  2] =         0.602274991605;
  BAS[ATNO][  7].a[  3] =         0.298048200000;     BAS[ATNO][  7].d[  3] =         0.305103490813;
  BAS[ATNO][  7].a[  4] =         0.119219300000;     BAS[ATNO][  7].d[  4] =         0.028800580077;

-------
TIMINGS
-------

Total SCF time: 0 days 0 hours 0 min 3 sec 

Total time                  ....       3.579 sec
Sum of individual times     ....       3.319 sec  ( 92.7%)

Fock matrix formation       ....       2.863 sec  ( 80.0%)
  XC integration            ....       0.017 sec  (  0.6% of F)
    Basis function eval.    ....       0.006 sec  ( 37.6% of XC)
    Density eval.           ....       0.001 sec  (  3.7% of XC)
    XC-Functional eval.     ....       0.001 sec  (  7.7% of XC)
    XC-Potential eval.      ....       0.000 sec  (  1.7% of XC)
Diagonalization             ....       0.000 sec  (  0.0%)
Density matrix formation    ....       0.000 sec  (  0.0%)
Population analysis         ....       0.000 sec  (  0.0%)
Initial guess               ....       0.071 sec  (  2.0%)
Orbital Transformation      ....       0.000 sec  (  0.0%)
Orbital Orthonormalization  ....       0.000 sec  (  0.0%)
DIIS solution               ....       0.000 sec  (  0.0%)
SOSCF solution              ....       0.000 sec  (  0.0%)
Grid generation             ....       0.385 sec  ( 10.7%)

-------------------------   --------------------
FINAL SINGLE POINT ENERGY      -311.070535456264
-------------------------   --------------------


                            ***************************************
                            *     ORCA property calculations      *
                            ***************************************

                                    ---------------------
                                    Active property flags
                                    ---------------------
   (+) Dipole Moment


------------------------------------------------------------------------------
                       ORCA ELECTRIC PROPERTIES CALCULATION
------------------------------------------------------------------------------

Dipole Moment Calculation                       ... on
Quadrupole Moment Calculation                   ... off
Polarizability Calculation                      ... off
GBWName                                         ... Ar_ano-rcc-dzp_2192.575824_.gbw
Electron density file                           ... Ar_ano-rcc-dzp_2192.575824_.scfp
The origin for moment calculation is the CENTER OF MASS  = ( 0.000000,  0.000000  0.000000)

-------------
DIPOLE MOMENT
-------------
                                X             Y             Z
Electronic contribution:      0.00000      -0.00000      -0.00000
Nuclear contribution   :      0.00000       0.00000       0.00000
                        -----------------------------------------
Total Dipole Moment    :      0.00000      -0.00000      -0.00000
                        -----------------------------------------
Magnitude (a.u.)       :      0.00000
Magnitude (Debye)      :      0.00000



--------------------
Rotational spectrum 
--------------------
 
Rotational constants in cm-1:     0.000000     0.000000     0.000000 
Rotational constants in MHz :     0.000000     0.000000     0.000000 

 Dipole components along the rotational axes: 
x,y,z [a.u.] :     0.000000    -0.000000    -0.000000 
x,y,z [Debye]:     0.000000    -0.000000    -0.000000 

 

Timings for individual modules:

Sum of individual times         ...        4.640 sec (=   0.077 min)
GTO integral calculation        ...        0.351 sec (=   0.006 min)   7.6 %
Relativistic integrals          ...        0.375 sec (=   0.006 min)   8.1 %
SCF iterations                  ...        3.914 sec (=   0.065 min)  84.4 %
                             ****ORCA TERMINATED NORMALLY****
TOTAL RUN TIME: 0 days 0 hours 0 minutes 5 seconds 7 msec
