
                                 *****************
                                 * O   R   C   A *
                                 *****************

           --- An Ab Initio, DFT and Semiempirical electronic structure package ---

                  #######################################################
                  #                        -***-                        #
                  #          Department of theory and spectroscopy      #
                  #               Directorship: Frank Neese             #
                  #        Max Planck Institute fuer Kohlenforschung    #
                  #                Kaiser Wilhelm Platz 1               #
                  #                 D-45470 Muelheim/Ruhr               #
                  #                      Germany                        #
                  #                                                     #
                  #                  All rights reserved                #
                  #                        -***-                        #
                  #######################################################


                         Program Version 4.2.1 -  RELEASE  -


 With contributions from (in alphabetic order):
   Daniel Aravena         : Magnetic Suceptibility
   Michael Atanasov       : Ab Initio Ligand Field Theory (pilot matlab implementation)
   Alexander A. Auer      : GIAO ZORA, VPT2
   Ute Becker             : Parallelization
   Giovanni Bistoni       : ED, misc. LED, open-shell LED, HFLD
   Martin Brehm           : Molecular dynamics
   Dmytro Bykov           : SCF Hessian
   Vijay G. Chilkuri      : MRCI spin determinant printing, contributions to CSF-ICE
   Dipayan Datta          : RHF DLPNO-CCSD density
   Achintya Kumar Dutta   : EOM-CC, STEOM-CC
   Dmitry Ganyushin       : Spin-Orbit,Spin-Spin,Magnetic field MRCI
   Miquel Garcia          : C-PCM Hessian, Gaussian charge scheme
   Yang Guo               : DLPNO-NEVPT2, CIM, IAO-localization
   Andreas Hansen         : Spin unrestricted coupled pair/coupled cluster methods
   Benjamin Helmich-Paris : CASSCF linear response (MC-RPA)
   Lee Huntington         : MR-EOM, pCC
   Robert Izsak           : Overlap fitted RIJCOSX, COSX-SCS-MP3, EOM
   Christian Kollmar      : KDIIS, OOCD, Brueckner-CCSD(T), CCSD density
   Simone Kossmann        : Meta GGA functionals, TD-DFT gradient, OOMP2, MP2 Hessian
   Martin Krupicka        : AUTO-CI
   Lucas Lang             : DCDCAS
   Dagmar Lenk            : GEPOL surface, SMD
   Dimitrios Liakos       : Extrapolation schemes; Compound Job, initial MDCI parallelization
   Dimitrios Manganas     : Further ROCIS development; embedding schemes
   Dimitrios Pantazis     : SARC Basis sets
   Taras Petrenko         : DFT Hessian,TD-DFT gradient, ASA, ECA, R-Raman, ABS, FL, XAS/XES, NRVS
   Peter Pinski           : DLPNO-MP2, DLPNO-MP2 Gradient
   Christoph Reimann      : Effective Core Potentials
   Marius Retegan         : Local ZFS, SOC
   Christoph Riplinger    : Optimizer, TS searches, QM/MM, DLPNO-CCSD(T), (RO)-DLPNO pert. Triples
   Tobias Risthaus        : Range-separated hybrids, TD-DFT gradient, RPA, STAB
   Michael Roemelt        : Original ROCIS implementation
   Masaaki Saitow         : Open-shell DLPNO-CCSD energy and density
   Barbara Sandhoefer     : DKH picture change effects
   Avijit Sen             : IP-ROCIS
   Kantharuban Sivalingam : CASSCF convergence, NEVPT2, FIC-MRCI
   Bernardo de Souza      : ESD, SOC TD-DFT
   Georgi Stoychev        : AutoAux, RI-MP2 NMR
   Willem Van den Heuvel  : Paramagnetic NMR
   Boris Wezisla          : Elementary symmetry handling
   Frank Wennmohs         : Technical directorship


 We gratefully acknowledge several colleagues who have allowed us to
 interface, adapt or use parts of their codes:
   Stefan Grimme, W. Hujo, H. Kruse,             : VdW corrections, initial TS optimization,
                  C. Bannwarth                     DFT functionals, gCP, sTDA/sTD-DF
   Ed Valeev, F. Pavosevic, A. Kumar             : LibInt (2-el integral package), F12 methods
   Garnet Chan, S. Sharma, J. Yang, R. Olivares  : DMRG
   Ulf Ekstrom                                   : XCFun DFT Library
   Mihaly Kallay                                 : mrcc  (arbitrary order and MRCC methods)
   Andreas Klamt, Michael Diedenhofen            : otool_cosmo (COSMO solvation model)
   Jiri Pittner, Ondrej Demel                    : Mk-CCSD
   Frank Weinhold                                : gennbo (NPA and NBO analysis)
   Christopher J. Cramer and Donald G. Truhlar   : smd solvation model
   Lars Goerigk                                  : TD-DFT with DH, B97 family of functionals
   V. Asgeirsson, H. Jonsson                     : NEB implementation
   FAccTs GmbH                                   : IRC, NEB, NEB-TS, Multilevel, MM, QM/MM, CI optimization
   S Lehtola, MJT Oliveira, MAL Marques          : LibXC Library


 Your calculation uses the libint2 library for the computation of 2-el integrals
 For citations please refer to: http://libint.valeyev.net

 Your ORCA version has been built with support for libXC version: 4.2.3
 For citations please refer to: https://tddft.org/programs/libxc/

 This ORCA versions uses:
   CBLAS   interface :  Fast vector & matrix operations
   LAPACKE interface :  Fast linear algebra routines
   SCALAPACK package :  Parallel linear algebra routines


----- Orbital basis set information -----
Your calculation utilizes the basis: ANO-RCC-QZP
   H, He:       P.-O. Widmark, P.-A. Malmqvist, and B. O. Roos, Theor. Chim. Acta 77, 291 (1990).
   s block:     B. O. Roos, V. Veryazov and P.-O. Widmark, Theor. Chem. Acc. 111, 345 (2004).
   p block:     B. O. Roos, R. Lindh, P.-A. Malmqvist, V. Veryazov, and P.-O. Widmark, J. Phys. Chem. A 108, 2851 (2004).
   d block:     B. O. Roos, R. Lindh, P.-A. Malmqvist, V. Veryazov, and P.-O. Widmark, J. Phys. Chem. A 109, 6575 (2005).
   actinides:   B. O. Roos, R. Lindh, P.-A. Malmqvist, V. Veryazov, and P.-O. Widmark, Chem. Phys. Letters 409, 295 (2005).
   lanthanides: B. O. Roos, R. Lindh, P.-A. Malmqvist, V. Veryazov, P.-O. Widmark and A. C. Borin, J. Phys. Chem. A 112, 11431 (2008).

================================================================================
                                        WARNINGS
                       Please study these warnings very carefully!
================================================================================


INFO   : the flag for use of LIBINT has been found!

================================================================================
                                       INPUT FILE
================================================================================
NAME = Ar_ano-rcc-qzp_548.143956_.inp
|  1> ! LDA ano-rcc-qzp nori grid5 finalgrid6 verytightscf
|  2> %Pal NProcs 18 End
|  3> 
|  4> % REL
|  5>   Method ZORA
|  6>   ModelPot 1, 0, 0, 0
|  7>   velit 548.143956
|  8> END
|  9> 
| 10> *xyz 16 1
| 11> Ar 0.0 0.0 0.0
| 12> **                         ****END OF INPUT****
================================================================================

                       ****************************
                       * Single Point Calculation *
                       ****************************

---------------------------------
CARTESIAN COORDINATES (ANGSTROEM)
---------------------------------
  Ar     0.000000    0.000000    0.000000

----------------------------
CARTESIAN COORDINATES (A.U.)
----------------------------
  NO LB      ZA    FRAG     MASS         X           Y           Z
   0 Ar   18.0000    0    39.948    0.000000    0.000000    0.000000

--------------------------------
INTERNAL COORDINATES (ANGSTROEM)
--------------------------------
 Ar     0   0   0     0.000000000000     0.00000000     0.00000000

---------------------------
INTERNAL COORDINATES (A.U.)
---------------------------
 Ar     0   0   0     0.000000000000     0.00000000     0.00000000

---------------------
BASIS SET INFORMATION
---------------------
There are 1 groups of distinct atoms

 Group   1 Type Ar  : 102s60p15d8f contracted to 6s5p3d2f pattern {171717171717/1212121212/555/44}

Atom   0Ar   basis set group =>   1


           ************************************************************
           *        Program running with 18 parallel MPI-processes    *
           *              working on a common directory               *
           ************************************************************


------------------------------------------------------------------------------
                       ORCA GTO INTEGRAL CALCULATION
                     -- ANO INTEGRAL GENERATION BRANCH --
------------------------------------------------------------------------------


Gathering ANO information                         ... done
Calculation Information:
Number of atoms                                   ... 1
Number of basis functions                         ... 50
Highest angular momentum                          ... 3
Number of primitive shells                        ... 38
Total number of shells                            ... 16
Maximum number of shells                          ... 16

Getting memory                                    ... done
Making prescreening integrals                     ... done
Gathering atom contracted prescreening            ... done
Making one-electron integrals                     ... done

Timings:

Total time                                        ...    0.2 sec
Prescreening matrix                               ...    0.1 sec
One-electron matrix                               ...    0.0 sec
Two-index integrals + Cholesky                    ...    0.0 sec


           ************************************************************
           *        Program running with 18 parallel MPI-processes    *
           *              working on a common directory               *
           ************************************************************
------------------------------------------------------------------------------
                          ORCA RELATIVISTIC HAMILTONIAN
------------------------------------------------------------------------------

Relativistic Method            ... ZORA(MP)
Treatment of potential         ... Van Wuellen
Nucleus model                  ... Point Nucleus
Speed of light used            ... 548.14395600000000


            *************************************************
            *         ZERO ORDER REGULAR APPROXIMATION      *
            *                     ZORA(MP)                  *
            *            Programmed by FN according to      *
            *                   C. van Wuellen              *
            *       J. Chem. Phys. (1998) vol 109, 392-399  *
            *************************************************

Terms included in model potential: +V(e,N)
Basis function cutoff value   ... 1.000000e-12
Loading the fitted atomic densities  (DKH4)  ... done
Calculating the cutoffs                      ... done
Number of fit functions                      ... 15
Setting up the integration grid ... done


           ************************************************************
           *        Program running with 18 parallel MPI-processes    *
           *              working on a common directory               *
           ************************************************************
-------------------------------------------------------------------------------
                                 ORCA SCF
-------------------------------------------------------------------------------

------------
SCF SETTINGS
------------
Hamiltonian:
 Density Functional     Method          .... DFT(GTOs)
 Exchange Functional    Exchange        .... Slater
   X-Alpha parameter    XAlpha          ....  0.666667
 Correlation Functional Correlation     .... VWN-5
 Gradients option       PostSCFGGA      .... off
   Density functional embedding theory  .... OFF

Relativistic Settings:
 Scalar relativistic method             .... ZORA
 Speed of light used       Velit        ....       548.143956
Orbital energies will be scaled


General Settings:
 Integral files         IntName         .... Ar_ano-rcc-qzp_548.143956_
 Hartree-Fock type      HFTyp           .... RHF
 Total Charge           Charge          ....   16
 Multiplicity           Mult            ....    1
 Number of Electrons    NEL             ....    2
 Basis Dimension        Dim             ....   50
 Nuclear Repulsion      ENuc            ....      0.0000000000 Eh

Convergence Acceleration:
 DIIS                   CNVDIIS         .... on
   Start iteration      DIISMaxIt       ....    12
   Startup error        DIISStart       ....  0.200000
   # of expansion vecs  DIISMaxEq       ....     5
   Bias factor          DIISBfac        ....   1.050
   Max. coefficient     DIISMaxC        ....  10.000
 Newton-Raphson         CNVNR           .... off
 SOSCF                  CNVSOSCF        .... on
   Start iteration      SOSCFMaxIt      ....   150
   Startup grad/error   SOSCFStart      ....  0.003300
 Level Shifting         CNVShift        .... on
   Level shift para.    LevelShift      ....    0.2500
   Turn off err/grad.   ShiftErr        ....    0.0010
 Zerner damping         CNVZerner       .... off
 Static damping         CNVDamp         .... on
   Fraction old density DampFac         ....    0.7000
   Max. Damping (<1)    DampMax         ....    0.9800
   Min. Damping (>=0)   DampMin         ....    0.0000
   Turn off err/grad.   DampErr         ....    0.1000
 Fernandez-Rico         CNVRico         .... off

SCF Procedure:
 Maximum # iterations   MaxIter         ....   125
 SCF integral mode      SCFMode         .... Direct
   Integral package                     .... LIBINT
 Reset frequency        DirectResetFreq ....    20
 Integral Threshold     Thresh          ....  1.000e-12 Eh
 Primitive CutOff       TCut            ....  1.000e-14 Eh

Convergence Tolerance:
 Convergence Check Mode ConvCheckMode   .... Total+1el-Energy
 Convergence forced     ConvForced      .... 0
 Energy Change          TolE            ....  1.000e-09 Eh
 1-El. energy change                    ....  1.000e-06 Eh
 Orbital Gradient       TolG            ....  2.000e-06
 Orbital Rotation angle TolX            ....  2.000e-06
 DIIS Error             TolErr          ....  1.000e-08


Diagonalization of the overlap matrix:
Smallest eigenvalue                        ... 1.000e+00
Time for diagonalization                   ...    0.002 sec
Threshold for overlap eigenvalues          ... 1.000e-08
Number of eigenvalues below threshold      ... 0
Time for construction of square roots      ...    0.001 sec
Total time needed                          ...    0.003 sec

-------------------
DFT GRID GENERATION
-------------------

General Integration Accuracy     IntAcc      ...  5.010
Radial Grid Type                 RadialGrid  ... Gauss-Chebyshev
Angular Grid (max. acc.)         AngularGrid ... Lebedev-434
Angular grid pruning method      GridPruning ... 3 (G Style)
Weight generation scheme         WeightScheme... Becke
Basis function cutoff            BFCut       ...    1.0000e-12
Integration weight cutoff        WCut        ...    1.0000e-14
Grids for H and He will be reduced by one unit

# of grid points (after initial pruning)     ...  11992 (   0.0 sec)
# of grid points (after weights+screening)   ...  11992 (   0.0 sec)
Grid point division into batches done        ...    0.1 sec
Reduced shell lists constructed in    0.1 sec

Total number of grid points                  ...    11992
Total number of batches                      ...      188
Average number of points per batch           ...       63
Average number of grid points per atom       ...    11992
Average number of shells per batch           ...     9.50 (59.38%)
Average number of basis functions per batch  ...    25.83 (51.67%)
Average number of large shells per batch     ...     5.83 (61.40%)
Average number of large basis fcns per batch ...    14.83 (57.42%)
Maximum spatial batch extension              ...  18.71, 18.71, 18.71 au
Average spatial batch extension              ...   0.97,  0.98,  0.97 au

Time for grid setup =    0.151 sec

------------------------------
INITIAL GUESS: MODEL POTENTIAL
------------------------------
Loading ZORA relativistic densities                ... done
Calculating cut-offs                               ... done
Setting up the integral package                    ... done
Initializing the effective Hamiltonian             ... done
Starting the Coulomb interaction                   ... done (   0.0 sec)
Reading the grid                                   ... done
Mapping shells                                     ... done
Starting the XC term evaluation                    ... done (   0.0 sec)
  promolecular density results
     # of electrons  =     18.000000116
     EX              =    -28.047870263
     EC              =     -1.433252902
     EX+EC           =    -29.481123164
Transforming the Hamiltonian                       ... done (   0.0 sec)
Diagonalizing the Hamiltonian                      ... done (   0.0 sec)
Back transforming the eigenvectors                 ... done (   0.0 sec)
Now organizing SCF variables                       ... done
                      ------------------
                      INITIAL GUESS DONE (   0.2 sec)
                      ------------------
--------------
SCF ITERATIONS
--------------
ITER       Energy         Delta-E        Max-DP      RMS-DP      [F,P]     Damp
               ***  Starting incremental Fock matrix formation  ***
  0   -311.2227605835   0.000000000000 0.00520671  0.00012322  1.9243445 0.7000
                      *** Initiating the SOSCF procedure ***
                      *** Re-Reading the Fockian *** 
                      *** Removing any level shift *** 
ITER      Energy       Delta-E        Grad      Rot      Max-DP    RMS-DP
  1   -311.23025780  -0.0074972132  0.000695  0.000695  0.012139  0.000287
               *** Restarting incremental Fock matrix formation ***
  2   -311.24757462  -0.0173168223  0.007051  0.000063  0.000113  0.000003
  3   -311.24757582  -0.0000012037  0.000068  0.000001  0.000001  0.000000
                 **** Energy Check signals convergence ****
              ***Rediagonalizing the Fockian in SOSCF/NRSCF***

               *****************************************************
               *                     SUCCESS                       *
               *           SCF CONVERGED AFTER   4 CYCLES          *
               *****************************************************

Setting up the final grid:

General Integration Accuracy     IntAcc      ...  5.340
Radial Grid Type                 RadialGrid  ... Gauss-Chebyshev
Angular Grid (max. acc.)         AngularGrid ... Lebedev-590
Angular grid pruning method      GridPruning ... 3 (G Style)
Weight generation scheme         WeightScheme... Becke
Basis function cutoff            BFCut       ...    1.0000e-12
Integration weight cutoff        WCut        ...    1.0000e-14
Grids for H and He will be reduced by one unit

# of grid points (after initial pruning)     ...  18110 (   0.0 sec)
# of grid points (after weights+screening)   ...  18110 (   0.0 sec)
Grid point division into batches done        ...    0.2 sec
Reduced shell lists constructed in    0.2 sec

Total number of grid points                  ...    18110
Total number of batches                      ...      283
Average number of points per batch           ...       63
Average number of grid points per atom       ...    18110
Average number of shells per batch           ...     3.88 (24.26%)
Average number of basis functions per batch  ...     9.29 (18.59%)
Average number of large shells per batch     ...     2.12 (54.55%)
Average number of large basis fcns per batch ...     6.35 (68.35%)
Maximum spatial batch extension              ...  19.03, 19.03, 19.03 au
Average spatial batch extension              ...   0.84,  0.84,  0.80 au

Final grid set up in    0.2 sec
Final integration                            ... done (   0.0 sec)
Change in XC energy                          ...     0.000014072
Integrated number of electrons               ...     2.000000249
Previous integrated no of electrons          ...     2.000000961

----------------
TOTAL SCF ENERGY
----------------

Total Energy       :         -311.24756175 Eh           -8469.47674 eV

Components:
Nuclear Repulsion  :            0.00000000 Eh               0.00000 eV
Electronic Energy  :         -311.24756175 Eh           -8469.47674 eV
One Electron Energy:         -323.62018638 Eh           -8806.15297 eV
Two Electron Energy:           12.37262463 Eh             336.67623 eV

Virial components:
Potential Energy   :         -630.67911874 Eh          -17161.65130 eV
Kinetic Energy     :          319.43155699 Eh            8692.17457 eV
Virial Ratio       :            1.97437950


DFT components:
N(Alpha)           :        1.000000124436 electrons
N(Beta)            :        1.000000124436 electrons
N(Total)           :        2.000000248872 electrons
E(X)               :       -9.489932560395 Eh       
E(C)               :       -0.237101062028 Eh       
E(XC)              :       -9.727033622423 Eh       
DFET-embed. en.    :        0.000000000000 Eh       

---------------
SCF CONVERGENCE
---------------

  Last Energy change         ...   -1.1079e-10  Tolerance :   1.0000e-09
  Last MAX-Density change    ...    0.0000e+00  Tolerance :   1.0000e-08
  Last RMS-Density change    ...    0.0000e+00  Tolerance :   1.0000e-09
  Last Orbital Gradient      ...    5.2543e-10  Tolerance :   2.0000e-06
  Last Orbital Rotation      ...    0.0000e+00  Tolerance :   2.0000e-06

================================================================================
                                        WARNING
Number of found core electrons (2) does not match given number of chemical core electrons (10)
================================================================================
             **** THE GBW FILE WAS UPDATED (Ar_ano-rcc-qzp_548.143956_.gbw) ****
             **** DENSITY FILE WAS UPDATED (Ar_ano-rcc-qzp_548.143956_.scfp) ****
             **** ENERGY FILE WAS UPDATED (Ar_ano-rcc-qzp_548.143956_.en.tmp) ****
             **** THE GBW FILE WAS UPDATED (Ar_ano-rcc-qzp_548.143956_.gbw) ****
             **** DENSITY FILE WAS UPDATED (Ar_ano-rcc-qzp_548.143956_.scfp) ****
----------------
ORBITAL ENERGIES
----------------

  NO   OCC          E(Eh)            E(eV) 
   0   2.0000    -146.165168     -3977.3564 
   1   0.0000     -33.985103      -924.7817 
   2   0.0000     -33.026841      -898.7060 
   3   0.0000     -33.026841      -898.7060 
   4   0.0000     -33.026841      -898.7060 
   5   0.0000     -14.632422      -398.1685 
   6   0.0000     -14.196908      -386.3175 
   7   0.0000     -14.196908      -386.3175 
   8   0.0000     -14.196908      -386.3175 
   9   0.0000     -11.399781      -310.2038 
  10   0.0000     -11.399781      -310.2038 
  11   0.0000     -11.399781      -310.2038 
  12   0.0000     -11.399781      -310.2038 
  13   0.0000     -11.399781      -310.2038 
  14   0.0000      -8.145160      -221.6411 
  15   0.0000      -7.954686      -216.4580 
  16   0.0000      -7.954686      -216.4580 
  17   0.0000      -7.954686      -216.4580 
  18   0.0000      -7.578357      -206.2176 
  19   0.0000      -7.578357      -206.2176 
  20   0.0000      -7.578357      -206.2176 
  21   0.0000      -7.578357      -206.2176 
  22   0.0000      -7.578357      -206.2176 
  23   0.0000      -7.578357      -206.2176 
  24   0.0000      -7.578357      -206.2176 
  25   0.0000      -6.226584      -169.4340 
  26   0.0000      -6.226584      -169.4340 
  27   0.0000      -6.226584      -169.4340 
  28   0.0000      -6.226584      -169.4340 
  29   0.0000      -6.226584      -169.4340 
  30   0.0000      -5.151229      -140.1721 
  31   0.0000      -5.103353      -138.8693 
  32   0.0000      -5.103353      -138.8693 
  33   0.0000      -5.103353      -138.8693 
  34   0.0000      -4.862397      -132.3125 
  35   0.0000      -4.862397      -132.3125 
  36   0.0000      -4.862397      -132.3125 
  37   0.0000      -4.862397      -132.3125 
  38   0.0000      -4.862397      -132.3125 
  39   0.0000      -4.862397      -132.3125 
  40   0.0000      -4.862397      -132.3125 
  41   0.0000      -4.263715      -116.0216 
  42   0.0000      -4.263715      -116.0216 
  43   0.0000      -4.263715      -116.0216 
  44   0.0000      -4.263715      -116.0216 
  45   0.0000      -4.263715      -116.0216 
  46   0.0000      -3.419192       -93.0409 
  47   0.0000      -3.418038       -93.0095 
  48   0.0000      -3.418038       -93.0095 
  49   0.0000      -3.418038       -93.0095 

                    ********************************
                    * MULLIKEN POPULATION ANALYSIS *
                    ********************************

-----------------------
MULLIKEN ATOMIC CHARGES
-----------------------
   0 Ar:   16.000000
Sum of atomic charges:   16.0000000

--------------------------------
MULLIKEN REDUCED ORBITAL CHARGES
--------------------------------
  0 Ars       :     2.000000  s :     2.000000
      pz      :     0.000000  p :     0.000000
      px      :     0.000000
      py      :     0.000000
      dz2     :     0.000000  d :     0.000000
      dxz     :     0.000000
      dyz     :     0.000000
      dx2y2   :     0.000000
      dxy     :     0.000000
      f0      :     0.000000  f :     0.000000
      f+1     :     0.000000
      f-1     :     0.000000
      f+2     :     0.000000
      f-2     :     0.000000
      f+3     :     0.000000
      f-3     :     0.000000


                     *******************************
                     * LOEWDIN POPULATION ANALYSIS *
                     *******************************

----------------------
LOEWDIN ATOMIC CHARGES
----------------------
   0 Ar:   16.000000

-------------------------------
LOEWDIN REDUCED ORBITAL CHARGES
-------------------------------
  0 Ars       :     2.000000  s :     2.000000
      pz      :     0.000000  p :     0.000000
      px      :     0.000000
      py      :     0.000000
      dz2     :     0.000000  d :     0.000000
      dxz     :     0.000000
      dyz     :     0.000000
      dx2y2   :     0.000000
      dxy     :     0.000000
      f0      :     0.000000  f :     0.000000
      f+1     :     0.000000
      f-1     :     0.000000
      f+2     :     0.000000
      f-2     :     0.000000
      f+3     :     0.000000
      f-3     :     0.000000


                      *****************************
                      * MAYER POPULATION ANALYSIS *
                      *****************************

  NA   - Mulliken gross atomic population
  ZA   - Total nuclear charge
  QA   - Mulliken gross atomic charge
  VA   - Mayer's total valence
  BVA  - Mayer's bonded valence
  FA   - Mayer's free valence

  ATOM       NA         ZA         QA         VA         BVA        FA
  0 Ar     2.0000    18.0000    16.0000    -0.0000     0.0000    -0.0000

  Mayer bond orders larger than 0.100000


--------------------------
ATOM BASIS FOR ELEMENT Ar
--------------------------
 NewGTO Ar
 S 102
    1     455476.770000000019         0.000319856850
    2      64817.743000000002         0.001011610038
    3      19256.987000000001         0.002170198629
    4       6877.007300000000         0.005962891279
    5       2643.487700000000         0.015907963343
    6       1054.237500000000         0.044046456243
    7        429.371220000000         0.114459092840
    8        177.188590000000         0.254626162516
    9         73.763945000000         0.398473735947
   10         30.897007000000         0.278947213009
   11         12.999482000000         0.038334962488
   12          5.487679300000         0.003118579289
   13          2.322571600000        -0.001384656364
   14          0.984980700000         0.001002730125
   15          0.418397300000        -0.000643173666
   16          0.177959400000         0.000282017223
   17          0.071183800000        -0.000076279249
   18     455476.770000000019         0.000000393010
   19      64817.743000000002         0.000001244682
   20      19256.987000000001         0.000002677647
   21       6877.007300000000         0.000007381487
   22       2643.487700000000         0.000019885545
   23       1054.237500000000         0.000056063380
   24        429.371220000000         0.000152598209
   25        177.188590000000         0.000376009076
   26         73.763945000000         0.000750282647
   27         30.897007000000         0.000797777052
   28         12.999482000000        -0.000587857211
   29          5.487679300000        -0.002725130700
   30          2.322571600000        -0.001640292800
   31          0.984980700000        -0.000021361662
   32          0.418397300000        -0.000050371884
   33          0.177959400000         0.000019132758
   34          0.071183800000        -0.000005544435
   35     455476.770000000019         0.000000021021
   36      64817.743000000002         0.000000066516
   37      19256.987000000001         0.000000143619
   38       6877.007300000000         0.000000393577
   39       2643.487700000000         0.000001070450
   40       1054.237500000000         0.000002993014
   41        429.371220000000         0.000008273011
   42        177.188590000000         0.000020355609
   43         73.763945000000         0.000042284492
   44         30.897007000000         0.000045918635
   45         12.999482000000        -0.000035448082
   46          5.487679300000        -0.000240008110
   47          2.322571600000        -0.000254127122
   48          0.984980700000         0.000249372992
   49          0.418397300000         0.000495237224
   50          0.177959400000         0.000186098190
   51          0.071183800000         0.000003301519
   52     455476.770000000019         0.000000021808
   53      64817.743000000002         0.000000068987
   54      19256.987000000001         0.000000149064
   55       6877.007300000000         0.000000408297
   56       2643.487700000000         0.000001111368
   57       1054.237500000000         0.000003110643
   58        429.371220000000         0.000008613254
   59        177.188590000000         0.000021310666
   60         73.763945000000         0.000044819463
   61         30.897007000000         0.000049821314
   62         12.999482000000        -0.000054507247
   63          5.487679300000        -0.000262574196
   64          2.322571600000        -0.000420651456
   65          0.984980700000         0.001196757465
   66          0.418397300000         0.000001683862
   67          0.177959400000        -0.000747490890
   68          0.071183800000        -0.000028960114
   69     455476.770000000019         0.000000024308
   70      64817.743000000002         0.000000073481
   71      19256.987000000001         0.000000182159
   72       6877.007300000000         0.000000379268
   73       2643.487700000000         0.000001479972
   74       1054.237500000000         0.000002686306
   75        429.371220000000         0.000011793122
   76        177.188590000000         0.000017869234
   77         73.763945000000         0.000067831612
   78         30.897007000000         0.000014644282
   79         12.999482000000         0.000018284235
   80          5.487679300000        -0.000650820858
   81          2.322571600000         0.000343139649
   82          0.984980700000         0.001389860757
   83          0.418397300000        -0.002205127781
   84          0.177959400000         0.001034467290
   85          0.071183800000         0.000122353304
   86     455476.770000000019         0.000000014067
   87      64817.743000000002         0.000000041009
   88      19256.987000000001         0.000000112752
   89       6877.007300000000         0.000000184823
   90       2643.487700000000         0.000000969653
   91       1054.237500000000         0.000001195012
   92        429.371220000000         0.000007896735
   93        177.188590000000         0.000007709038
   94         73.763945000000         0.000048956602
   95         30.897007000000        -0.000013750623
   96         12.999482000000         0.000039246762
   97          5.487679300000        -0.000606677480
   98          2.322571600000         0.001171216978
   99          0.984980700000        -0.000979820935
  100          0.418397300000         0.000205272814
  101          0.177959400000         0.000441205092
  102          0.071183800000        -0.000389133280
 S 101
    1     455476.770000000019        -0.000001413756
    2      64817.743000000002        -0.000004471282
    3      19256.987000000001        -0.000009592203
    4       6877.007300000000        -0.000026355774
    5       2643.487700000000        -0.000070312650
    6       1054.237500000000        -0.000194683819
    7        429.371220000000        -0.000505905246
    8        177.188590000000        -0.001125438864
    9         73.763945000000        -0.001761240182
   10         30.897007000000        -0.001232937069
   11         12.999482000000        -0.000169439213
   12          5.487679300000        -0.000013784013
   13          2.322571600000         0.000006120133
   14          0.984980700000        -0.000004432033
   15          0.418397300000         0.000002842805
   16          0.177959400000        -0.000001246506
   17     455476.770000000019         0.000090195522
   18      64817.743000000002         0.000285653642
   19      19256.987000000001         0.000614517964
   20       6877.007300000000         0.001694045921
   21       2643.487700000000         0.004563717989
   22       1054.237500000000         0.012866504975
   23        429.371220000000         0.035021177836
   24        177.188590000000         0.086293808999
   25         73.763945000000         0.172189320960
   26         30.897007000000         0.183089252171
   27         12.999482000000        -0.134912801790
   28          5.487679300000        -0.625415510406
   29          2.322571600000        -0.376446002648
   30          0.984980700000        -0.004902485786
   31          0.418397300000        -0.011560310636
   32          0.177959400000         0.004390954099
   33          0.071183800000        -0.001272443693
   34     455476.770000000019         0.000002880997
   35      64817.743000000002         0.000009116347
   36      19256.987000000001         0.000019683656
   37       6877.007300000000         0.000053941708
   38       2643.487700000000         0.000146710604
   39       1054.237500000000         0.000410207713
   40        429.371220000000         0.001133858117
   41        177.188590000000         0.002789839365
   42         73.763945000000         0.005795304054
   43         30.897007000000         0.006293381673
   44         12.999482000000        -0.004858339301
   45          5.487679300000        -0.032894328203
   46          2.322571600000        -0.034829410381
   47          0.984980700000         0.034177832731
   48          0.418397300000         0.067874772178
   49          0.177959400000         0.025505700348
   50          0.071183800000         0.000452489904
   51     455476.770000000019         0.000003069880
   52      64817.743000000002         0.000009711394
   53      19256.987000000001         0.000020983805
   54       6877.007300000000         0.000057476168
   55       2643.487700000000         0.000156447865
   56       1054.237500000000         0.000437886771
   57        429.371220000000         0.001212491863
   58        177.188590000000         0.002999912658
   59         73.763945000000         0.006309257315
   60         30.897007000000         0.007013370272
   61         12.999482000000        -0.007673011338
   62          5.487679300000        -0.036962695379
   63          2.322571600000        -0.059215307050
   64          0.984980700000         0.168468122065
   65          0.418397300000         0.000237038051
   66          0.177959400000        -0.105224650932
   67          0.071183800000        -0.004076729147
   68     455476.770000000019         0.000003744417
   69      64817.743000000002         0.000011319002
   70      19256.987000000001         0.000028059854
   71       6877.007300000000         0.000058422708
   72       2643.487700000000         0.000227975798
   73       1054.237500000000         0.000413800157
   74        429.371220000000         0.001816619717
   75        177.188590000000         0.002752587629
   76         73.763945000000         0.010448822689
   77         30.897007000000         0.002255814127
   78         12.999482000000         0.002816514671
   79          5.487679300000        -0.100252840257
   80          2.322571600000         0.052857439996
   81          0.984980700000         0.214094995303
   82          0.418397300000        -0.339679222865
   83          0.177959400000         0.159349969696
   84          0.071183800000         0.018847377296
   85     455476.770000000019         0.000003847566
   86      64817.743000000002         0.000011217073
   87      19256.987000000001         0.000030840439
   88       6877.007300000000         0.000050553676
   89       2643.487700000000         0.000265224126
   90       1054.237500000000         0.000326865278
   91        429.371220000000         0.002159952158
   92        177.188590000000         0.002108612427
   93         73.763945000000         0.013390840218
   94         30.897007000000        -0.003761135299
   95         12.999482000000         0.010734959139
   96          5.487679300000        -0.165941281441
   97          2.322571600000         0.320356783803
   98          0.984980700000        -0.268005236740
   99          0.418397300000         0.056147186715
  100          0.177959400000         0.120680494773
  101          0.071183800000        -0.106437567279
 S 99
    1     455476.770000000019        -0.000000127271
    2      64817.743000000002        -0.000000402521
    3      19256.987000000001        -0.000000863524
    4       6877.007300000000        -0.000002372640
    5       2643.487700000000        -0.000006329792
    6       1054.237500000000        -0.000017526123
    7        429.371220000000        -0.000045543372
    8        177.188590000000        -0.000101315971
    9         73.763945000000        -0.000158553045
   10         30.897007000000        -0.000110993338
   11         12.999482000000        -0.000015253515
   12          5.487679300000        -0.000001240885
   13          2.322571600000         0.000000550956
   14          0.984980700000        -0.000000398987
   15     455476.770000000019        -0.000014944334
   16      64817.743000000002        -0.000047329440
   17      19256.987000000001        -0.000101818381
   18       6877.007300000000        -0.000280683435
   19       2643.487700000000        -0.000756154261
   20       1054.237500000000        -0.002131828167
   21        429.371220000000        -0.005802596237
   22        177.188590000000        -0.014297866671
   23         73.763945000000        -0.028529740218
   24         30.897007000000        -0.030335730300
   25         12.999482000000         0.022353460515
   26          5.487679300000         0.103623975871
   27          2.322571600000         0.062372664006
   28          0.984980700000         0.000812284090
   29          0.418397300000         0.001915407166
   30          0.177959400000        -0.000727529321
   31          0.071183800000         0.000210828917
   32     455476.770000000019         0.000021272135
   33      64817.743000000002         0.000067311480
   34      19256.987000000001         0.000145336288
   35       6877.007300000000         0.000398284119
   36       2643.487700000000         0.001083252747
   37       1054.237500000000         0.003028810587
   38        429.371220000000         0.008371957336
   39        177.188590000000         0.020599064184
   40         73.763945000000         0.042790219999
   41         30.897007000000         0.046467827020
   42         12.999482000000        -0.035872044947
   43          5.487679300000        -0.242878635413
   44          2.322571600000        -0.257166512515
   45          0.984980700000         0.252355522324
   46          0.418397300000         0.501160319915
   47          0.177959400000         0.188323946228
   48          0.071183800000         0.003341005471
   49     455476.770000000019         0.000018089111
   50      64817.743000000002         0.000057223901
   51      19256.987000000001         0.000123646015
   52       6877.007300000000         0.000338675422
   53       2643.487700000000         0.000921861158
   54       1054.237500000000         0.002580225718
   55        429.371220000000         0.007144547161
   56        177.188590000000         0.017676834067
   57         73.763945000000         0.037176980591
   58         30.897007000000         0.041325930688
   59         12.999482000000        -0.045212832406
   60          5.487679300000        -0.217800818715
   61          2.322571600000        -0.348923210927
   62          0.984980700000         0.992689914450
   63          0.418397300000         0.001396734764
   64          0.177959400000        -0.620030949781
   65          0.071183800000        -0.024021920936
   66     455476.770000000019         0.000015747723
   67      64817.743000000002         0.000047603805
   68      19256.987000000001         0.000118010039
   69       6877.007300000000         0.000245705701
   70       2643.487700000000         0.000958787348
   71       1054.237500000000         0.001740300323
   72        429.371220000000         0.007640074142
   73        177.188590000000         0.011576431420
   74         73.763945000000         0.043944133878
   75         30.897007000000         0.009487173911
   76         12.999482000000         0.011845286447
   77          5.487679300000        -0.421628767659
   78          2.322571600000         0.222300108706
   79          0.984980700000         0.900409492637
   80          0.418397300000        -1.428573312922
   81          0.177959400000         0.670170851790
   82          0.071183800000         0.079265549409
   83     455476.770000000019         0.000010768823
   84      64817.743000000002         0.000031395093
   85      19256.987000000001         0.000086318277
   86       6877.007300000000         0.000141493002
   87       2643.487700000000         0.000742326977
   88       1054.237500000000         0.000914852343
   89        429.371220000000         0.006045418186
   90        177.188590000000         0.005901725122
   91         73.763945000000         0.037479176878
   92         30.897007000000        -0.010526916372
   93         12.999482000000         0.030045719745
   94          5.487679300000        -0.464447528086
   95          2.322571600000         0.896635936827
   96          0.984980700000        -0.750110934644
   97          0.418397300000         0.157148491638
   98          0.177959400000         0.337768619108
   99          0.071183800000        -0.297904563524
 S 96
    1     455476.770000000019         0.000000001427
    2      64817.743000000002         0.000000004514
    3      19256.987000000001         0.000000009684
    4       6877.007300000000         0.000000026608
    5       2643.487700000000         0.000000070986
    6       1054.237500000000         0.000000196549
    7        429.371220000000         0.000000510751
    8        177.188590000000         0.000001136219
    9         73.763945000000         0.000001778110
   10         30.897007000000         0.000001244747
   11         12.999482000000         0.000000171062
   12     455476.770000000019         0.000003449935
   13      64817.743000000002         0.000010926113
   14      19256.987000000001         0.000023505013
   15       6877.007300000000         0.000064796431
   16       2643.487700000000         0.000174559988
   17       1054.237500000000         0.000492137543
   18        429.371220000000         0.001339542978
   19        177.188590000000         0.003300696124
   20         73.763945000000         0.006586157580
   21         30.897007000000         0.007003074634
   22         12.999482000000        -0.005160348895
   23          5.487679300000        -0.023921838366
   24          2.322571600000        -0.014398876073
   25          0.984980700000        -0.000187517691
   26          0.418397300000        -0.000442176246
   27          0.177959400000         0.000167951854
   28          0.071183800000        -0.000048670351
   29     455476.770000000019         0.000018845871
   30      64817.743000000002         0.000059634048
   31      19256.987000000001         0.000128759478
   32       6877.007300000000         0.000352856511
   33       2643.487700000000         0.000959698784
   34       1054.237500000000         0.002683349613
   35        429.371220000000         0.007417066149
   36        177.188590000000         0.018249570025
   37         73.763945000000         0.037909640423
   38         30.897007000000         0.041167785853
   39         12.999482000000        -0.031780540629
   40          5.487679300000        -0.215176312137
   41          2.322571600000        -0.227834538324
   42          0.984980700000         0.223572281475
   43          0.418397300000         0.443998827830
   44          0.177959400000         0.166844037835
   45          0.071183800000         0.002959936080
   46     455476.770000000019        -0.000015171170
   47      64817.743000000002        -0.000047993157
   48      19256.987000000001        -0.000103700769
   49       6877.007300000000        -0.000284043943
   50       2643.487700000000        -0.000773156423
   51       1054.237500000000        -0.002164011436
   52        429.371220000000        -0.005992065597
   53        177.188590000000        -0.014825397172
   54         73.763945000000        -0.031179989631
   55         30.897007000000        -0.034659675689
   56         12.999482000000         0.037919584195
   57          5.487679300000         0.182667531393
   58          2.322571600000         0.292638668494
   59          0.984980700000        -0.832559846105
   60          0.418397300000        -0.001171428523
   61          0.177959400000         0.520014220569
   62          0.071183800000         0.020146962820
   63     455476.770000000019        -0.000025585155
   64      64817.743000000002        -0.000077341386
   65      19256.987000000001        -0.000191729630
   66       6877.007300000000        -0.000399195385
   67       2643.487700000000        -0.001557731396
   68       1054.237500000000        -0.002827447044
   69        429.371220000000        -0.012412745529
   70        177.188590000000        -0.018808102472
   71         73.763945000000        -0.071395557319
   72         30.897007000000        -0.015413708474
   73         12.999482000000        -0.019244908315
   74          5.487679300000         0.685015682243
   75          2.322571600000        -0.361168573657
   76          0.984980700000        -1.462885529187
   77          0.418397300000         2.320987555046
   78          0.177959400000        -1.088819308530
   79          0.071183800000        -0.128781877736
   80     455476.770000000019        -0.000015036004
   81      64817.743000000002        -0.000043835500
   82      19256.987000000001        -0.000120522175
   83       6877.007300000000        -0.000197560064
   84       2643.487700000000        -0.001036476456
   85       1054.237500000000        -0.001277365560
   86        429.371220000000        -0.008440934807
   87        177.188590000000        -0.008240302898
   88         73.763945000000        -0.052330422627
   89         30.897007000000         0.014698241226
   90         12.999482000000        -0.041951433926
   91          5.487679300000         0.648486371833
   92          2.322571600000        -1.251930843348
   93          0.984980700000         1.047344832439
   94          0.418397300000        -0.219419092618
   95          0.177959400000        -0.471610533114
   96          0.071183800000         0.415950215837
 S 97
    1     455476.770000000019         0.000000015900
    2      64817.743000000002         0.000000050286
    3      19256.987000000001         0.000000107879
    4       6877.007300000000         0.000000296410
    5       2643.487700000000         0.000000790770
    6       1054.237500000000         0.000002189508
    7        429.371220000000         0.000005689654
    8        177.188590000000         0.000012657226
    9         73.763945000000         0.000019807753
   10         30.897007000000         0.000013866203
   11         12.999482000000         0.000001905595
   12          5.487679300000         0.000000155022
   13     455476.770000000019        -0.000002018700
   14      64817.743000000002        -0.000006393321
   15      19256.987000000001        -0.000013753757
   16       6877.007300000000        -0.000037915078
   17       2643.487700000000        -0.000102142285
   18       1054.237500000000        -0.000287970077
   19        429.371220000000        -0.000783822126
   20        177.188590000000        -0.001931374130
   21         73.763945000000        -0.003853833824
   22         30.897007000000        -0.004097789276
   23         12.999482000000         0.003019534057
   24          5.487679300000         0.013997659291
   25          2.322571600000         0.008425379286
   26          0.984980700000         0.000109724375
   27          0.418397300000         0.000258735652
   28          0.177959400000        -0.000098275592
   29          0.071183800000         0.000028479040
   30     455476.770000000019         0.000004334516
   31      64817.743000000002         0.000013715723
   32      19256.987000000001         0.000029614448
   33       6877.007300000000         0.000081156361
   34       2643.487700000000         0.000220728988
   35       1054.237500000000         0.000617165568
   36        429.371220000000         0.001705911829
   37        177.188590000000         0.004197368171
   38         73.763945000000         0.008719148883
   39         30.897007000000         0.009468516452
   40         12.999482000000        -0.007309466991
   41          5.487679300000        -0.049490163469
   42          2.322571600000        -0.052401532648
   43          0.984980700000         0.051421221265
   44          0.418397300000         0.102118929129
   45          0.177959400000         0.038373827603
   46          0.071183800000         0.000680779957
   47     455476.770000000019        -0.000024388475
   48      64817.743000000002        -0.000077151592
   49      19256.987000000001        -0.000166704588
   50       6877.007300000000        -0.000456615983
   51       2643.487700000000        -0.001242890717
   52       1054.237500000000        -0.003478765285
   53        429.371220000000        -0.009632569145
   54        177.188590000000        -0.023832626837
   55         73.763945000000        -0.050123517706
   56         30.897007000000        -0.055717301019
   57         12.999482000000         0.060957780046
   58          5.487679300000         0.293647924593
   59          2.322571600000         0.470432468232
   60          0.984980700000        -1.338384928314
   61          0.418397300000        -0.001883134632
   62          0.177959400000         0.835950951244
   63          0.071183800000         0.032387331092
   64     455476.770000000019         0.000026254685
   65      64817.743000000002         0.000079365308
   66      19256.987000000001         0.000196746942
   67       6877.007300000000         0.000409641804
   68       2643.487700000000         0.001598495181
   69       1054.237500000000         0.002901437619
   70        429.371220000000         0.012737570773
   71        177.188590000000         0.019300285805
   72         73.763945000000         0.073263885261
   73         30.897007000000         0.015817064976
   74         12.999482000000         0.019748522283
   75          5.487679300000        -0.702941642737
   76          2.322571600000         0.370619880760
   77          0.984980700000         1.501167321681
   78          0.418397300000        -2.381724750261
   79          0.177959400000         1.117312279443
   80          0.071183800000         0.132151930295
   81     455476.770000000019         0.000022012308
   82      64817.743000000002         0.000064174000
   83      19256.987000000001         0.000176441241
   84       6877.007300000000         0.000289222649
   85       2643.487700000000         0.001517373805
   86       1054.237500000000         0.001870029010
   87        429.371220000000         0.012357302760
   88        177.188590000000         0.012063583013
   89         73.763945000000         0.076610338871
   90         30.897007000000        -0.021517831972
   91         12.999482000000         0.061415777055
   92          5.487679300000        -0.949366701159
   93          2.322571600000         1.832793265138
   94          0.984980700000        -1.533284817904
   95          0.418397300000         0.321223682067
   96          0.177959400000         0.690425204757
   97          0.071183800000        -0.608939989192
 S 98
    1     455476.770000000019         0.000000038516
    2      64817.743000000002         0.000000121816
    3      19256.987000000001         0.000000261331
    4       6877.007300000000         0.000000718038
    5       2643.487700000000         0.000001915602
    6       1054.237500000000         0.000005303979
    7        429.371220000000         0.000013782916
    8        177.188590000000         0.000030661531
    9         73.763945000000         0.000047983344
   10         30.897007000000         0.000033590219
   11         12.999482000000         0.000004616213
   12          5.487679300000         0.000000375533
   13          2.322571600000        -0.000000166737
   14     455476.770000000019        -0.000001744671
   15      64817.743000000002        -0.000005525457
   16      19256.987000000001        -0.000011886748
   17       6877.007300000000        -0.000032768281
   18       2643.487700000000        -0.000088276941
   19       1054.237500000000        -0.000248879466
   20        429.371220000000        -0.000677421884
   21        177.188590000000        -0.001669198989
   22         73.763945000000        -0.003330693636
   23         30.897007000000        -0.003541533259
   24         12.999482000000         0.002609646219
   25          5.487679300000         0.012097541526
   26          2.322571600000         0.007281672861
   27          0.984980700000         0.000094829796
   28          0.418397300000         0.000223613479
   29          0.177959400000        -0.000084935133
   30          0.071183800000         0.000024613141
   31     455476.770000000019        -0.000001014342
   32      64817.743000000002        -0.000003209684
   33      19256.987000000001        -0.000006930223
   34       6877.007300000000        -0.000018991800
   35       2643.487700000000        -0.000051653879
   36       1054.237500000000        -0.000144425959
   37        429.371220000000        -0.000399208842
   38        177.188590000000        -0.000982246830
   39         73.763945000000        -0.002040411039
   40         30.897007000000        -0.002215774240
   41         12.999482000000         0.001710524426
   42          5.487679300000         0.011581437271
   43          2.322571600000         0.012262741134
   44          0.984980700000        -0.012033333631
   45          0.418397300000        -0.023897354323
   46          0.177959400000        -0.008980048682
   47          0.071183800000        -0.000159312676
   48     455476.770000000019         0.000001984159
   49      64817.743000000002         0.000006276777
   50      19256.987000000001         0.000013562488
   51       6877.007300000000         0.000037148639
   52       2643.487700000000         0.000101117132
   53       1054.237500000000         0.000283019869
   54        429.371220000000         0.000783671284
   55        177.188590000000         0.001938937057
   56         73.763945000000         0.004077869661
   57         30.897007000000         0.004532959813
   58         12.999482000000        -0.004959306395
   59          5.487679300000        -0.023890142146
   60          2.322571600000        -0.038272698680
   61          0.984980700000         0.108886198421
   62          0.418397300000         0.000153205081
   63          0.177959400000        -0.068009971737
   64          0.071183800000        -0.002634917119
   65     455476.770000000019        -0.000022277832
   66      64817.743000000002        -0.000067343675
   67      19256.987000000001        -0.000166945261
   68       6877.007300000000        -0.000347592482
   69       2643.487700000000        -0.001356367690
   70       1054.237500000000        -0.002461950645
   71        429.371220000000        -0.010808183632
   72        177.188590000000        -0.016376830155
   73         73.763945000000        -0.062166447561
   74         30.897007000000        -0.013421220249
   75         12.999482000000        -0.016757171293
   76          5.487679300000         0.596465565751
   77          2.322571600000        -0.314481293205
   78          0.984980700000        -1.273782290557
   79          0.418397300000         2.020959798449
   80          0.177959400000        -0.948070594144
   81          0.071183800000        -0.112134594220
   82     455476.770000000019         0.000051468940
   83      64817.743000000002         0.000150050951
   84      19256.987000000001         0.000412552997
   85       6877.007300000000         0.000676257264
   86       2643.487700000000         0.003547906993
   87       1054.237500000000         0.004372481572
   88        429.371220000000         0.028893711434
   89        177.188590000000         0.028206939104
   90         73.763945000000         0.179129464355
   91         30.897007000000        -0.050312761594
   92         12.999482000000         0.143601704534
   93          5.487679300000        -2.219798935254
   94          2.322571600000         4.285417356146
   95          0.984980700000        -3.585109949683
   96          0.418397300000         0.751081733285
   97          0.177959400000         1.614344733727
   98          0.071183800000        -1.423816885501
 P 60
    1       1462.496200000000         0.000940274139
    2        354.067310000000         0.006067656602
    3        126.697790000000         0.025181170838
    4         49.989095000000         0.090900368631
    5         20.509295000000         0.238459236850
    6          8.580464100000         0.406972945093
    7          3.630104900000         0.336418744448
    8          1.546528000000         0.071286572125
    9          0.661936900000         0.003435242915
   10          0.284242800000         0.000283854684
   11          0.122346300000         0.000465390679
   12          0.048938500000        -0.000083548205
   13       1462.496200000000         0.000029618108
   14        354.067310000000         0.000191915929
   15        126.697790000000         0.000803180302
   16         49.989095000000         0.002961634613
   17         20.509295000000         0.008025889501
   18          8.580464100000         0.014393416384
   19          3.630104900000         0.011897573325
   20          1.546528000000        -0.017470339392
   21          0.661936900000        -0.048223798658
   22          0.284242800000        -0.044236121500
   23          0.122346300000        -0.015823209562
   24          0.048938500000        -0.000729658361
   25       1462.496200000000         0.000035156176
   26        354.067310000000         0.000213838254
   27        126.697790000000         0.000973285054
   28         49.989095000000         0.003311904719
   29         20.509295000000         0.010051386680
   30          8.580464100000         0.015029598736
   31          3.630104900000         0.018340504236
   32          1.546528000000        -0.047039190193
   33          0.661936900000        -0.076873787616
   34          0.284242800000         0.053335314293
   35          0.122346300000         0.063184170781
   36          0.048938500000         0.006503265589
   37       1462.496200000000         0.000055366315
   38        354.067310000000         0.000324229188
   39        126.697790000000         0.001568511942
   40         49.989095000000         0.005098925219
   41         20.509295000000         0.017187454871
   42          8.580464100000         0.020280673506
   43          3.630104900000         0.027623203050
   44          1.546528000000        -0.163110131536
   45          0.661936900000         0.079370618597
   46          0.284242800000         0.121538464227
   47          0.122346300000        -0.120345008264
   48          0.048938500000        -0.012857938722
   49       1462.496200000000         0.000055268488
   50        354.067310000000         0.000575894127
   51        126.697790000000         0.001347203093
   52         49.989095000000         0.009713855806
   53         20.509295000000         0.015353208888
   54          8.580464100000         0.049660057047
   55          3.630104900000        -0.070490665156
   56          1.546528000000        -0.106271840768
   57          0.661936900000         0.284783915707
   58          0.284242800000        -0.281117084995
   59          0.122346300000         0.115718283247
   60          0.048938500000         0.018799226460
 P 60
    1       1462.496200000000        -0.000197313171
    2        354.067310000000        -0.001273276074
    3        126.697790000000        -0.005284178794
    4         49.989095000000        -0.019075117809
    5         20.509295000000        -0.050039819465
    6          8.580464100000        -0.085401819483
    7          3.630104900000        -0.070596272382
    8          1.546528000000        -0.014959232641
    9          0.661936900000        -0.000720873461
   10          0.284242800000        -0.000059565892
   11          0.122346300000        -0.000097660572
   12          0.048938500000         0.000017532292
   13       1462.496200000000         0.000171217435
   14        354.067310000000         0.001109434562
   15        126.697790000000         0.004643053806
   16         49.989095000000         0.017120724728
   17         20.509295000000         0.046396352962
   18          8.580464100000         0.083205983187
   19          3.630104900000         0.068777923163
   20          1.546528000000        -0.100993171253
   21          0.661936900000        -0.278773883378
   22          0.284242800000        -0.255721774714
   23          0.122346300000        -0.091471383420
   24          0.048938500000        -0.004218035502
   25       1462.496200000000         0.000179764731
   26        354.067310000000         0.001093423134
   27        126.697790000000         0.004976716624
   28         49.989095000000         0.016934824179
   29         20.509295000000         0.051395943003
   30          8.580464100000         0.076851127572
   31          3.630104900000         0.093780842423
   32          1.546528000000        -0.240526368663
   33          0.661936900000        -0.393080172186
   34          0.284242800000         0.272720457464
   35          0.122346300000         0.323080799064
   36          0.048938500000         0.033253269246
   37       1462.496200000000         0.000226061433
   38        354.067310000000         0.001323832284
   39        126.697790000000         0.006404256066
   40         49.989095000000         0.020818982560
   41         20.509295000000         0.070176617196
   42          8.580464100000         0.082806271889
   43          3.630104900000         0.112785922098
   44          1.546528000000        -0.665980934778
   45          0.661936900000         0.324071339220
   46          0.284242800000         0.496243239185
   47          0.122346300000        -0.491370341897
   48          0.048938500000        -0.052499142567
   49       1462.496200000000         0.000161913621
   50        354.067310000000         0.001687129634
   51        126.697790000000         0.003946743251
   52         49.989095000000         0.028457546630
   53         20.509295000000         0.044978499434
   54          8.580464100000         0.145483257866
   55          3.630104900000        -0.206508252828
   56          1.546528000000        -0.311332175872
   57          0.661936900000         0.834298112181
   58          0.284242800000        -0.823555827338
   59          0.122346300000         0.339006312974
   60          0.048938500000         0.055073893859
 P 60
    1       1462.496200000000        -0.000037777703
    2        354.067310000000        -0.000243782232
    3        126.697790000000        -0.001011712171
    4         49.989095000000        -0.003652133964
    5         20.509295000000        -0.009580655074
    6          8.580464100000        -0.016351085673
    7          3.630104900000        -0.013516406382
    8          1.546528000000        -0.002864104020
    9          0.661936900000        -0.000138018883
   10          0.284242800000        -0.000011404523
   11          0.122346300000        -0.000018698154
   12          0.048938500000         0.000003356744
   13       1462.496200000000        -0.000195365450
   14        354.067310000000        -0.001265906022
   15        126.697790000000        -0.005297896763
   16         49.989095000000        -0.019535382513
   17         20.509295000000        -0.052939961174
   18          8.580464100000        -0.094941115801
   19          3.630104900000        -0.078478163678
   20          1.546528000000         0.115236957725
   21          0.661936900000         0.318091350290
   22          0.284242800000         0.291788038504
   23          0.122346300000         0.104372244316
   24          0.048938500000         0.004812935101
   25       1462.496200000000         0.000039932345
   26        354.067310000000         0.000242889410
   27        126.697790000000         0.001105511422
   28         49.989095000000         0.003761846008
   29         20.509295000000         0.011416925322
   30          8.580464100000         0.017071456095
   31          3.630104900000         0.020832167133
   32          1.546528000000        -0.053429734500
   33          0.661936900000        -0.087317533432
   34          0.284242800000         0.060581223240
   35          0.122346300000         0.071768103481
   36          0.048938500000         0.007386771592
   37       1462.496200000000         0.000273835933
   38        354.067310000000         0.001603603246
   39        126.697790000000         0.007757694040
   40         49.989095000000         0.025218744419
   41         20.509295000000         0.085007332525
   42          8.580464100000         0.100306064482
   43          3.630104900000         0.136621438408
   44          1.546528000000        -0.806725445596
   45          0.661936900000         0.392558678311
   46          0.284242800000         0.601116379388
   47          0.122346300000        -0.595213672522
   48          0.048938500000        -0.063594003926
   49       1462.496200000000         0.000242991360
   50        354.067310000000         0.002531954509
   51        126.697790000000         0.005923062561
   52         49.989095000000         0.042707573893
   53         20.509295000000         0.067501342021
   54          8.580464100000         0.218333543161
   55          3.630104900000        -0.309916613041
   56          1.546528000000        -0.467230786932
   57          0.661936900000         1.252070276383
   58          0.284242800000        -1.235948826081
   59          0.122346300000         0.508762661431
   60          0.048938500000         0.082651973556
 P 59
    1       1462.496200000000        -0.000020852888
    2        354.067310000000        -0.000134565187
    3        126.697790000000        -0.000558454307
    4         49.989095000000        -0.002015938921
    5         20.509295000000        -0.005288419220
    6          8.580464100000        -0.009025624560
    7          3.630104900000        -0.007460911884
    8          1.546528000000        -0.001580954813
    9          0.661936900000        -0.000076184948
   10          0.284242800000        -0.000006295175
   11          0.122346300000        -0.000010321181
   12       1462.496200000000         0.000083363556
   13        354.067310000000         0.000540169349
   14        126.697790000000         0.002260642886
   15         49.989095000000         0.008335859584
   16         20.509295000000         0.022589784583
   17          8.580464100000         0.040511917774
   18          3.630104900000         0.033487081831
   19          1.546528000000        -0.049172269743
   20          0.661936900000        -0.135731400655
   21          0.284242800000        -0.124507626895
   22          0.122346300000        -0.044536234316
   23          0.048938500000        -0.002053706968
   24       1462.496200000000        -0.000252124883
   25        354.067310000000        -0.001533555427
   26        126.697790000000        -0.006979979250
   27         49.989095000000        -0.023751547516
   28         20.509295000000        -0.072084195824
   29          8.580464100000        -0.107785778516
   30          3.630104900000        -0.131530160062
   31          1.546528000000         0.337344717235
   32          0.661936900000         0.551305539903
   33          0.284242800000        -0.382497794811
   34          0.122346300000        -0.453129531744
   35          0.048938500000        -0.046638606708
   36       1462.496200000000         0.000051132685
   37        354.067310000000         0.000299436742
   38        126.697790000000         0.001448574412
   39         49.989095000000         0.004709031792
   40         20.509295000000         0.015873202279
   41          8.580464100000         0.018729895457
   42          3.630104900000         0.025510972560
   43          1.546528000000        -0.150637783835
   44          0.661936900000         0.073301480261
   45          0.284242800000         0.112244927580
   46          0.122346300000        -0.111142730190
   47          0.048938500000        -0.011874746072
   48       1462.496200000000         0.000326142429
   49        354.067310000000         0.003398383362
   50        126.697790000000         0.007949920582
   51         49.989095000000         0.057322004828
   52         20.509295000000         0.090600141862
   53          8.580464100000         0.293046766055
   54          3.630104900000        -0.415969346182
   55          1.546528000000        -0.627116058895
   56          0.661936900000         1.680525768305
   57          0.284242800000        -1.658887595779
   58          0.122346300000         0.682860042774
   59          0.048938500000         0.110935283731
 P 59
    1       1462.496200000000        -0.000011404221
    2        354.067310000000        -0.000073592256
    3        126.697790000000        -0.000305412666
    4         49.989095000000        -0.001102495358
    5         20.509295000000        -0.002892179710
    6          8.580464100000        -0.004936017198
    7          3.630104900000        -0.004080292630
    8          1.546528000000        -0.000864607218
    9          0.661936900000        -0.000041664731
   10          0.284242800000        -0.000003442763
   11          0.122346300000        -0.000005644543
   12       1462.496200000000        -0.000025624236
   13        354.067310000000        -0.000166036902
   14        126.697790000000        -0.000694874937
   15         49.989095000000        -0.002562271087
   16         20.509295000000        -0.006943633266
   17          8.580464100000        -0.012452526888
   18          3.630104900000        -0.010293237393
   19          1.546528000000         0.015114540233
   20          0.661936900000         0.041721029492
   21          0.284242800000         0.038271073227
   22          0.122346300000         0.013689518685
   23          0.048938500000         0.000631267110
   24       1462.496200000000         0.000117103485
   25        354.067310000000         0.000712284655
   26        126.697790000000         0.003241964409
   27         49.989095000000         0.011031790922
   28         20.509295000000         0.033480672219
   29          8.580464100000         0.050062850520
   30          3.630104900000         0.061091313090
   31          1.546528000000        -0.156685217521
   32          0.661936900000        -0.256062786897
   33          0.284242800000         0.177657295696
   34          0.122346300000         0.210463349859
   35          0.048938500000         0.021662056240
   36       1462.496200000000        -0.000346936111
   37        354.067310000000        -0.002031683238
   38        126.697790000000        -0.009828601296
   39         49.989095000000        -0.031950858438
   40         20.509295000000        -0.107699939477
   41          8.580464100000        -0.127082649849
   42          3.630104900000        -0.173092369925
   43          1.546528000000         1.022079849871
   44          0.661936900000        -0.497351753542
   45          0.284242800000        -0.761583686438
   46          0.122346300000         0.754105258950
   47          0.048938500000         0.080570348115
   48       1462.496200000000         0.000354182618
   49        354.067310000000         0.003690560341
   50        126.697790000000         0.008633417271
   51         49.989095000000         0.062250280536
   52         20.509295000000         0.098389514888
   53          8.580464100000         0.318241545313
   54          3.630104900000        -0.451732429311
   55          1.546528000000        -0.681032540847
   56          0.661936900000         1.825009450347
   57          0.284242800000        -1.801510929769
   58          0.122346300000         0.741569129632
   59          0.048938500000         0.120472976377
 D 15
    1          4.328841700000         0.021682204345
    2          1.774230200000         0.150648546149
    3          0.727190600000         0.468284581697
    4          0.298048200000         0.237225955853
    5          0.119219300000         0.022393205399
    6          4.328841700000        -0.071900485625
    7          1.774230200000         0.399135795119
    8          0.727190600000         0.176565729275
    9          0.298048200000        -0.519649673434
   10          0.119219300000        -0.037333764057
   11          4.328841700000        -0.051304767587
   12          1.774230200000         0.478181309518
   13          0.727190600000        -0.580728755520
   14          0.298048200000         0.225958903900
   15          0.119219300000         0.116365870565
 D 15
    1          4.328841700000        -0.017358979082
    2          1.774230200000        -0.120610659309
    3          0.727190600000        -0.374913091340
    4          0.298048200000        -0.189925357210
    5          0.119219300000        -0.017928213290
    6          4.328841700000        -0.078581028442
    7          1.774230200000         0.436220993440
    8          0.727190600000         0.192971111019
    9          0.298048200000        -0.567932266557
   10          0.119219300000        -0.040802583594
   11          4.328841700000        -0.082708723113
   12          1.774230200000         0.770878953110
   13          0.727190600000        -0.936196305011
   14          0.298048200000         0.364269702343
   15          0.119219300000         0.187594116903
 D 15
    1          4.328841700000         0.002486899319
    2          1.774230200000         0.017279044181
    3          0.727190600000         0.053711172018
    4          0.298048200000         0.027209275342
    5          0.119219300000         0.002568449516
    6          4.328841700000         0.078360473246
    7          1.774230200000        -0.434996641858
    8          0.727190600000        -0.192429494525
    9          0.298048200000         0.566338237889
   10          0.119219300000         0.040688062036
   11          4.328841700000        -0.130016752027
   12          1.774230200000         1.211809031940
   13          0.727190600000        -1.471685189359
   14          0.298048200000         0.572625979189
   15          0.119219300000         0.294894865510
 F 8
    1          1.631174000000         0.223503966377
    2          0.820328800000         0.528920138268
    3          0.412549100000         0.240629257488
    4          0.165019600000         0.035458793392
    5          1.631174000000         0.355557894666
    6          0.820328800000         0.016557929051
    7          0.412549100000        -0.341172510465
    8          0.165019600000        -0.042809590780
 F 8
    1          1.631174000000        -0.101351025881
    2          0.820328800000        -0.239846296652
    3          0.412549100000        -0.109116730672
    4          0.165019600000        -0.016079289979
    5          1.631174000000         0.784092701195
    6          0.820328800000         0.036514310358
    7          0.412549100000        -0.752369387143
    8          0.165019600000        -0.094405688005
 end
  // -----------------------------------------------
  // The basis set
  // -----------------------------------------------
  BAS[ATNO] = new BFNGauss[NSH];
  // Basis function   1 L = s
  InitBFNGauss(BAS[ATNO][  0]);
  BAS[ATNO][  0].l  = 0;
  BAS[ATNO][  0].ng = 102;
  BAS[ATNO][  0].a[  0] =    455476.770000000019;     BAS[ATNO][  0].d[  0] =         0.000319856850;
  BAS[ATNO][  0].a[  1] =     64817.743000000002;     BAS[ATNO][  0].d[  1] =         0.001011610038;
  BAS[ATNO][  0].a[  2] =     19256.987000000001;     BAS[ATNO][  0].d[  2] =         0.002170198629;
  BAS[ATNO][  0].a[  3] =      6877.007300000000;     BAS[ATNO][  0].d[  3] =         0.005962891279;
  BAS[ATNO][  0].a[  4] =      2643.487700000000;     BAS[ATNO][  0].d[  4] =         0.015907963343;
  BAS[ATNO][  0].a[  5] =      1054.237500000000;     BAS[ATNO][  0].d[  5] =         0.044046456243;
  BAS[ATNO][  0].a[  6] =       429.371220000000;     BAS[ATNO][  0].d[  6] =         0.114459092840;
  BAS[ATNO][  0].a[  7] =       177.188590000000;     BAS[ATNO][  0].d[  7] =         0.254626162516;
  BAS[ATNO][  0].a[  8] =        73.763945000000;     BAS[ATNO][  0].d[  8] =         0.398473735947;
  BAS[ATNO][  0].a[  9] =        30.897007000000;     BAS[ATNO][  0].d[  9] =         0.278947213009;
  BAS[ATNO][  0].a[ 10] =        12.999482000000;     BAS[ATNO][  0].d[ 10] =         0.038334962488;
  BAS[ATNO][  0].a[ 11] =         5.487679300000;     BAS[ATNO][  0].d[ 11] =         0.003118579289;
  BAS[ATNO][  0].a[ 12] =         2.322571600000;     BAS[ATNO][  0].d[ 12] =        -0.001384656364;
  BAS[ATNO][  0].a[ 13] =         0.984980700000;     BAS[ATNO][  0].d[ 13] =         0.001002730125;
  BAS[ATNO][  0].a[ 14] =         0.418397300000;     BAS[ATNO][  0].d[ 14] =        -0.000643173666;
  BAS[ATNO][  0].a[ 15] =         0.177959400000;     BAS[ATNO][  0].d[ 15] =         0.000282017223;
  BAS[ATNO][  0].a[ 16] =         0.071183800000;     BAS[ATNO][  0].d[ 16] =        -0.000076279249;
  BAS[ATNO][  0].a[ 17] =    455476.770000000019;     BAS[ATNO][  0].d[ 17] =         0.000000393010;
[...]
  BAS[ATNO][  9].a[ 26] =        49.989095000000;     BAS[ATNO][  9].d[ 26] =        -0.023751547516;
  BAS[ATNO][  9].a[ 27] =        20.509295000000;     BAS[ATNO][  9].d[ 27] =        -0.072084195824;
  BAS[ATNO][  9].a[ 28] =         8.580464100000;     BAS[ATNO][  9].d[ 28] =        -0.107785778516;
  BAS[ATNO][  9].a[ 29] =         3.630104900000;     BAS[ATNO][  9].d[ 29] =        -0.131530160062;
  BAS[ATNO][  9].a[ 30] =         1.546528000000;     BAS[ATNO][  9].d[ 30] =         0.337344717235;
  BAS[ATNO][  9].a[ 31] =         0.661936900000;     BAS[ATNO][  9].d[ 31] =         0.551305539903;
  BAS[ATNO][  9].a[ 32] =         0.284242800000;     BAS[ATNO][  9].d[ 32] =        -0.382497794811;
  BAS[ATNO][  9].a[ 33] =         0.122346300000;     BAS[ATNO][  9].d[ 33] =        -0.453129531744;
  BAS[ATNO][  9].a[ 34] =         0.048938500000;     BAS[ATNO][  9].d[ 34] =        -0.046638606708;
  BAS[ATNO][  9].a[ 35] =      1462.496200000000;     BAS[ATNO][  9].d[ 35] =         0.000051132685;
  BAS[ATNO][  9].a[ 36] =       354.067310000000;     BAS[ATNO][  9].d[ 36] =         0.000299436742;
  BAS[ATNO][  9].a[ 37] =       126.697790000000;     BAS[ATNO][  9].d[ 37] =         0.001448574412;
  BAS[ATNO][  9].a[ 38] =        49.989095000000;     BAS[ATNO][  9].d[ 38] =         0.004709031792;
  BAS[ATNO][  9].a[ 39] =        20.509295000000;     BAS[ATNO][  9].d[ 39] =         0.015873202279;
  BAS[ATNO][  9].a[ 40] =         8.580464100000;     BAS[ATNO][  9].d[ 40] =         0.018729895457;
  BAS[ATNO][  9].a[ 41] =         3.630104900000;     BAS[ATNO][  9].d[ 41] =         0.025510972560;
  BAS[ATNO][  9].a[ 42] =         1.546528000000;     BAS[ATNO][  9].d[ 42] =        -0.150637783835;
  BAS[ATNO][  9].a[ 43] =         0.661936900000;     BAS[ATNO][  9].d[ 43] =         0.073301480261;
  BAS[ATNO][  9].a[ 44] =         0.284242800000;     BAS[ATNO][  9].d[ 44] =         0.112244927580;
  BAS[ATNO][  9].a[ 45] =         0.122346300000;     BAS[ATNO][  9].d[ 45] =        -0.111142730190;
  BAS[ATNO][  9].a[ 46] =         0.048938500000;     BAS[ATNO][  9].d[ 46] =        -0.011874746072;
  BAS[ATNO][  9].a[ 47] =      1462.496200000000;     BAS[ATNO][  9].d[ 47] =         0.000326142429;
  BAS[ATNO][  9].a[ 48] =       354.067310000000;     BAS[ATNO][  9].d[ 48] =         0.003398383362;
  BAS[ATNO][  9].a[ 49] =       126.697790000000;     BAS[ATNO][  9].d[ 49] =         0.007949920582;
  BAS[ATNO][  9].a[ 50] =        49.989095000000;     BAS[ATNO][  9].d[ 50] =         0.057322004828;
  BAS[ATNO][  9].a[ 51] =        20.509295000000;     BAS[ATNO][  9].d[ 51] =         0.090600141862;
  BAS[ATNO][  9].a[ 52] =         8.580464100000;     BAS[ATNO][  9].d[ 52] =         0.293046766055;
  BAS[ATNO][  9].a[ 53] =         3.630104900000;     BAS[ATNO][  9].d[ 53] =        -0.415969346182;
  BAS[ATNO][  9].a[ 54] =         1.546528000000;     BAS[ATNO][  9].d[ 54] =        -0.627116058895;
  BAS[ATNO][  9].a[ 55] =         0.661936900000;     BAS[ATNO][  9].d[ 55] =         1.680525768305;
  BAS[ATNO][  9].a[ 56] =         0.284242800000;     BAS[ATNO][  9].d[ 56] =        -1.658887595779;
  BAS[ATNO][  9].a[ 57] =         0.122346300000;     BAS[ATNO][  9].d[ 57] =         0.682860042774;
  BAS[ATNO][  9].a[ 58] =         0.048938500000;     BAS[ATNO][  9].d[ 58] =         0.110935283731;

  // Basis function  11 L = p
  InitBFNGauss(BAS[ATNO][ 10]);
  BAS[ATNO][ 10].l  = 1;
  BAS[ATNO][ 10].ng = 59;
  BAS[ATNO][ 10].a[  0] =      1462.496200000000;     BAS[ATNO][ 10].d[  0] =        -0.000011404221;
  BAS[ATNO][ 10].a[  1] =       354.067310000000;     BAS[ATNO][ 10].d[  1] =        -0.000073592256;
  BAS[ATNO][ 10].a[  2] =       126.697790000000;     BAS[ATNO][ 10].d[  2] =        -0.000305412666;
  BAS[ATNO][ 10].a[  3] =        49.989095000000;     BAS[ATNO][ 10].d[  3] =        -0.001102495358;
  BAS[ATNO][ 10].a[  4] =        20.509295000000;     BAS[ATNO][ 10].d[  4] =        -0.002892179710;
  BAS[ATNO][ 10].a[  5] =         8.580464100000;     BAS[ATNO][ 10].d[  5] =        -0.004936017198;
  BAS[ATNO][ 10].a[  6] =         3.630104900000;     BAS[ATNO][ 10].d[  6] =        -0.004080292630;
  BAS[ATNO][ 10].a[  7] =         1.546528000000;     BAS[ATNO][ 10].d[  7] =        -0.000864607218;
  BAS[ATNO][ 10].a[  8] =         0.661936900000;     BAS[ATNO][ 10].d[  8] =        -0.000041664731;
  BAS[ATNO][ 10].a[  9] =         0.284242800000;     BAS[ATNO][ 10].d[  9] =        -0.000003442763;
  BAS[ATNO][ 10].a[ 10] =         0.122346300000;     BAS[ATNO][ 10].d[ 10] =        -0.000005644543;
  BAS[ATNO][ 10].a[ 11] =      1462.496200000000;     BAS[ATNO][ 10].d[ 11] =        -0.000025624236;
  BAS[ATNO][ 10].a[ 12] =       354.067310000000;     BAS[ATNO][ 10].d[ 12] =        -0.000166036902;
  BAS[ATNO][ 10].a[ 13] =       126.697790000000;     BAS[ATNO][ 10].d[ 13] =        -0.000694874937;
  BAS[ATNO][ 10].a[ 14] =        49.989095000000;     BAS[ATNO][ 10].d[ 14] =        -0.002562271087;
  BAS[ATNO][ 10].a[ 15] =        20.509295000000;     BAS[ATNO][ 10].d[ 15] =        -0.006943633266;
  BAS[ATNO][ 10].a[ 16] =         8.580464100000;     BAS[ATNO][ 10].d[ 16] =        -0.012452526888;
  BAS[ATNO][ 10].a[ 17] =         3.630104900000;     BAS[ATNO][ 10].d[ 17] =        -0.010293237393;
  BAS[ATNO][ 10].a[ 18] =         1.546528000000;     BAS[ATNO][ 10].d[ 18] =         0.015114540233;
  BAS[ATNO][ 10].a[ 19] =         0.661936900000;     BAS[ATNO][ 10].d[ 19] =         0.041721029492;
  BAS[ATNO][ 10].a[ 20] =         0.284242800000;     BAS[ATNO][ 10].d[ 20] =         0.038271073227;
  BAS[ATNO][ 10].a[ 21] =         0.122346300000;     BAS[ATNO][ 10].d[ 21] =         0.013689518685;
  BAS[ATNO][ 10].a[ 22] =         0.048938500000;     BAS[ATNO][ 10].d[ 22] =         0.000631267110;
  BAS[ATNO][ 10].a[ 23] =      1462.496200000000;     BAS[ATNO][ 10].d[ 23] =         0.000117103485;
  BAS[ATNO][ 10].a[ 24] =       354.067310000000;     BAS[ATNO][ 10].d[ 24] =         0.000712284655;
  BAS[ATNO][ 10].a[ 25] =       126.697790000000;     BAS[ATNO][ 10].d[ 25] =         0.003241964409;
  BAS[ATNO][ 10].a[ 26] =        49.989095000000;     BAS[ATNO][ 10].d[ 26] =         0.011031790922;
  BAS[ATNO][ 10].a[ 27] =        20.509295000000;     BAS[ATNO][ 10].d[ 27] =         0.033480672219;
  BAS[ATNO][ 10].a[ 28] =         8.580464100000;     BAS[ATNO][ 10].d[ 28] =         0.050062850520;
  BAS[ATNO][ 10].a[ 29] =         3.630104900000;     BAS[ATNO][ 10].d[ 29] =         0.061091313090;
  BAS[ATNO][ 10].a[ 30] =         1.546528000000;     BAS[ATNO][ 10].d[ 30] =        -0.156685217521;
  BAS[ATNO][ 10].a[ 31] =         0.661936900000;     BAS[ATNO][ 10].d[ 31] =        -0.256062786897;
  BAS[ATNO][ 10].a[ 32] =         0.284242800000;     BAS[ATNO][ 10].d[ 32] =         0.177657295696;
  BAS[ATNO][ 10].a[ 33] =         0.122346300000;     BAS[ATNO][ 10].d[ 33] =         0.210463349859;
  BAS[ATNO][ 10].a[ 34] =         0.048938500000;     BAS[ATNO][ 10].d[ 34] =         0.021662056240;
  BAS[ATNO][ 10].a[ 35] =      1462.496200000000;     BAS[ATNO][ 10].d[ 35] =        -0.000346936111;
  BAS[ATNO][ 10].a[ 36] =       354.067310000000;     BAS[ATNO][ 10].d[ 36] =        -0.002031683238;
  BAS[ATNO][ 10].a[ 37] =       126.697790000000;     BAS[ATNO][ 10].d[ 37] =        -0.009828601296;
  BAS[ATNO][ 10].a[ 38] =        49.989095000000;     BAS[ATNO][ 10].d[ 38] =        -0.031950858438;
  BAS[ATNO][ 10].a[ 39] =        20.509295000000;     BAS[ATNO][ 10].d[ 39] =        -0.107699939477;
  BAS[ATNO][ 10].a[ 40] =         8.580464100000;     BAS[ATNO][ 10].d[ 40] =        -0.127082649849;
  BAS[ATNO][ 10].a[ 41] =         3.630104900000;     BAS[ATNO][ 10].d[ 41] =        -0.173092369925;
  BAS[ATNO][ 10].a[ 42] =         1.546528000000;     BAS[ATNO][ 10].d[ 42] =         1.022079849871;
  BAS[ATNO][ 10].a[ 43] =         0.661936900000;     BAS[ATNO][ 10].d[ 43] =        -0.497351753542;
  BAS[ATNO][ 10].a[ 44] =         0.284242800000;     BAS[ATNO][ 10].d[ 44] =        -0.761583686438;
  BAS[ATNO][ 10].a[ 45] =         0.122346300000;     BAS[ATNO][ 10].d[ 45] =         0.754105258950;
  BAS[ATNO][ 10].a[ 46] =         0.048938500000;     BAS[ATNO][ 10].d[ 46] =         0.080570348115;
  BAS[ATNO][ 10].a[ 47] =      1462.496200000000;     BAS[ATNO][ 10].d[ 47] =         0.000354182618;
  BAS[ATNO][ 10].a[ 48] =       354.067310000000;     BAS[ATNO][ 10].d[ 48] =         0.003690560341;
  BAS[ATNO][ 10].a[ 49] =       126.697790000000;     BAS[ATNO][ 10].d[ 49] =         0.008633417271;
  BAS[ATNO][ 10].a[ 50] =        49.989095000000;     BAS[ATNO][ 10].d[ 50] =         0.062250280536;
  BAS[ATNO][ 10].a[ 51] =        20.509295000000;     BAS[ATNO][ 10].d[ 51] =         0.098389514888;
  BAS[ATNO][ 10].a[ 52] =         8.580464100000;     BAS[ATNO][ 10].d[ 52] =         0.318241545313;
  BAS[ATNO][ 10].a[ 53] =         3.630104900000;     BAS[ATNO][ 10].d[ 53] =        -0.451732429311;
  BAS[ATNO][ 10].a[ 54] =         1.546528000000;     BAS[ATNO][ 10].d[ 54] =        -0.681032540847;
  BAS[ATNO][ 10].a[ 55] =         0.661936900000;     BAS[ATNO][ 10].d[ 55] =         1.825009450347;
  BAS[ATNO][ 10].a[ 56] =         0.284242800000;     BAS[ATNO][ 10].d[ 56] =        -1.801510929769;
  BAS[ATNO][ 10].a[ 57] =         0.122346300000;     BAS[ATNO][ 10].d[ 57] =         0.741569129632;
  BAS[ATNO][ 10].a[ 58] =         0.048938500000;     BAS[ATNO][ 10].d[ 58] =         0.120472976377;

  // Basis function  12 L = d
  InitBFNGauss(BAS[ATNO][ 11]);
  BAS[ATNO][ 11].l  = 2;
  BAS[ATNO][ 11].ng = 15;
  BAS[ATNO][ 11].a[  0] =         4.328841700000;     BAS[ATNO][ 11].d[  0] =        -0.021682204345;
  BAS[ATNO][ 11].a[  1] =         1.774230200000;     BAS[ATNO][ 11].d[  1] =        -0.150648546149;
  BAS[ATNO][ 11].a[  2] =         0.727190600000;     BAS[ATNO][ 11].d[  2] =        -0.468284581697;
  BAS[ATNO][ 11].a[  3] =         0.298048200000;     BAS[ATNO][ 11].d[  3] =        -0.237225955853;
  BAS[ATNO][ 11].a[  4] =         0.119219300000;     BAS[ATNO][ 11].d[  4] =        -0.022393205399;
  BAS[ATNO][ 11].a[  5] =         4.328841700000;     BAS[ATNO][ 11].d[  5] =         0.071900485625;
  BAS[ATNO][ 11].a[  6] =         1.774230200000;     BAS[ATNO][ 11].d[  6] =        -0.399135795119;
  BAS[ATNO][ 11].a[  7] =         0.727190600000;     BAS[ATNO][ 11].d[  7] =        -0.176565729275;
  BAS[ATNO][ 11].a[  8] =         0.298048200000;     BAS[ATNO][ 11].d[  8] =         0.519649673434;
  BAS[ATNO][ 11].a[  9] =         0.119219300000;     BAS[ATNO][ 11].d[  9] =         0.037333764057;
  BAS[ATNO][ 11].a[ 10] =         4.328841700000;     BAS[ATNO][ 11].d[ 10] =         0.051304767587;
  BAS[ATNO][ 11].a[ 11] =         1.774230200000;     BAS[ATNO][ 11].d[ 11] =        -0.478181309518;
  BAS[ATNO][ 11].a[ 12] =         0.727190600000;     BAS[ATNO][ 11].d[ 12] =         0.580728755520;
  BAS[ATNO][ 11].a[ 13] =         0.298048200000;     BAS[ATNO][ 11].d[ 13] =        -0.225958903900;
  BAS[ATNO][ 11].a[ 14] =         0.119219300000;     BAS[ATNO][ 11].d[ 14] =        -0.116365870565;

  // Basis function  13 L = d
  InitBFNGauss(BAS[ATNO][ 12]);
  BAS[ATNO][ 12].l  = 2;
  BAS[ATNO][ 12].ng = 15;
  BAS[ATNO][ 12].a[  0] =         4.328841700000;     BAS[ATNO][ 12].d[  0] =         0.017358979082;
  BAS[ATNO][ 12].a[  1] =         1.774230200000;     BAS[ATNO][ 12].d[  1] =         0.120610659309;
  BAS[ATNO][ 12].a[  2] =         0.727190600000;     BAS[ATNO][ 12].d[  2] =         0.374913091340;
  BAS[ATNO][ 12].a[  3] =         0.298048200000;     BAS[ATNO][ 12].d[  3] =         0.189925357210;
  BAS[ATNO][ 12].a[  4] =         0.119219300000;     BAS[ATNO][ 12].d[  4] =         0.017928213290;
  BAS[ATNO][ 12].a[  5] =         4.328841700000;     BAS[ATNO][ 12].d[  5] =         0.078581028442;
  BAS[ATNO][ 12].a[  6] =         1.774230200000;     BAS[ATNO][ 12].d[  6] =        -0.436220993440;
  BAS[ATNO][ 12].a[  7] =         0.727190600000;     BAS[ATNO][ 12].d[  7] =        -0.192971111019;
  BAS[ATNO][ 12].a[  8] =         0.298048200000;     BAS[ATNO][ 12].d[  8] =         0.567932266557;
  BAS[ATNO][ 12].a[  9] =         0.119219300000;     BAS[ATNO][ 12].d[  9] =         0.040802583594;
  BAS[ATNO][ 12].a[ 10] =         4.328841700000;     BAS[ATNO][ 12].d[ 10] =         0.082708723113;
  BAS[ATNO][ 12].a[ 11] =         1.774230200000;     BAS[ATNO][ 12].d[ 11] =        -0.770878953110;
  BAS[ATNO][ 12].a[ 12] =         0.727190600000;     BAS[ATNO][ 12].d[ 12] =         0.936196305011;
  BAS[ATNO][ 12].a[ 13] =         0.298048200000;     BAS[ATNO][ 12].d[ 13] =        -0.364269702343;
  BAS[ATNO][ 12].a[ 14] =         0.119219300000;     BAS[ATNO][ 12].d[ 14] =        -0.187594116903;

  // Basis function  14 L = d
  InitBFNGauss(BAS[ATNO][ 13]);
  BAS[ATNO][ 13].l  = 2;
  BAS[ATNO][ 13].ng = 15;
  BAS[ATNO][ 13].a[  0] =         4.328841700000;     BAS[ATNO][ 13].d[  0] =        -0.002486899319;
  BAS[ATNO][ 13].a[  1] =         1.774230200000;     BAS[ATNO][ 13].d[  1] =        -0.017279044181;
  BAS[ATNO][ 13].a[  2] =         0.727190600000;     BAS[ATNO][ 13].d[  2] =        -0.053711172018;
  BAS[ATNO][ 13].a[  3] =         0.298048200000;     BAS[ATNO][ 13].d[  3] =        -0.027209275342;
  BAS[ATNO][ 13].a[  4] =         0.119219300000;     BAS[ATNO][ 13].d[  4] =        -0.002568449516;
  BAS[ATNO][ 13].a[  5] =         4.328841700000;     BAS[ATNO][ 13].d[  5] =        -0.078360473246;
  BAS[ATNO][ 13].a[  6] =         1.774230200000;     BAS[ATNO][ 13].d[  6] =         0.434996641858;
  BAS[ATNO][ 13].a[  7] =         0.727190600000;     BAS[ATNO][ 13].d[  7] =         0.192429494525;
  BAS[ATNO][ 13].a[  8] =         0.298048200000;     BAS[ATNO][ 13].d[  8] =        -0.566338237889;
  BAS[ATNO][ 13].a[  9] =         0.119219300000;     BAS[ATNO][ 13].d[  9] =        -0.040688062036;
  BAS[ATNO][ 13].a[ 10] =         4.328841700000;     BAS[ATNO][ 13].d[ 10] =         0.130016752027;
  BAS[ATNO][ 13].a[ 11] =         1.774230200000;     BAS[ATNO][ 13].d[ 11] =        -1.211809031940;
  BAS[ATNO][ 13].a[ 12] =         0.727190600000;     BAS[ATNO][ 13].d[ 12] =         1.471685189359;
  BAS[ATNO][ 13].a[ 13] =         0.298048200000;     BAS[ATNO][ 13].d[ 13] =        -0.572625979189;
  BAS[ATNO][ 13].a[ 14] =         0.119219300000;     BAS[ATNO][ 13].d[ 14] =        -0.294894865510;

  // Basis function  15 L = f
  InitBFNGauss(BAS[ATNO][ 14]);
  BAS[ATNO][ 14].l  = 3;
  BAS[ATNO][ 14].ng = 8;
  BAS[ATNO][ 14].a[  0] =         1.631174000000;     BAS[ATNO][ 14].d[  0] =         0.223503966377;
  BAS[ATNO][ 14].a[  1] =         0.820328800000;     BAS[ATNO][ 14].d[  1] =         0.528920138268;
  BAS[ATNO][ 14].a[  2] =         0.412549100000;     BAS[ATNO][ 14].d[  2] =         0.240629257488;
  BAS[ATNO][ 14].a[  3] =         0.165019600000;     BAS[ATNO][ 14].d[  3] =         0.035458793392;
  BAS[ATNO][ 14].a[  4] =         1.631174000000;     BAS[ATNO][ 14].d[  4] =         0.355557894666;
  BAS[ATNO][ 14].a[  5] =         0.820328800000;     BAS[ATNO][ 14].d[  5] =         0.016557929051;
  BAS[ATNO][ 14].a[  6] =         0.412549100000;     BAS[ATNO][ 14].d[  6] =        -0.341172510465;
  BAS[ATNO][ 14].a[  7] =         0.165019600000;     BAS[ATNO][ 14].d[  7] =        -0.042809590780;

  // Basis function  16 L = f
  InitBFNGauss(BAS[ATNO][ 15]);
  BAS[ATNO][ 15].l  = 3;
  BAS[ATNO][ 15].ng = 8;
  BAS[ATNO][ 15].a[  0] =         1.631174000000;     BAS[ATNO][ 15].d[  0] =        -0.101351025881;
  BAS[ATNO][ 15].a[  1] =         0.820328800000;     BAS[ATNO][ 15].d[  1] =        -0.239846296652;
  BAS[ATNO][ 15].a[  2] =         0.412549100000;     BAS[ATNO][ 15].d[  2] =        -0.109116730672;
  BAS[ATNO][ 15].a[  3] =         0.165019600000;     BAS[ATNO][ 15].d[  3] =        -0.016079289979;
  BAS[ATNO][ 15].a[  4] =         1.631174000000;     BAS[ATNO][ 15].d[  4] =         0.784092701195;
  BAS[ATNO][ 15].a[  5] =         0.820328800000;     BAS[ATNO][ 15].d[  5] =         0.036514310358;
  BAS[ATNO][ 15].a[  6] =         0.412549100000;     BAS[ATNO][ 15].d[  6] =        -0.752369387143;
  BAS[ATNO][ 15].a[  7] =         0.165019600000;     BAS[ATNO][ 15].d[  7] =        -0.094405688005;

-------
TIMINGS
-------

Total SCF time: 0 days 0 hours 0 min 14 sec 

Total time                  ....      14.515 sec
Sum of individual times     ....      14.245 sec  ( 98.1%)

Fock matrix formation       ....      13.769 sec  ( 94.9%)
  XC integration            ....       0.025 sec  (  0.2% of F)
    Basis function eval.    ....       0.011 sec  ( 44.6% of XC)
    Density eval.           ....       0.001 sec  (  5.0% of XC)
    XC-Functional eval.     ....       0.001 sec  (  5.3% of XC)
    XC-Potential eval.      ....       0.002 sec  (  6.9% of XC)
Diagonalization             ....       0.001 sec  (  0.0%)
Density matrix formation    ....       0.000 sec  (  0.0%)
Population analysis         ....       0.001 sec  (  0.0%)
Initial guess               ....       0.095 sec  (  0.7%)
Orbital Transformation      ....       0.000 sec  (  0.0%)
Orbital Orthonormalization  ....       0.000 sec  (  0.0%)
DIIS solution               ....       0.000 sec  (  0.0%)
SOSCF solution              ....       0.001 sec  (  0.0%)
Grid generation             ....       0.378 sec  (  2.6%)

-------------------------   --------------------
FINAL SINGLE POINT ENERGY      -311.247561750806
-------------------------   --------------------


                            ***************************************
                            *     ORCA property calculations      *
                            ***************************************

                                    ---------------------
                                    Active property flags
                                    ---------------------
   (+) Dipole Moment


------------------------------------------------------------------------------
                       ORCA ELECTRIC PROPERTIES CALCULATION
------------------------------------------------------------------------------

Dipole Moment Calculation                       ... on
Quadrupole Moment Calculation                   ... off
Polarizability Calculation                      ... off
GBWName                                         ... Ar_ano-rcc-qzp_548.143956_.gbw
Electron density file                           ... Ar_ano-rcc-qzp_548.143956_.scfp
The origin for moment calculation is the CENTER OF MASS  = ( 0.000000,  0.000000  0.000000)

-------------
DIPOLE MOMENT
-------------
                                X             Y             Z
Electronic contribution:     -0.00000       0.00000       0.00000
Nuclear contribution   :      0.00000       0.00000       0.00000
                        -----------------------------------------
Total Dipole Moment    :     -0.00000       0.00000       0.00000
                        -----------------------------------------
Magnitude (a.u.)       :      0.00000
Magnitude (Debye)      :      0.00000



--------------------
Rotational spectrum 
--------------------
 
Rotational constants in cm-1:     0.000000     0.000000     0.000000 
Rotational constants in MHz :     0.000000     0.000000     0.000000 

 Dipole components along the rotational axes: 
x,y,z [a.u.] :    -0.000000     0.000000     0.000000 
x,y,z [Debye]:    -0.000000     0.000000     0.000000 

 

Timings for individual modules:

Sum of individual times         ...       15.604 sec (=   0.260 min)
GTO integral calculation        ...        0.425 sec (=   0.007 min)   2.7 %
Relativistic integrals          ...        0.389 sec (=   0.006 min)   2.5 %
SCF iterations                  ...       14.790 sec (=   0.247 min)  94.8 %
                             ****ORCA TERMINATED NORMALLY****
TOTAL RUN TIME: 0 days 0 hours 0 minutes 15 seconds 968 msec
