
                                 *****************
                                 * O   R   C   A *
                                 *****************

           --- An Ab Initio, DFT and Semiempirical electronic structure package ---

                  #######################################################
                  #                        -***-                        #
                  #          Department of theory and spectroscopy      #
                  #               Directorship: Frank Neese             #
                  #        Max Planck Institute fuer Kohlenforschung    #
                  #                Kaiser Wilhelm Platz 1               #
                  #                 D-45470 Muelheim/Ruhr               #
                  #                      Germany                        #
                  #                                                     #
                  #                  All rights reserved                #
                  #                        -***-                        #
                  #######################################################


                         Program Version 4.2.1 -  RELEASE  -


 With contributions from (in alphabetic order):
   Daniel Aravena         : Magnetic Suceptibility
   Michael Atanasov       : Ab Initio Ligand Field Theory (pilot matlab implementation)
   Alexander A. Auer      : GIAO ZORA, VPT2
   Ute Becker             : Parallelization
   Giovanni Bistoni       : ED, misc. LED, open-shell LED, HFLD
   Martin Brehm           : Molecular dynamics
   Dmytro Bykov           : SCF Hessian
   Vijay G. Chilkuri      : MRCI spin determinant printing, contributions to CSF-ICE
   Dipayan Datta          : RHF DLPNO-CCSD density
   Achintya Kumar Dutta   : EOM-CC, STEOM-CC
   Dmitry Ganyushin       : Spin-Orbit,Spin-Spin,Magnetic field MRCI
   Miquel Garcia          : C-PCM Hessian, Gaussian charge scheme
   Yang Guo               : DLPNO-NEVPT2, CIM, IAO-localization
   Andreas Hansen         : Spin unrestricted coupled pair/coupled cluster methods
   Benjamin Helmich-Paris : CASSCF linear response (MC-RPA)
   Lee Huntington         : MR-EOM, pCC
   Robert Izsak           : Overlap fitted RIJCOSX, COSX-SCS-MP3, EOM
   Christian Kollmar      : KDIIS, OOCD, Brueckner-CCSD(T), CCSD density
   Simone Kossmann        : Meta GGA functionals, TD-DFT gradient, OOMP2, MP2 Hessian
   Martin Krupicka        : AUTO-CI
   Lucas Lang             : DCDCAS
   Dagmar Lenk            : GEPOL surface, SMD
   Dimitrios Liakos       : Extrapolation schemes; Compound Job, initial MDCI parallelization
   Dimitrios Manganas     : Further ROCIS development; embedding schemes
   Dimitrios Pantazis     : SARC Basis sets
   Taras Petrenko         : DFT Hessian,TD-DFT gradient, ASA, ECA, R-Raman, ABS, FL, XAS/XES, NRVS
   Peter Pinski           : DLPNO-MP2, DLPNO-MP2 Gradient
   Christoph Reimann      : Effective Core Potentials
   Marius Retegan         : Local ZFS, SOC
   Christoph Riplinger    : Optimizer, TS searches, QM/MM, DLPNO-CCSD(T), (RO)-DLPNO pert. Triples
   Tobias Risthaus        : Range-separated hybrids, TD-DFT gradient, RPA, STAB
   Michael Roemelt        : Original ROCIS implementation
   Masaaki Saitow         : Open-shell DLPNO-CCSD energy and density
   Barbara Sandhoefer     : DKH picture change effects
   Avijit Sen             : IP-ROCIS
   Kantharuban Sivalingam : CASSCF convergence, NEVPT2, FIC-MRCI
   Bernardo de Souza      : ESD, SOC TD-DFT
   Georgi Stoychev        : AutoAux, RI-MP2 NMR
   Willem Van den Heuvel  : Paramagnetic NMR
   Boris Wezisla          : Elementary symmetry handling
   Frank Wennmohs         : Technical directorship


 We gratefully acknowledge several colleagues who have allowed us to
 interface, adapt or use parts of their codes:
   Stefan Grimme, W. Hujo, H. Kruse,             : VdW corrections, initial TS optimization,
                  C. Bannwarth                     DFT functionals, gCP, sTDA/sTD-DF
   Ed Valeev, F. Pavosevic, A. Kumar             : LibInt (2-el integral package), F12 methods
   Garnet Chan, S. Sharma, J. Yang, R. Olivares  : DMRG
   Ulf Ekstrom                                   : XCFun DFT Library
   Mihaly Kallay                                 : mrcc  (arbitrary order and MRCC methods)
   Andreas Klamt, Michael Diedenhofen            : otool_cosmo (COSMO solvation model)
   Jiri Pittner, Ondrej Demel                    : Mk-CCSD
   Frank Weinhold                                : gennbo (NPA and NBO analysis)
   Christopher J. Cramer and Donald G. Truhlar   : smd solvation model
   Lars Goerigk                                  : TD-DFT with DH, B97 family of functionals
   V. Asgeirsson, H. Jonsson                     : NEB implementation
   FAccTs GmbH                                   : IRC, NEB, NEB-TS, Multilevel, MM, QM/MM, CI optimization
   S Lehtola, MJT Oliveira, MAL Marques          : LibXC Library


 Your calculation uses the libint2 library for the computation of 2-el integrals
 For citations please refer to: http://libint.valeyev.net

 Your ORCA version has been built with support for libXC version: 4.2.3
 For citations please refer to: https://tddft.org/programs/libxc/

 This ORCA versions uses:
   CBLAS   interface :  Fast vector & matrix operations
   LAPACKE interface :  Fast linear algebra routines
   SCALAPACK package :  Parallel linear algebra routines


----- Orbital basis set information -----
Your calculation utilizes the basis: ANO-RCC-DZP
   H, He:       P.-O. Widmark, P.-A. Malmqvist, and B. O. Roos, Theor. Chim. Acta 77, 291 (1990).
   s block:     B. O. Roos, V. Veryazov and P.-O. Widmark, Theor. Chem. Acc. 111, 345 (2004).
   p block:     B. O. Roos, R. Lindh, P.-A. Malmqvist, V. Veryazov, and P.-O. Widmark, J. Phys. Chem. A 108, 2851 (2004).
   d block:     B. O. Roos, R. Lindh, P.-A. Malmqvist, V. Veryazov, and P.-O. Widmark, J. Phys. Chem. A 109, 6575 (2005).
   actinides:   B. O. Roos, R. Lindh, P.-A. Malmqvist, V. Veryazov, and P.-O. Widmark, Chem. Phys. Letters 409, 295 (2005).
   lanthanides: B. O. Roos, R. Lindh, P.-A. Malmqvist, V. Veryazov, P.-O. Widmark and A. C. Borin, J. Phys. Chem. A 112, 11431 (2008).

================================================================================
                                        WARNINGS
                       Please study these warnings very carefully!
================================================================================


INFO   : the flag for use of LIBINT has been found!

================================================================================
                                       INPUT FILE
================================================================================
NAME = Ar_ano-rcc-dzp_1096.287912_.inp
|  1> ! LDA ano-rcc-dzp nori grid5 finalgrid6 verytightscf
|  2> %Pal NProcs 18 End
|  3> 
|  4> % REL
|  5>   Method ZORA
|  6>   ModelPot 1, 0, 0, 0
|  7>   velit 1096.287912
|  8> END
|  9> 
| 10> *xyz 16 1
| 11> Ar 0.0 0.0 0.0
| 12> **                         ****END OF INPUT****
================================================================================

                       ****************************
                       * Single Point Calculation *
                       ****************************

---------------------------------
CARTESIAN COORDINATES (ANGSTROEM)
---------------------------------
  Ar     0.000000    0.000000    0.000000

----------------------------
CARTESIAN COORDINATES (A.U.)
----------------------------
  NO LB      ZA    FRAG     MASS         X           Y           Z
   0 Ar   18.0000    0    39.948    0.000000    0.000000    0.000000

--------------------------------
INTERNAL COORDINATES (ANGSTROEM)
--------------------------------
 Ar     0   0   0     0.000000000000     0.00000000     0.00000000

---------------------------
INTERNAL COORDINATES (A.U.)
---------------------------
 Ar     0   0   0     0.000000000000     0.00000000     0.00000000

---------------------
BASIS SET INFORMATION
---------------------
There are 1 groups of distinct atoms

 Group   1 Type Ar  : 68s36p5d contracted to 4s3p1d pattern {17171717/121212/5}

Atom   0Ar   basis set group =>   1


           ************************************************************
           *        Program running with 18 parallel MPI-processes    *
           *              working on a common directory               *
           ************************************************************


------------------------------------------------------------------------------
                       ORCA GTO INTEGRAL CALCULATION
                     -- ANO INTEGRAL GENERATION BRANCH --
------------------------------------------------------------------------------


Gathering ANO information                         ... done
Calculation Information:
Number of atoms                                   ... 1
Number of basis functions                         ... 18
Highest angular momentum                          ... 2
Number of primitive shells                        ... 34
Total number of shells                            ... 8
Maximum number of shells                          ... 8

Getting memory                                    ... done
Making prescreening integrals                     ... done
Gathering atom contracted prescreening            ... done
Making one-electron integrals                     ... done

Timings:

Total time                                        ...    0.1 sec
Prescreening matrix                               ...    0.1 sec
One-electron matrix                               ...    0.0 sec
Two-index integrals + Cholesky                    ...    0.0 sec


           ************************************************************
           *        Program running with 18 parallel MPI-processes    *
           *              working on a common directory               *
           ************************************************************
------------------------------------------------------------------------------
                          ORCA RELATIVISTIC HAMILTONIAN
------------------------------------------------------------------------------

Relativistic Method            ... ZORA(MP)
Treatment of potential         ... Van Wuellen
Nucleus model                  ... Point Nucleus
Speed of light used            ... 1096.28791200000001


            *************************************************
            *         ZERO ORDER REGULAR APPROXIMATION      *
            *                     ZORA(MP)                  *
            *            Programmed by FN according to      *
            *                   C. van Wuellen              *
            *       J. Chem. Phys. (1998) vol 109, 392-399  *
            *************************************************

Terms included in model potential: +V(e,N)
Basis function cutoff value   ... 1.000000e-12
Loading the fitted atomic densities  (DKH4)  ... done
Calculating the cutoffs                      ... done
Number of fit functions                      ... 15
Setting up the integration grid ... done


           ************************************************************
           *        Program running with 18 parallel MPI-processes    *
           *              working on a common directory               *
           ************************************************************
-------------------------------------------------------------------------------
                                 ORCA SCF
-------------------------------------------------------------------------------

------------
SCF SETTINGS
------------
Hamiltonian:
 Density Functional     Method          .... DFT(GTOs)
 Exchange Functional    Exchange        .... Slater
   X-Alpha parameter    XAlpha          ....  0.666667
 Correlation Functional Correlation     .... VWN-5
 Gradients option       PostSCFGGA      .... off
   Density functional embedding theory  .... OFF

Relativistic Settings:
 Scalar relativistic method             .... ZORA
 Speed of light used       Velit        ....       1096.28791
Orbital energies will be scaled


General Settings:
 Integral files         IntName         .... Ar_ano-rcc-dzp_1096.287912_
 Hartree-Fock type      HFTyp           .... RHF
 Total Charge           Charge          ....   16
 Multiplicity           Mult            ....    1
 Number of Electrons    NEL             ....    2
 Basis Dimension        Dim             ....   18
 Nuclear Repulsion      ENuc            ....      0.0000000000 Eh

Convergence Acceleration:
 DIIS                   CNVDIIS         .... on
   Start iteration      DIISMaxIt       ....    12
   Startup error        DIISStart       ....  0.200000
   # of expansion vecs  DIISMaxEq       ....     5
   Bias factor          DIISBfac        ....   1.050
   Max. coefficient     DIISMaxC        ....  10.000
 Newton-Raphson         CNVNR           .... off
 SOSCF                  CNVSOSCF        .... on
   Start iteration      SOSCFMaxIt      ....   150
   Startup grad/error   SOSCFStart      ....  0.003300
 Level Shifting         CNVShift        .... on
   Level shift para.    LevelShift      ....    0.2500
   Turn off err/grad.   ShiftErr        ....    0.0010
 Zerner damping         CNVZerner       .... off
 Static damping         CNVDamp         .... on
   Fraction old density DampFac         ....    0.7000
   Max. Damping (<1)    DampMax         ....    0.9800
   Min. Damping (>=0)   DampMin         ....    0.0000
   Turn off err/grad.   DampErr         ....    0.1000
 Fernandez-Rico         CNVRico         .... off

SCF Procedure:
 Maximum # iterations   MaxIter         ....   125
 SCF integral mode      SCFMode         .... Direct
   Integral package                     .... LIBINT
 Reset frequency        DirectResetFreq ....    20
 Integral Threshold     Thresh          ....  1.000e-12 Eh
 Primitive CutOff       TCut            ....  1.000e-14 Eh

Convergence Tolerance:
 Convergence Check Mode ConvCheckMode   .... Total+1el-Energy
 Convergence forced     ConvForced      .... 0
 Energy Change          TolE            ....  1.000e-09 Eh
 1-El. energy change                    ....  1.000e-06 Eh
 Orbital Gradient       TolG            ....  2.000e-06
 Orbital Rotation angle TolX            ....  2.000e-06
 DIIS Error             TolErr          ....  1.000e-08


Diagonalization of the overlap matrix:
Smallest eigenvalue                        ... 1.000e+00
Time for diagonalization                   ...    0.001 sec
Threshold for overlap eigenvalues          ... 1.000e-08
Number of eigenvalues below threshold      ... 0
Time for construction of square roots      ...    0.001 sec
Total time needed                          ...    0.001 sec

-------------------
DFT GRID GENERATION
-------------------

General Integration Accuracy     IntAcc      ...  5.010
Radial Grid Type                 RadialGrid  ... Gauss-Chebyshev
Angular Grid (max. acc.)         AngularGrid ... Lebedev-434
Angular grid pruning method      GridPruning ... 3 (G Style)
Weight generation scheme         WeightScheme... Becke
Basis function cutoff            BFCut       ...    1.0000e-12
Integration weight cutoff        WCut        ...    1.0000e-14
Grids for H and He will be reduced by one unit

# of grid points (after initial pruning)     ...  11992 (   0.0 sec)
# of grid points (after weights+screening)   ...  11992 (   0.0 sec)
Grid point division into batches done        ...    0.1 sec
Reduced shell lists constructed in    0.1 sec

Total number of grid points                  ...    11992
Total number of batches                      ...      188
Average number of points per batch           ...       63
Average number of grid points per atom       ...    11992
Average number of shells per batch           ...     3.50 (43.75%)
Average number of basis functions per batch  ...     9.67 (53.70%)
Average number of large shells per batch     ...     2.25 (64.29%)
Average number of large basis fcns per batch ...     5.92 (61.21%)
Maximum spatial batch extension              ...  18.71, 18.71, 18.71 au
Average spatial batch extension              ...   0.97,  0.98,  0.97 au

Time for grid setup =    0.148 sec

------------------------------
INITIAL GUESS: MODEL POTENTIAL
------------------------------
Loading ZORA relativistic densities                ... done
Calculating cut-offs                               ... done
Setting up the integral package                    ... done
Initializing the effective Hamiltonian             ... done
Starting the Coulomb interaction                   ... done (   0.0 sec)
Reading the grid                                   ... done
Mapping shells                                     ... done
Starting the XC term evaluation                    ... done (   0.0 sec)
  promolecular density results
     # of electrons  =     18.000000116
     EX              =    -28.047870263
     EC              =     -1.433252902
     EX+EC           =    -29.481123164
Transforming the Hamiltonian                       ... done (   0.0 sec)
Diagonalizing the Hamiltonian                      ... done (   0.0 sec)
Back transforming the eigenvectors                 ... done (   0.0 sec)
Now organizing SCF variables                       ... done
                      ------------------
                      INITIAL GUESS DONE (   0.2 sec)
                      ------------------
--------------
SCF ITERATIONS
--------------
ITER       Energy         Delta-E        Max-DP      RMS-DP      [F,P]     Damp
               ***  Starting incremental Fock matrix formation  ***
  0   -311.0863245972   0.000000000000 0.00520946  0.00030205  1.9452628 0.7000
                      *** Initiating the SOSCF procedure ***
                      *** Re-Reading the Fockian *** 
                      *** Removing any level shift *** 
ITER      Energy       Delta-E        Grad      Rot      Max-DP    RMS-DP
  1   -311.09225173  -0.0059271371  0.000142  0.000142  0.012158  0.000705
               *** Restarting incremental Fock matrix formation ***
  2   -311.10598391  -0.0137321721  0.004872  0.000043  0.000083  0.000005
  3   -311.10598437  -0.0000004627  0.000032  0.000000  0.000001  0.000000
                 **** Energy Check signals convergence ****
              ***Rediagonalizing the Fockian in SOSCF/NRSCF***

               *****************************************************
               *                     SUCCESS                       *
               *           SCF CONVERGED AFTER   4 CYCLES          *
               *****************************************************

Setting up the final grid:

General Integration Accuracy     IntAcc      ...  5.340
Radial Grid Type                 RadialGrid  ... Gauss-Chebyshev
Angular Grid (max. acc.)         AngularGrid ... Lebedev-590
Angular grid pruning method      GridPruning ... 3 (G Style)
Weight generation scheme         WeightScheme... Becke
Basis function cutoff            BFCut       ...    1.0000e-12
Integration weight cutoff        WCut        ...    1.0000e-14
Grids for H and He will be reduced by one unit

# of grid points (after initial pruning)     ...  18110 (   0.0 sec)
# of grid points (after weights+screening)   ...  18110 (   0.0 sec)
Grid point division into batches done        ...    0.2 sec
Reduced shell lists constructed in    0.2 sec

Total number of grid points                  ...    18110
Total number of batches                      ...      283
Average number of points per batch           ...       63
Average number of grid points per atom       ...    18110
Average number of shells per batch           ...     1.18 (14.71%)
Average number of basis functions per batch  ...     3.53 (19.61%)
Average number of large shells per batch     ...     0.59 (50.00%)
Average number of large basis fcns per batch ...     1.76 (50.00%)
Maximum spatial batch extension              ...  19.03, 19.03, 19.03 au
Average spatial batch extension              ...   0.84,  0.84,  0.80 au

Final grid set up in    0.2 sec
Final integration                            ... done (   0.0 sec)
Change in XC energy                          ...     0.000014064
Integrated number of electrons               ...     2.000000249
Previous integrated no of electrons          ...     2.000000960

----------------
TOTAL SCF ENERGY
----------------

Total Energy       :         -311.10597031 Eh           -8465.62384 eV

Components:
Nuclear Repulsion  :            0.00000000 Eh               0.00000 eV
Electronic Energy  :         -311.10597031 Eh           -8465.62384 eV
One Electron Energy:         -323.47462318 Eh           -8802.19199 eV
Two Electron Energy:           12.36865288 Eh             336.56816 eV

Virial components:
Potential Energy   :         -630.53698883 Eh          -17157.78375 eV
Kinetic Energy     :          319.43101852 Eh            8692.15991 eV
Virial Ratio       :            1.97393788


DFT components:
N(Alpha)           :        1.000000124398 electrons
N(Beta)            :        1.000000124398 electrons
N(Total)           :        2.000000248796 electrons
E(X)               :       -9.487191305292 Eh       
E(C)               :       -0.237079828786 Eh       
E(XC)              :       -9.724271134079 Eh       
DFET-embed. en.    :        0.000000000000 Eh       

---------------
SCF CONVERGENCE
---------------

  Last Energy change         ...   -2.0407e-11  Tolerance :   1.0000e-09
  Last MAX-Density change    ...    0.0000e+00  Tolerance :   1.0000e-08
  Last RMS-Density change    ...    0.0000e+00  Tolerance :   1.0000e-09
  Last Orbital Gradient      ...    5.8166e-11  Tolerance :   2.0000e-06
  Last Orbital Rotation      ...    0.0000e+00  Tolerance :   2.0000e-06

================================================================================
                                        WARNING
Number of found core electrons (2) does not match given number of chemical core electrons (10)
================================================================================
             **** THE GBW FILE WAS UPDATED (Ar_ano-rcc-dzp_1096.287912_.gbw) ****
             **** DENSITY FILE WAS UPDATED (Ar_ano-rcc-dzp_1096.287912_.scfp) ****
             **** ENERGY FILE WAS UPDATED (Ar_ano-rcc-dzp_1096.287912_.en.tmp) ****
             **** THE GBW FILE WAS UPDATED (Ar_ano-rcc-dzp_1096.287912_.gbw) ****
             **** DENSITY FILE WAS UPDATED (Ar_ano-rcc-dzp_1096.287912_.scfp) ****
----------------
ORBITAL ENERGIES
----------------

  NO   OCC          E(Eh)            E(eV) 
   0   2.0000    -146.097282     -3975.5092 
   1   0.0000     -33.694445      -916.8725 
   2   0.0000     -32.516081      -884.8075 
   3   0.0000     -32.516081      -884.8075 
   4   0.0000     -32.516081      -884.8075 
   5   0.0000     -13.435798      -365.6066 
   6   0.0000     -12.171135      -331.1934 
   7   0.0000     -12.171135      -331.1934 
   8   0.0000     -12.171135      -331.1934 
   9   0.0000      -9.339506      -254.1409 
  10   0.0000      -9.339506      -254.1409 
  11   0.0000      -9.339506      -254.1409 
  12   0.0000      -9.339506      -254.1409 
  13   0.0000      -9.339506      -254.1409 
  14   0.0000      -6.743097      -183.4890 
  15   0.0000      -5.702299      -155.1674 
  16   0.0000      -5.702299      -155.1674 
  17   0.0000      -5.702299      -155.1674 

                    ********************************
                    * MULLIKEN POPULATION ANALYSIS *
                    ********************************

-----------------------
MULLIKEN ATOMIC CHARGES
-----------------------
   0 Ar:   16.000000
Sum of atomic charges:   16.0000000

--------------------------------
MULLIKEN REDUCED ORBITAL CHARGES
--------------------------------
  0 Ars       :     2.000000  s :     2.000000
      pz      :     0.000000  p :     0.000000
      px      :     0.000000
      py      :     0.000000
      dz2     :     0.000000  d :     0.000000
      dxz     :     0.000000
      dyz     :     0.000000
      dx2y2   :     0.000000
      dxy     :     0.000000


                     *******************************
                     * LOEWDIN POPULATION ANALYSIS *
                     *******************************

----------------------
LOEWDIN ATOMIC CHARGES
----------------------
   0 Ar:   16.000000

-------------------------------
LOEWDIN REDUCED ORBITAL CHARGES
-------------------------------
  0 Ars       :     2.000000  s :     2.000000
      pz      :     0.000000  p :     0.000000
      px      :     0.000000
      py      :     0.000000
      dz2     :     0.000000  d :     0.000000
      dxz     :     0.000000
      dyz     :     0.000000
      dx2y2   :     0.000000
      dxy     :     0.000000


                      *****************************
                      * MAYER POPULATION ANALYSIS *
                      *****************************

  NA   - Mulliken gross atomic population
  ZA   - Total nuclear charge
  QA   - Mulliken gross atomic charge
  VA   - Mayer's total valence
  BVA  - Mayer's bonded valence
  FA   - Mayer's free valence

  ATOM       NA         ZA         QA         VA         BVA        FA
  0 Ar     2.0000    18.0000    16.0000    -0.0000     0.0000    -0.0000

  Mayer bond orders larger than 0.100000


--------------------------
ATOM BASIS FOR ELEMENT Ar
--------------------------
 NewGTO Ar
 S 68
    1     455476.770000000019         0.000319857222
    2      64817.743000000002         0.001011611213
    3      19256.987000000001         0.002170201149
    4       6877.007300000000         0.005962898206
    5       2643.487700000000         0.015907981821
    6       1054.237500000000         0.044046507407
    7        429.371220000000         0.114459225793
    8        177.188590000000         0.254626458283
    9         73.763945000000         0.398474198804
   10         30.897007000000         0.278947537027
   11         12.999482000000         0.038335007017
   12          5.487679300000         0.003118582912
   13          2.322571600000        -0.001384657973
   14          0.984980700000         0.001002731290
   15          0.418397300000        -0.000643174413
   16          0.177959400000         0.000282017550
   17          0.071183800000        -0.000076279337
   18     455476.770000000019         0.000000373349
   19      64817.743000000002         0.000001182416
   20      19256.987000000001         0.000002543695
   21       6877.007300000000         0.000007012220
   22       2643.487700000000         0.000018890749
   23       1054.237500000000         0.000053258751
   24        429.371220000000         0.000144964323
   25        177.188590000000         0.000357198827
   26         73.763945000000         0.000712748970
   27         30.897007000000         0.000757867417
   28         12.999482000000        -0.000558449037
   29          5.487679300000        -0.002588803174
   30          2.322571600000        -0.001558235430
   31          0.984980700000        -0.000020293022
   32          0.418397300000        -0.000047851977
   33          0.177959400000         0.000018175622
   34          0.071183800000        -0.000005267068
   35     455476.770000000019         0.000000019105
   36      64817.743000000002         0.000000060455
   37      19256.987000000001         0.000000130533
   38       6877.007300000000         0.000000357716
   39       2643.487700000000         0.000000972916
   40       1054.237500000000         0.000002720305
   41        429.371220000000         0.000007519215
   42        177.188590000000         0.000018500907
   43         73.763945000000         0.000038431740
   44         30.897007000000         0.000041734757
   45         12.999482000000        -0.000032218229
   46          5.487679300000        -0.000218139764
   47          2.322571600000        -0.000230972322
   48          0.984980700000         0.000226651364
   49          0.418397300000         0.000450113670
   50          0.177959400000         0.000169141848
   51          0.071183800000         0.000003000701
   52     455476.770000000019         0.000000019103
   53      64817.743000000002         0.000000060433
   54      19256.987000000001         0.000000130580
   55       6877.007300000000         0.000000357667
   56       2643.487700000000         0.000000973555
   57       1054.237500000000         0.000002724914
   58        429.371220000000         0.000007545185
   59        177.188590000000         0.000018668080
   60         73.763945000000         0.000039261717
   61         30.897007000000         0.000043643323
   62         12.999482000000        -0.000047748187
   63          5.487679300000        -0.000230014215
   64          2.322571600000        -0.000368489425
   65          0.984980700000         0.001048355982
   66          0.418397300000         0.000001475058
   67          0.177959400000        -0.000654799798
   68          0.071183800000        -0.000025368974
 S 67
    1     455476.770000000019        -0.000001328493
    2      64817.743000000002        -0.000004201620
    3      19256.987000000001        -0.000009013700
    4       6877.007300000000        -0.000024766263
    5       2643.487700000000        -0.000066072110
    6       1054.237500000000        -0.000182942483
    7        429.371220000000        -0.000475394219
    8        177.188590000000        -0.001057563908
    9         73.763945000000        -0.001655020197
   10         30.897007000000        -0.001158578922
   11         12.999482000000        -0.000159220374
   12          5.487679300000        -0.000012952702
   13          2.322571600000         0.000005751030
   14          0.984980700000        -0.000004164738
   15          0.418397300000         0.000002671357
   16          0.177959400000        -0.000001171330
   17     455476.770000000019         0.000090869531
   18      64817.743000000002         0.000287788262
   19      19256.987000000001         0.000619110107
   20       6877.007300000000         0.001706705115
   21       2643.487700000000         0.004597821545
   22       1054.237500000000         0.012962653240
   23        429.371220000000         0.035282882589
   24        177.188590000000         0.086938661666
   25         73.763945000000         0.173476049918
   26         30.897007000000         0.184457433666
   27         12.999482000000        -0.135920972377
   28          5.487679300000        -0.630089088554
   29          2.322571600000        -0.379259092158
   30          0.984980700000        -0.004939120871
   31          0.418397300000        -0.011646698029
   32          0.177959400000         0.004423766632
   33          0.071183800000        -0.001281952355
   34     455476.770000000019         0.000002632802
   35      64817.743000000002         0.000008330984
   36      19256.987000000001         0.000017987932
   37       6877.007300000000         0.000049294692
   38       2643.487700000000         0.000134071654
   39       1054.237500000000         0.000374868788
   40        429.371220000000         0.001036177538
   41        177.188590000000         0.002549497896
   42         73.763945000000         0.005296045242
   43         30.897007000000         0.005751214043
   44         12.999482000000        -0.004439798930
   45          5.487679300000        -0.030060519469
   46          2.322571600000        -0.031828896531
   47          0.984980700000         0.031233451551
   48          0.418397300000         0.062027438223
   49          0.177959400000         0.023308413449
   50          0.071183800000         0.000413508417
   51     455476.770000000019         0.000002659608
   52      64817.743000000002         0.000008413521
   53      19256.987000000001         0.000018179438
   54       6877.007300000000         0.000049794802
   55       2643.487700000000         0.000135539491
   56       1054.237500000000         0.000379365675
   57        429.371220000000         0.001050449166
   58        177.188590000000         0.002598991256
   59         73.763945000000         0.005466060671
   60         30.897007000000         0.006076072904
   61         12.999482000000        -0.006647556663
   62          5.487679300000        -0.032022839679
   63          2.322571600000        -0.051301515347
   64          0.984980700000         0.145953308024
   65          0.418397300000         0.000205359253
   66          0.177959400000        -0.091161969997
   67          0.071183800000        -0.003531897297
 S 65
    1     455476.770000000019        -0.000000117145
    2      64817.743000000002        -0.000000370493
    3      19256.987000000001        -0.000000794816
    4       6877.007300000000        -0.000002183856
    5       2643.487700000000        -0.000005826150
    6       1054.237500000000        -0.000016131623
    7        429.371220000000        -0.000041919626
    8        177.188590000000        -0.000093254570
    9         73.763945000000        -0.000145937466
   10         30.897007000000        -0.000102161939
   11         12.999482000000        -0.000014039839
   12          5.487679300000        -0.000001142152
   13          2.322571600000         0.000000507118
   14          0.984980700000        -0.000000367241
   15     455476.770000000019        -0.000010811651
   16      64817.743000000002        -0.000034241029
   17      19256.987000000001        -0.000073661680
   18       6877.007300000000        -0.000203063664
   19       2643.487700000000        -0.000547048509
   20       1054.237500000000        -0.001542295641
   21        429.371220000000        -0.004197955079
   22        177.188590000000        -0.010343956320
   23         73.763945000000        -0.020640169155
   24         30.897007000000        -0.021946733480
   25         12.999482000000         0.016171868467
   26          5.487679300000         0.074967958842
   27          2.322571600000         0.045124222158
   28          0.984980700000         0.000587656280
   29          0.418397300000         0.001385723375
   30          0.177959400000        -0.000526339467
   31          0.071183800000         0.000152526608
   32     455476.770000000019         0.000024673059
   33      64817.743000000002         0.000078073036
   34      19256.987000000001         0.000168572213
   35       6877.007300000000         0.000461960576
   36       2643.487700000000         0.001256439913
   37       1054.237500000000         0.003513047645
   38        429.371220000000         0.009710440503
   39        177.188590000000         0.023892380139
   40         73.763945000000         0.049631390694
   41         30.897007000000         0.053896962380
   42         12.999482000000        -0.041607158781
   43          5.487679300000        -0.281709335586
   44          2.322571600000        -0.298281515178
   45          0.984980700000         0.292701358455
   46          0.418397300000         0.581284313068
   47          0.177959400000         0.218432608024
   48          0.071183800000         0.003875155301
   49     455476.770000000019         0.000017330243
   50      64817.743000000002         0.000054823265
   51      19256.987000000001         0.000118458863
   52       6877.007300000000         0.000324467435
   53       2643.487700000000         0.000883187577
   54       1054.237500000000         0.002471981036
   55        429.371220000000         0.006844821742
   56        177.188590000000         0.016935262014
   57         73.763945000000         0.035617345549
   58         30.897007000000         0.039592240415
   59         12.999482000000        -0.043316080259
   60          5.487679300000        -0.208663718724
   61          2.322571600000        -0.334285312473
   62          0.984980700000         0.951044951579
   63          0.418397300000         0.001338139460
   64          0.177959400000        -0.594019638991
   65          0.071183800000        -0.023014162128
 S 64
    1     455476.770000000019        -0.000000018670
    2      64817.743000000002        -0.000000059048
    3      19256.987000000001        -0.000000126674
    4       6877.007300000000        -0.000000348054
    5       2643.487700000000        -0.000000928547
    6       1054.237500000000        -0.000002570989
    7        429.371220000000        -0.000006680971
    8        177.188590000000        -0.000014862516
    9         73.763945000000        -0.000023258891
   10         30.897007000000        -0.000016282134
   11         12.999482000000        -0.000002237610
   12          5.487679300000        -0.000000182031
   13          2.322571600000         0.000000080822
   14     455476.770000000019        -0.000001854175
   15      64817.743000000002        -0.000005872263
   16      19256.987000000001        -0.000012632820
   17       6877.007300000000        -0.000034824981
   18       2643.487700000000        -0.000093817642
   19       1054.237500000000        -0.000264500383
   20        429.371220000000        -0.000719940262
   21        177.188590000000        -0.001773966249
   22         73.763945000000        -0.003539744593
   23         30.897007000000        -0.003763817563
   24         12.999482000000         0.002773440641
   25          5.487679300000         0.012856843611
   26          2.322571600000         0.007738706993
   27          0.984980700000         0.000100781787
   28          0.418397300000         0.000237648577
   29          0.177959400000        -0.000090266086
   30          0.071183800000         0.000026157985
   31     455476.770000000019        -0.000014835640
   32      64817.743000000002        -0.000046944462
   33      19256.987000000001        -0.000101360626
   34       6877.007300000000        -0.000277771837
   35       2643.487700000000        -0.000755483565
   36       1054.237500000000        -0.002112357090
   37        429.371220000000        -0.005838781571
   38        177.188590000000        -0.014366226620
   39         73.763945000000        -0.029842811892
   40         30.897007000000        -0.032407653450
   41         12.999482000000         0.025017929087
   42          5.487679300000         0.169388739518
   43          2.322571600000         0.179353409686
   44          0.984980700000        -0.175998122536
   45          0.418397300000        -0.349519893928
   46          0.177959400000        -0.131341135948
   47          0.071183800000        -0.002330088460
   48     455476.770000000019         0.000029293829
   49      64817.743000000002         0.000092669405
   50      19256.987000000001         0.000200234558
   51       6877.007300000000         0.000548457008
   52       2643.487700000000         0.001492878371
   53       1054.237500000000         0.004178463464
   54        429.371220000000         0.011570006868
   55        177.188590000000         0.028626179791
   56         73.763945000000         0.060205064235
   57         30.897007000000         0.066923947887
   58         12.999482000000        -0.073218465728
   59          5.487679300000        -0.352710523359
   60          2.322571600000        -0.565052459693
   61          0.984980700000         1.607579720427
   62          0.418397300000         0.002261897143
   63          0.177959400000        -1.004089158553
   64          0.071183800000        -0.038901526429
 P 36
    1       1462.496200000000         0.000953778861
    2        354.067310000000         0.006154803547
    3        126.697790000000         0.025542836348
    4         49.989095000000         0.092205928584
    5         20.509295000000         0.241884116579
    6          8.580464100000         0.412818109274
    7          3.630104900000         0.341250571278
    8          1.546528000000         0.072310428189
    9          0.661936900000         0.003484581720
   10          0.284242800000         0.000287931557
   11          0.122346300000         0.000472074870
   12          0.048938500000        -0.000084748169
   13       1462.496200000000         0.000026235086
   14        354.067310000000         0.000169995019
   15        126.697790000000         0.000711439907
   16         49.989095000000         0.002623352499
   17         20.509295000000         0.007109160998
   18          8.580464100000         0.012749379913
   19          3.630104900000         0.010538615595
   20          1.546528000000        -0.015474852404
   21          0.661936900000        -0.042715607856
   22          0.284242800000        -0.039183408849
   23          0.122346300000        -0.014015860083
   24          0.048938500000        -0.000646315746
   25       1462.496200000000         0.000029094117
   26        354.067310000000         0.000176965639
   27        126.697790000000         0.000805459307
   28         49.989095000000         0.002740825484
   29         20.509295000000         0.008318203300
   30          8.580464100000         0.012438010971
   31          3.630104900000         0.015178009534
   32          1.546528000000        -0.038928116045
   33          0.661936900000        -0.063618266234
   34          0.284242800000         0.044138585200
   35          0.122346300000         0.052289181049
   36          0.048938500000         0.005381892768
 P 36
    1       1462.496200000000        -0.000122479929
    2        354.067310000000        -0.000790371782
    3        126.697790000000        -0.003280094471
    4         49.989095000000        -0.011840664539
    5         20.509295000000        -0.031061654340
    6          8.580464100000        -0.053012217573
    7          3.630104900000        -0.043821840963
    8          1.546528000000        -0.009285775178
    9          0.661936900000        -0.000447474082
   10          0.284242800000        -0.000036974857
   11          0.122346300000        -0.000060621700
   12          0.048938500000         0.000010882973
   13       1462.496200000000         0.000227534090
   14        354.067310000000         0.001474348588
   15        126.697790000000         0.006170242084
   16         49.989095000000         0.022752055144
   17         20.509295000000         0.061656991620
   18          8.580464100000         0.110574005941
   19          3.630104900000         0.091400283887
   20          1.546528000000        -0.134211736829
   21          0.661936900000        -0.370467890123
   22          0.284242800000        -0.339833506599
   23          0.122346300000        -0.121558052754
   24          0.048938500000        -0.005605427216
   25       1462.496200000000         0.000184346168
   26        354.067310000000         0.001121289829
   27        126.697790000000         0.005103551919
   28         49.989095000000         0.017366420670
   29         20.509295000000         0.052705806536
   30          8.580464100000         0.078809735267
   31          3.630104900000         0.096170916394
   32          1.546528000000        -0.246656360654
   33          0.661936900000        -0.403098110430
   34          0.284242800000         0.279670939564
   35          0.122346300000         0.331314751631
   36          0.048938500000         0.034100753351
 P 35
    1       1462.496200000000        -0.000018562011
    2        354.067310000000        -0.000119781992
    3        126.697790000000        -0.000497103085
    4         49.989095000000        -0.001794469921
    5         20.509295000000        -0.004707438864
    6          8.580464100000        -0.008034078627
    7          3.630104900000        -0.006641263693
    8          1.546528000000        -0.001407272725
    9          0.661936900000        -0.000067815347
   10          0.284242800000        -0.000005603593
   11          0.122346300000        -0.000009187307
   12       1462.496200000000        -0.000153317786
   13        354.067310000000        -0.000993450522
   14        126.697790000000        -0.004157653266
   15         49.989095000000        -0.015330866293
   16         20.509295000000        -0.041545921395
   17          8.580464100000        -0.074507348452
   18          3.630104900000        -0.061587646592
   19          1.546528000000         0.090435003754
   20          0.661936900000         0.249629919300
   21          0.284242800000         0.228987755996
   22          0.122346300000         0.081908655806
   23          0.048938500000         0.003777067813
   24       1462.496200000000         0.000278560789
   25        354.067310000000         0.001694352435
   26        126.697790000000         0.007711847015
   27         49.989095000000         0.026241954922
   28         20.509295000000         0.079642398716
   29          8.580464100000         0.119087379008
   30          3.630104900000         0.145321416589
   31          1.546528000000        -0.372716129628
   32          0.661936900000        -0.609111263870
   33          0.284242800000         0.422603616981
   34          0.122346300000         0.500641262967
   35          0.048938500000         0.051528777821
 D 5
    1          4.328841700000         0.027886140074
    2          1.774230200000         0.193753660516
    3          0.727190600000         0.602274991605
    4          0.298048200000         0.305103490813
    5          0.119219300000         0.028800580077
 end
  // -----------------------------------------------
  // The basis set
  // -----------------------------------------------
  BAS[ATNO] = new BFNGauss[NSH];
  // Basis function   1 L = s
  InitBFNGauss(BAS[ATNO][  0]);
  BAS[ATNO][  0].l  = 0;
  BAS[ATNO][  0].ng = 68;
  BAS[ATNO][  0].a[  0] =    455476.770000000019;     BAS[ATNO][  0].d[  0] =         0.000319857222;
  BAS[ATNO][  0].a[  1] =     64817.743000000002;     BAS[ATNO][  0].d[  1] =         0.001011611213;
  BAS[ATNO][  0].a[  2] =     19256.987000000001;     BAS[ATNO][  0].d[  2] =         0.002170201149;
  BAS[ATNO][  0].a[  3] =      6877.007300000000;     BAS[ATNO][  0].d[  3] =         0.005962898206;
  BAS[ATNO][  0].a[  4] =      2643.487700000000;     BAS[ATNO][  0].d[  4] =         0.015907981821;
  BAS[ATNO][  0].a[  5] =      1054.237500000000;     BAS[ATNO][  0].d[  5] =         0.044046507407;
  BAS[ATNO][  0].a[  6] =       429.371220000000;     BAS[ATNO][  0].d[  6] =         0.114459225793;
  BAS[ATNO][  0].a[  7] =       177.188590000000;     BAS[ATNO][  0].d[  7] =         0.254626458283;
  BAS[ATNO][  0].a[  8] =        73.763945000000;     BAS[ATNO][  0].d[  8] =         0.398474198804;
  BAS[ATNO][  0].a[  9] =        30.897007000000;     BAS[ATNO][  0].d[  9] =         0.278947537027;
  BAS[ATNO][  0].a[ 10] =        12.999482000000;     BAS[ATNO][  0].d[ 10] =         0.038335007017;
  BAS[ATNO][  0].a[ 11] =         5.487679300000;     BAS[ATNO][  0].d[ 11] =         0.003118582912;
  BAS[ATNO][  0].a[ 12] =         2.322571600000;     BAS[ATNO][  0].d[ 12] =        -0.001384657973;
  BAS[ATNO][  0].a[ 13] =         0.984980700000;     BAS[ATNO][  0].d[ 13] =         0.001002731290;
  BAS[ATNO][  0].a[ 14] =         0.418397300000;     BAS[ATNO][  0].d[ 14] =        -0.000643174413;
  BAS[ATNO][  0].a[ 15] =         0.177959400000;     BAS[ATNO][  0].d[ 15] =         0.000282017550;
  BAS[ATNO][  0].a[ 16] =         0.071183800000;     BAS[ATNO][  0].d[ 16] =        -0.000076279337;
  BAS[ATNO][  0].a[ 17] =    455476.770000000019;     BAS[ATNO][  0].d[ 17] =         0.000000373349;
  BAS[ATNO][  0].a[ 18] =     64817.743000000002;     BAS[ATNO][  0].d[ 18] =         0.000001182416;
  BAS[ATNO][  0].a[ 19] =     19256.987000000001;     BAS[ATNO][  0].d[ 19] =         0.000002543695;
  BAS[ATNO][  0].a[ 20] =      6877.007300000000;     BAS[ATNO][  0].d[ 20] =         0.000007012220;
  BAS[ATNO][  0].a[ 21] =      2643.487700000000;     BAS[ATNO][  0].d[ 21] =         0.000018890749;
  BAS[ATNO][  0].a[ 22] =      1054.237500000000;     BAS[ATNO][  0].d[ 22] =         0.000053258751;
  BAS[ATNO][  0].a[ 23] =       429.371220000000;     BAS[ATNO][  0].d[ 23] =         0.000144964323;
  BAS[ATNO][  0].a[ 24] =       177.188590000000;     BAS[ATNO][  0].d[ 24] =         0.000357198827;
  BAS[ATNO][  0].a[ 25] =        73.763945000000;     BAS[ATNO][  0].d[ 25] =         0.000712748970;
  BAS[ATNO][  0].a[ 26] =        30.897007000000;     BAS[ATNO][  0].d[ 26] =         0.000757867417;
  BAS[ATNO][  0].a[ 27] =        12.999482000000;     BAS[ATNO][  0].d[ 27] =        -0.000558449037;
  BAS[ATNO][  0].a[ 28] =         5.487679300000;     BAS[ATNO][  0].d[ 28] =        -0.002588803174;
  BAS[ATNO][  0].a[ 29] =         2.322571600000;     BAS[ATNO][  0].d[ 29] =        -0.001558235430;
  BAS[ATNO][  0].a[ 30] =         0.984980700000;     BAS[ATNO][  0].d[ 30] =        -0.000020293022;
  BAS[ATNO][  0].a[ 31] =         0.418397300000;     BAS[ATNO][  0].d[ 31] =        -0.000047851977;
  BAS[ATNO][  0].a[ 32] =         0.177959400000;     BAS[ATNO][  0].d[ 32] =         0.000018175622;
  BAS[ATNO][  0].a[ 33] =         0.071183800000;     BAS[ATNO][  0].d[ 33] =        -0.000005267068;
  BAS[ATNO][  0].a[ 34] =    455476.770000000019;     BAS[ATNO][  0].d[ 34] =         0.000000019105;
  BAS[ATNO][  0].a[ 35] =     64817.743000000002;     BAS[ATNO][  0].d[ 35] =         0.000000060455;
  BAS[ATNO][  0].a[ 36] =     19256.987000000001;     BAS[ATNO][  0].d[ 36] =         0.000000130533;
  BAS[ATNO][  0].a[ 37] =      6877.007300000000;     BAS[ATNO][  0].d[ 37] =         0.000000357716;
  BAS[ATNO][  0].a[ 38] =      2643.487700000000;     BAS[ATNO][  0].d[ 38] =         0.000000972916;
  BAS[ATNO][  0].a[ 39] =      1054.237500000000;     BAS[ATNO][  0].d[ 39] =         0.000002720305;
  BAS[ATNO][  0].a[ 40] =       429.371220000000;     BAS[ATNO][  0].d[ 40] =         0.000007519215;
  BAS[ATNO][  0].a[ 41] =       177.188590000000;     BAS[ATNO][  0].d[ 41] =         0.000018500907;
  BAS[ATNO][  0].a[ 42] =        73.763945000000;     BAS[ATNO][  0].d[ 42] =         0.000038431740;
  BAS[ATNO][  0].a[ 43] =        30.897007000000;     BAS[ATNO][  0].d[ 43] =         0.000041734757;
  BAS[ATNO][  0].a[ 44] =        12.999482000000;     BAS[ATNO][  0].d[ 44] =        -0.000032218229;
  BAS[ATNO][  0].a[ 45] =         5.487679300000;     BAS[ATNO][  0].d[ 45] =        -0.000218139764;
  BAS[ATNO][  0].a[ 46] =         2.322571600000;     BAS[ATNO][  0].d[ 46] =        -0.000230972322;
  BAS[ATNO][  0].a[ 47] =         0.984980700000;     BAS[ATNO][  0].d[ 47] =         0.000226651364;
  BAS[ATNO][  0].a[ 48] =         0.418397300000;     BAS[ATNO][  0].d[ 48] =         0.000450113670;
  BAS[ATNO][  0].a[ 49] =         0.177959400000;     BAS[ATNO][  0].d[ 49] =         0.000169141848;
  BAS[ATNO][  0].a[ 50] =         0.071183800000;     BAS[ATNO][  0].d[ 50] =         0.000003000701;
  BAS[ATNO][  0].a[ 51] =    455476.770000000019;     BAS[ATNO][  0].d[ 51] =         0.000000019103;
  BAS[ATNO][  0].a[ 52] =     64817.743000000002;     BAS[ATNO][  0].d[ 52] =         0.000000060433;
  BAS[ATNO][  0].a[ 53] =     19256.987000000001;     BAS[ATNO][  0].d[ 53] =         0.000000130580;
  BAS[ATNO][  0].a[ 54] =      6877.007300000000;     BAS[ATNO][  0].d[ 54] =         0.000000357667;
  BAS[ATNO][  0].a[ 55] =      2643.487700000000;     BAS[ATNO][  0].d[ 55] =         0.000000973555;
  BAS[ATNO][  0].a[ 56] =      1054.237500000000;     BAS[ATNO][  0].d[ 56] =         0.000002724914;
  BAS[ATNO][  0].a[ 57] =       429.371220000000;     BAS[ATNO][  0].d[ 57] =         0.000007545185;
  BAS[ATNO][  0].a[ 58] =       177.188590000000;     BAS[ATNO][  0].d[ 58] =         0.000018668080;
  BAS[ATNO][  0].a[ 59] =        73.763945000000;     BAS[ATNO][  0].d[ 59] =         0.000039261717;
  BAS[ATNO][  0].a[ 60] =        30.897007000000;     BAS[ATNO][  0].d[ 60] =         0.000043643323;
  BAS[ATNO][  0].a[ 61] =        12.999482000000;     BAS[ATNO][  0].d[ 61] =        -0.000047748187;
  BAS[ATNO][  0].a[ 62] =         5.487679300000;     BAS[ATNO][  0].d[ 62] =        -0.000230014215;
  BAS[ATNO][  0].a[ 63] =         2.322571600000;     BAS[ATNO][  0].d[ 63] =        -0.000368489425;
  BAS[ATNO][  0].a[ 64] =         0.984980700000;     BAS[ATNO][  0].d[ 64] =         0.001048355982;
  BAS[ATNO][  0].a[ 65] =         0.418397300000;     BAS[ATNO][  0].d[ 65] =         0.000001475058;
  BAS[ATNO][  0].a[ 66] =         0.177959400000;     BAS[ATNO][  0].d[ 66] =        -0.000654799798;
  BAS[ATNO][  0].a[ 67] =         0.071183800000;     BAS[ATNO][  0].d[ 67] =        -0.000025368974;

  // Basis function   2 L = s
  InitBFNGauss(BAS[ATNO][  1]);
  BAS[ATNO][  1].l  = 0;
  BAS[ATNO][  1].ng = 67;
  BAS[ATNO][  1].a[  0] =    455476.770000000019;     BAS[ATNO][  1].d[  0] =         0.000001328493;
  BAS[ATNO][  1].a[  1] =     64817.743000000002;     BAS[ATNO][  1].d[  1] =         0.000004201620;
  BAS[ATNO][  1].a[  2] =     19256.987000000001;     BAS[ATNO][  1].d[  2] =         0.000009013700;
  BAS[ATNO][  1].a[  3] =      6877.007300000000;     BAS[ATNO][  1].d[  3] =         0.000024766263;
  BAS[ATNO][  1].a[  4] =      2643.487700000000;     BAS[ATNO][  1].d[  4] =         0.000066072110;
  BAS[ATNO][  1].a[  5] =      1054.237500000000;     BAS[ATNO][  1].d[  5] =         0.000182942483;
  BAS[ATNO][  1].a[  6] =       429.371220000000;     BAS[ATNO][  1].d[  6] =         0.000475394219;
  BAS[ATNO][  1].a[  7] =       177.188590000000;     BAS[ATNO][  1].d[  7] =         0.001057563908;
  BAS[ATNO][  1].a[  8] =        73.763945000000;     BAS[ATNO][  1].d[  8] =         0.001655020197;
  BAS[ATNO][  1].a[  9] =        30.897007000000;     BAS[ATNO][  1].d[  9] =         0.001158578922;
  BAS[ATNO][  1].a[ 10] =        12.999482000000;     BAS[ATNO][  1].d[ 10] =         0.000159220374;
  BAS[ATNO][  1].a[ 11] =         5.487679300000;     BAS[ATNO][  1].d[ 11] =         0.000012952702;
  BAS[ATNO][  1].a[ 12] =         2.322571600000;     BAS[ATNO][  1].d[ 12] =        -0.000005751030;
  BAS[ATNO][  1].a[ 13] =         0.984980700000;     BAS[ATNO][  1].d[ 13] =         0.000004164738;
  BAS[ATNO][  1].a[ 14] =         0.418397300000;     BAS[ATNO][  1].d[ 14] =        -0.000002671357;
  BAS[ATNO][  1].a[ 15] =         0.177959400000;     BAS[ATNO][  1].d[ 15] =         0.000001171330;
  BAS[ATNO][  1].a[ 16] =    455476.770000000019;     BAS[ATNO][  1].d[ 16] =        -0.000090869531;
  BAS[ATNO][  1].a[ 17] =     64817.743000000002;     BAS[ATNO][  1].d[ 17] =        -0.000287788262;
  BAS[ATNO][  1].a[ 18] =     19256.987000000001;     BAS[ATNO][  1].d[ 18] =        -0.000619110107;
  BAS[ATNO][  1].a[ 19] =      6877.007300000000;     BAS[ATNO][  1].d[ 19] =        -0.001706705115;
  BAS[ATNO][  1].a[ 20] =      2643.487700000000;     BAS[ATNO][  1].d[ 20] =        -0.004597821545;
  BAS[ATNO][  1].a[ 21] =      1054.237500000000;     BAS[ATNO][  1].d[ 21] =        -0.012962653240;
  BAS[ATNO][  1].a[ 22] =       429.371220000000;     BAS[ATNO][  1].d[ 22] =        -0.035282882589;
  BAS[ATNO][  1].a[ 23] =       177.188590000000;     BAS[ATNO][  1].d[ 23] =        -0.086938661666;
  BAS[ATNO][  1].a[ 24] =        73.763945000000;     BAS[ATNO][  1].d[ 24] =        -0.173476049918;
  BAS[ATNO][  1].a[ 25] =        30.897007000000;     BAS[ATNO][  1].d[ 25] =        -0.184457433666;
  BAS[ATNO][  1].a[ 26] =        12.999482000000;     BAS[ATNO][  1].d[ 26] =         0.135920972377;
  BAS[ATNO][  1].a[ 27] =         5.487679300000;     BAS[ATNO][  1].d[ 27] =         0.630089088554;
  BAS[ATNO][  1].a[ 28] =         2.322571600000;     BAS[ATNO][  1].d[ 28] =         0.379259092158;
  BAS[ATNO][  1].a[ 29] =         0.984980700000;     BAS[ATNO][  1].d[ 29] =         0.004939120871;
  BAS[ATNO][  1].a[ 30] =         0.418397300000;     BAS[ATNO][  1].d[ 30] =         0.011646698029;
  BAS[ATNO][  1].a[ 31] =         0.177959400000;     BAS[ATNO][  1].d[ 31] =        -0.004423766632;
  BAS[ATNO][  1].a[ 32] =         0.071183800000;     BAS[ATNO][  1].d[ 32] =         0.001281952355;
  BAS[ATNO][  1].a[ 33] =    455476.770000000019;     BAS[ATNO][  1].d[ 33] =        -0.000002632802;
  BAS[ATNO][  1].a[ 34] =     64817.743000000002;     BAS[ATNO][  1].d[ 34] =        -0.000008330984;
  BAS[ATNO][  1].a[ 35] =     19256.987000000001;     BAS[ATNO][  1].d[ 35] =        -0.000017987932;
  BAS[ATNO][  1].a[ 36] =      6877.007300000000;     BAS[ATNO][  1].d[ 36] =        -0.000049294692;
  BAS[ATNO][  1].a[ 37] =      2643.487700000000;     BAS[ATNO][  1].d[ 37] =        -0.000134071654;
  BAS[ATNO][  1].a[ 38] =      1054.237500000000;     BAS[ATNO][  1].d[ 38] =        -0.000374868788;
  BAS[ATNO][  1].a[ 39] =       429.371220000000;     BAS[ATNO][  1].d[ 39] =        -0.001036177538;
  BAS[ATNO][  1].a[ 40] =       177.188590000000;     BAS[ATNO][  1].d[ 40] =        -0.002549497896;
  BAS[ATNO][  1].a[ 41] =        73.763945000000;     BAS[ATNO][  1].d[ 41] =        -0.005296045242;
  BAS[ATNO][  1].a[ 42] =        30.897007000000;     BAS[ATNO][  1].d[ 42] =        -0.005751214043;
  BAS[ATNO][  1].a[ 43] =        12.999482000000;     BAS[ATNO][  1].d[ 43] =         0.004439798930;
  BAS[ATNO][  1].a[ 44] =         5.487679300000;     BAS[ATNO][  1].d[ 44] =         0.030060519469;
  BAS[ATNO][  1].a[ 45] =         2.322571600000;     BAS[ATNO][  1].d[ 45] =         0.031828896531;
  BAS[ATNO][  1].a[ 46] =         0.984980700000;     BAS[ATNO][  1].d[ 46] =        -0.031233451551;
  BAS[ATNO][  1].a[ 47] =         0.418397300000;     BAS[ATNO][  1].d[ 47] =        -0.062027438223;
  BAS[ATNO][  1].a[ 48] =         0.177959400000;     BAS[ATNO][  1].d[ 48] =        -0.023308413449;
  BAS[ATNO][  1].a[ 49] =         0.071183800000;     BAS[ATNO][  1].d[ 49] =        -0.000413508417;
  BAS[ATNO][  1].a[ 50] =    455476.770000000019;     BAS[ATNO][  1].d[ 50] =        -0.000002659608;
  BAS[ATNO][  1].a[ 51] =     64817.743000000002;     BAS[ATNO][  1].d[ 51] =        -0.000008413521;
  BAS[ATNO][  1].a[ 52] =     19256.987000000001;     BAS[ATNO][  1].d[ 52] =        -0.000018179438;
  BAS[ATNO][  1].a[ 53] =      6877.007300000000;     BAS[ATNO][  1].d[ 53] =        -0.000049794802;
  BAS[ATNO][  1].a[ 54] =      2643.487700000000;     BAS[ATNO][  1].d[ 54] =        -0.000135539491;
  BAS[ATNO][  1].a[ 55] =      1054.237500000000;     BAS[ATNO][  1].d[ 55] =        -0.000379365675;
  BAS[ATNO][  1].a[ 56] =       429.371220000000;     BAS[ATNO][  1].d[ 56] =        -0.001050449166;
  BAS[ATNO][  1].a[ 57] =       177.188590000000;     BAS[ATNO][  1].d[ 57] =        -0.002598991256;
  BAS[ATNO][  1].a[ 58] =        73.763945000000;     BAS[ATNO][  1].d[ 58] =        -0.005466060671;
  BAS[ATNO][  1].a[ 59] =        30.897007000000;     BAS[ATNO][  1].d[ 59] =        -0.006076072904;
  BAS[ATNO][  1].a[ 60] =        12.999482000000;     BAS[ATNO][  1].d[ 60] =         0.006647556663;
  BAS[ATNO][  1].a[ 61] =         5.487679300000;     BAS[ATNO][  1].d[ 61] =         0.032022839679;
  BAS[ATNO][  1].a[ 62] =         2.322571600000;     BAS[ATNO][  1].d[ 62] =         0.051301515347;
  BAS[ATNO][  1].a[ 63] =         0.984980700000;     BAS[ATNO][  1].d[ 63] =        -0.145953308024;
  BAS[ATNO][  1].a[ 64] =         0.418397300000;     BAS[ATNO][  1].d[ 64] =        -0.000205359253;
  BAS[ATNO][  1].a[ 65] =         0.177959400000;     BAS[ATNO][  1].d[ 65] =         0.091161969997;
  BAS[ATNO][  1].a[ 66] =         0.071183800000;     BAS[ATNO][  1].d[ 66] =         0.003531897297;

  // Basis function   3 L = s
  InitBFNGauss(BAS[ATNO][  2]);
  BAS[ATNO][  2].l  = 0;
  BAS[ATNO][  2].ng = 65;
  BAS[ATNO][  2].a[  0] =    455476.770000000019;     BAS[ATNO][  2].d[  0] =        -0.000000117145;
  BAS[ATNO][  2].a[  1] =     64817.743000000002;     BAS[ATNO][  2].d[  1] =        -0.000000370493;
  BAS[ATNO][  2].a[  2] =     19256.987000000001;     BAS[ATNO][  2].d[  2] =        -0.000000794816;
  BAS[ATNO][  2].a[  3] =      6877.007300000000;     BAS[ATNO][  2].d[  3] =        -0.000002183856;
  BAS[ATNO][  2].a[  4] =      2643.487700000000;     BAS[ATNO][  2].d[  4] =        -0.000005826150;
  BAS[ATNO][  2].a[  5] =      1054.237500000000;     BAS[ATNO][  2].d[  5] =        -0.000016131623;
  BAS[ATNO][  2].a[  6] =       429.371220000000;     BAS[ATNO][  2].d[  6] =        -0.000041919626;
  BAS[ATNO][  2].a[  7] =       177.188590000000;     BAS[ATNO][  2].d[  7] =        -0.000093254570;
  BAS[ATNO][  2].a[  8] =        73.763945000000;     BAS[ATNO][  2].d[  8] =        -0.000145937466;
  BAS[ATNO][  2].a[  9] =        30.897007000000;     BAS[ATNO][  2].d[  9] =        -0.000102161939;
  BAS[ATNO][  2].a[ 10] =        12.999482000000;     BAS[ATNO][  2].d[ 10] =        -0.000014039839;
  BAS[ATNO][  2].a[ 11] =         5.487679300000;     BAS[ATNO][  2].d[ 11] =        -0.000001142152;
  BAS[ATNO][  2].a[ 12] =         2.322571600000;     BAS[ATNO][  2].d[ 12] =         0.000000507118;
  BAS[ATNO][  2].a[ 13] =         0.984980700000;     BAS[ATNO][  2].d[ 13] =        -0.000000367241;
  BAS[ATNO][  2].a[ 14] =    455476.770000000019;     BAS[ATNO][  2].d[ 14] =        -0.000010811651;
  BAS[ATNO][  2].a[ 15] =     64817.743000000002;     BAS[ATNO][  2].d[ 15] =        -0.000034241029;
  BAS[ATNO][  2].a[ 16] =     19256.987000000001;     BAS[ATNO][  2].d[ 16] =        -0.000073661680;
  BAS[ATNO][  2].a[ 17] =      6877.007300000000;     BAS[ATNO][  2].d[ 17] =        -0.000203063664;
  BAS[ATNO][  2].a[ 18] =      2643.487700000000;     BAS[ATNO][  2].d[ 18] =        -0.000547048509;
  BAS[ATNO][  2].a[ 19] =      1054.237500000000;     BAS[ATNO][  2].d[ 19] =        -0.001542295641;
  BAS[ATNO][  2].a[ 20] =       429.371220000000;     BAS[ATNO][  2].d[ 20] =        -0.004197955079;
  BAS[ATNO][  2].a[ 21] =       177.188590000000;     BAS[ATNO][  2].d[ 21] =        -0.010343956320;
  BAS[ATNO][  2].a[ 22] =        73.763945000000;     BAS[ATNO][  2].d[ 22] =        -0.020640169155;
  BAS[ATNO][  2].a[ 23] =        30.897007000000;     BAS[ATNO][  2].d[ 23] =        -0.021946733480;
  BAS[ATNO][  2].a[ 24] =        12.999482000000;     BAS[ATNO][  2].d[ 24] =         0.016171868467;
  BAS[ATNO][  2].a[ 25] =         5.487679300000;     BAS[ATNO][  2].d[ 25] =         0.074967958842;
  BAS[ATNO][  2].a[ 26] =         2.322571600000;     BAS[ATNO][  2].d[ 26] =         0.045124222158;
  BAS[ATNO][  2].a[ 27] =         0.984980700000;     BAS[ATNO][  2].d[ 27] =         0.000587656280;
  BAS[ATNO][  2].a[ 28] =         0.418397300000;     BAS[ATNO][  2].d[ 28] =         0.001385723375;
  BAS[ATNO][  2].a[ 29] =         0.177959400000;     BAS[ATNO][  2].d[ 29] =        -0.000526339467;
  BAS[ATNO][  2].a[ 30] =         0.071183800000;     BAS[ATNO][  2].d[ 30] =         0.000152526608;
  BAS[ATNO][  2].a[ 31] =    455476.770000000019;     BAS[ATNO][  2].d[ 31] =         0.000024673059;
  BAS[ATNO][  2].a[ 32] =     64817.743000000002;     BAS[ATNO][  2].d[ 32] =         0.000078073036;
  BAS[ATNO][  2].a[ 33] =     19256.987000000001;     BAS[ATNO][  2].d[ 33] =         0.000168572213;
  BAS[ATNO][  2].a[ 34] =      6877.007300000000;     BAS[ATNO][  2].d[ 34] =         0.000461960576;
  BAS[ATNO][  2].a[ 35] =      2643.487700000000;     BAS[ATNO][  2].d[ 35] =         0.001256439913;
  BAS[ATNO][  2].a[ 36] =      1054.237500000000;     BAS[ATNO][  2].d[ 36] =         0.003513047645;
  BAS[ATNO][  2].a[ 37] =       429.371220000000;     BAS[ATNO][  2].d[ 37] =         0.009710440503;
  BAS[ATNO][  2].a[ 38] =       177.188590000000;     BAS[ATNO][  2].d[ 38] =         0.023892380139;
  BAS[ATNO][  2].a[ 39] =        73.763945000000;     BAS[ATNO][  2].d[ 39] =         0.049631390694;
  BAS[ATNO][  2].a[ 40] =        30.897007000000;     BAS[ATNO][  2].d[ 40] =         0.053896962380;
  BAS[ATNO][  2].a[ 41] =        12.999482000000;     BAS[ATNO][  2].d[ 41] =        -0.041607158781;
  BAS[ATNO][  2].a[ 42] =         5.487679300000;     BAS[ATNO][  2].d[ 42] =        -0.281709335586;
  BAS[ATNO][  2].a[ 43] =         2.322571600000;     BAS[ATNO][  2].d[ 43] =        -0.298281515178;
  BAS[ATNO][  2].a[ 44] =         0.984980700000;     BAS[ATNO][  2].d[ 44] =         0.292701358455;
  BAS[ATNO][  2].a[ 45] =         0.418397300000;     BAS[ATNO][  2].d[ 45] =         0.581284313068;
  BAS[ATNO][  2].a[ 46] =         0.177959400000;     BAS[ATNO][  2].d[ 46] =         0.218432608024;
  BAS[ATNO][  2].a[ 47] =         0.071183800000;     BAS[ATNO][  2].d[ 47] =         0.003875155301;
  BAS[ATNO][  2].a[ 48] =    455476.770000000019;     BAS[ATNO][  2].d[ 48] =         0.000017330243;
  BAS[ATNO][  2].a[ 49] =     64817.743000000002;     BAS[ATNO][  2].d[ 49] =         0.000054823265;
  BAS[ATNO][  2].a[ 50] =     19256.987000000001;     BAS[ATNO][  2].d[ 50] =         0.000118458863;
  BAS[ATNO][  2].a[ 51] =      6877.007300000000;     BAS[ATNO][  2].d[ 51] =         0.000324467435;
  BAS[ATNO][  2].a[ 52] =      2643.487700000000;     BAS[ATNO][  2].d[ 52] =         0.000883187577;
  BAS[ATNO][  2].a[ 53] =      1054.237500000000;     BAS[ATNO][  2].d[ 53] =         0.002471981036;
  BAS[ATNO][  2].a[ 54] =       429.371220000000;     BAS[ATNO][  2].d[ 54] =         0.006844821742;
  BAS[ATNO][  2].a[ 55] =       177.188590000000;     BAS[ATNO][  2].d[ 55] =         0.016935262014;
  BAS[ATNO][  2].a[ 56] =        73.763945000000;     BAS[ATNO][  2].d[ 56] =         0.035617345549;
  BAS[ATNO][  2].a[ 57] =        30.897007000000;     BAS[ATNO][  2].d[ 57] =         0.039592240415;
  BAS[ATNO][  2].a[ 58] =        12.999482000000;     BAS[ATNO][  2].d[ 58] =        -0.043316080259;
  BAS[ATNO][  2].a[ 59] =         5.487679300000;     BAS[ATNO][  2].d[ 59] =        -0.208663718724;
  BAS[ATNO][  2].a[ 60] =         2.322571600000;     BAS[ATNO][  2].d[ 60] =        -0.334285312473;
  BAS[ATNO][  2].a[ 61] =         0.984980700000;     BAS[ATNO][  2].d[ 61] =         0.951044951579;
  BAS[ATNO][  2].a[ 62] =         0.418397300000;     BAS[ATNO][  2].d[ 62] =         0.001338139460;
  BAS[ATNO][  2].a[ 63] =         0.177959400000;     BAS[ATNO][  2].d[ 63] =        -0.594019638991;
  BAS[ATNO][  2].a[ 64] =         0.071183800000;     BAS[ATNO][  2].d[ 64] =        -0.023014162128;

  // Basis function   4 L = s
  InitBFNGauss(BAS[ATNO][  3]);
  BAS[ATNO][  3].l  = 0;
  BAS[ATNO][  3].ng = 64;
  BAS[ATNO][  3].a[  0] =    455476.770000000019;     BAS[ATNO][  3].d[  0] =        -0.000000018670;
  BAS[ATNO][  3].a[  1] =     64817.743000000002;     BAS[ATNO][  3].d[  1] =        -0.000000059048;
  BAS[ATNO][  3].a[  2] =     19256.987000000001;     BAS[ATNO][  3].d[  2] =        -0.000000126674;
  BAS[ATNO][  3].a[  3] =      6877.007300000000;     BAS[ATNO][  3].d[  3] =        -0.000000348054;
  BAS[ATNO][  3].a[  4] =      2643.487700000000;     BAS[ATNO][  3].d[  4] =        -0.000000928547;
  BAS[ATNO][  3].a[  5] =      1054.237500000000;     BAS[ATNO][  3].d[  5] =        -0.000002570989;
  BAS[ATNO][  3].a[  6] =       429.371220000000;     BAS[ATNO][  3].d[  6] =        -0.000006680971;
  BAS[ATNO][  3].a[  7] =       177.188590000000;     BAS[ATNO][  3].d[  7] =        -0.000014862516;
  BAS[ATNO][  3].a[  8] =        73.763945000000;     BAS[ATNO][  3].d[  8] =        -0.000023258891;
  BAS[ATNO][  3].a[  9] =        30.897007000000;     BAS[ATNO][  3].d[  9] =        -0.000016282134;
  BAS[ATNO][  3].a[ 10] =        12.999482000000;     BAS[ATNO][  3].d[ 10] =        -0.000002237610;
  BAS[ATNO][  3].a[ 11] =         5.487679300000;     BAS[ATNO][  3].d[ 11] =        -0.000000182031;
  BAS[ATNO][  3].a[ 12] =         2.322571600000;     BAS[ATNO][  3].d[ 12] =         0.000000080822;
  BAS[ATNO][  3].a[ 13] =    455476.770000000019;     BAS[ATNO][  3].d[ 13] =        -0.000001854175;
  BAS[ATNO][  3].a[ 14] =     64817.743000000002;     BAS[ATNO][  3].d[ 14] =        -0.000005872263;
  BAS[ATNO][  3].a[ 15] =     19256.987000000001;     BAS[ATNO][  3].d[ 15] =        -0.000012632820;
  BAS[ATNO][  3].a[ 16] =      6877.007300000000;     BAS[ATNO][  3].d[ 16] =        -0.000034824981;
  BAS[ATNO][  3].a[ 17] =      2643.487700000000;     BAS[ATNO][  3].d[ 17] =        -0.000093817642;
  BAS[ATNO][  3].a[ 18] =      1054.237500000000;     BAS[ATNO][  3].d[ 18] =        -0.000264500383;
  BAS[ATNO][  3].a[ 19] =       429.371220000000;     BAS[ATNO][  3].d[ 19] =        -0.000719940262;
  BAS[ATNO][  3].a[ 20] =       177.188590000000;     BAS[ATNO][  3].d[ 20] =        -0.001773966249;
  BAS[ATNO][  3].a[ 21] =        73.763945000000;     BAS[ATNO][  3].d[ 21] =        -0.003539744593;
  BAS[ATNO][  3].a[ 22] =        30.897007000000;     BAS[ATNO][  3].d[ 22] =        -0.003763817563;
  BAS[ATNO][  3].a[ 23] =        12.999482000000;     BAS[ATNO][  3].d[ 23] =         0.002773440641;
  BAS[ATNO][  3].a[ 24] =         5.487679300000;     BAS[ATNO][  3].d[ 24] =         0.012856843611;
  BAS[ATNO][  3].a[ 25] =         2.322571600000;     BAS[ATNO][  3].d[ 25] =         0.007738706993;
  BAS[ATNO][  3].a[ 26] =         0.984980700000;     BAS[ATNO][  3].d[ 26] =         0.000100781787;
  BAS[ATNO][  3].a[ 27] =         0.418397300000;     BAS[ATNO][  3].d[ 27] =         0.000237648577;
  BAS[ATNO][  3].a[ 28] =         0.177959400000;     BAS[ATNO][  3].d[ 28] =        -0.000090266086;
  BAS[ATNO][  3].a[ 29] =         0.071183800000;     BAS[ATNO][  3].d[ 29] =         0.000026157985;
  BAS[ATNO][  3].a[ 30] =    455476.770000000019;     BAS[ATNO][  3].d[ 30] =        -0.000014835640;
  BAS[ATNO][  3].a[ 31] =     64817.743000000002;     BAS[ATNO][  3].d[ 31] =        -0.000046944462;
  BAS[ATNO][  3].a[ 32] =     19256.987000000001;     BAS[ATNO][  3].d[ 32] =        -0.000101360626;
  BAS[ATNO][  3].a[ 33] =      6877.007300000000;     BAS[ATNO][  3].d[ 33] =        -0.000277771837;
  BAS[ATNO][  3].a[ 34] =      2643.487700000000;     BAS[ATNO][  3].d[ 34] =        -0.000755483565;
  BAS[ATNO][  3].a[ 35] =      1054.237500000000;     BAS[ATNO][  3].d[ 35] =        -0.002112357090;
  BAS[ATNO][  3].a[ 36] =       429.371220000000;     BAS[ATNO][  3].d[ 36] =        -0.005838781571;
  BAS[ATNO][  3].a[ 37] =       177.188590000000;     BAS[ATNO][  3].d[ 37] =        -0.014366226620;
  BAS[ATNO][  3].a[ 38] =        73.763945000000;     BAS[ATNO][  3].d[ 38] =        -0.029842811892;
  BAS[ATNO][  3].a[ 39] =        30.897007000000;     BAS[ATNO][  3].d[ 39] =        -0.032407653450;
  BAS[ATNO][  3].a[ 40] =        12.999482000000;     BAS[ATNO][  3].d[ 40] =         0.025017929087;
  BAS[ATNO][  3].a[ 41] =         5.487679300000;     BAS[ATNO][  3].d[ 41] =         0.169388739518;
  BAS[ATNO][  3].a[ 42] =         2.322571600000;     BAS[ATNO][  3].d[ 42] =         0.179353409686;
  BAS[ATNO][  3].a[ 43] =         0.984980700000;     BAS[ATNO][  3].d[ 43] =        -0.175998122536;
  BAS[ATNO][  3].a[ 44] =         0.418397300000;     BAS[ATNO][  3].d[ 44] =        -0.349519893928;
  BAS[ATNO][  3].a[ 45] =         0.177959400000;     BAS[ATNO][  3].d[ 45] =        -0.131341135948;
  BAS[ATNO][  3].a[ 46] =         0.071183800000;     BAS[ATNO][  3].d[ 46] =        -0.002330088460;
  BAS[ATNO][  3].a[ 47] =    455476.770000000019;     BAS[ATNO][  3].d[ 47] =         0.000029293829;
  BAS[ATNO][  3].a[ 48] =     64817.743000000002;     BAS[ATNO][  3].d[ 48] =         0.000092669405;
  BAS[ATNO][  3].a[ 49] =     19256.987000000001;     BAS[ATNO][  3].d[ 49] =         0.000200234558;
  BAS[ATNO][  3].a[ 50] =      6877.007300000000;     BAS[ATNO][  3].d[ 50] =         0.000548457008;
  BAS[ATNO][  3].a[ 51] =      2643.487700000000;     BAS[ATNO][  3].d[ 51] =         0.001492878371;
  BAS[ATNO][  3].a[ 52] =      1054.237500000000;     BAS[ATNO][  3].d[ 52] =         0.004178463464;
  BAS[ATNO][  3].a[ 53] =       429.371220000000;     BAS[ATNO][  3].d[ 53] =         0.011570006868;
  BAS[ATNO][  3].a[ 54] =       177.188590000000;     BAS[ATNO][  3].d[ 54] =         0.028626179791;
  BAS[ATNO][  3].a[ 55] =        73.763945000000;     BAS[ATNO][  3].d[ 55] =         0.060205064235;
  BAS[ATNO][  3].a[ 56] =        30.897007000000;     BAS[ATNO][  3].d[ 56] =         0.066923947887;
  BAS[ATNO][  3].a[ 57] =        12.999482000000;     BAS[ATNO][  3].d[ 57] =        -0.073218465728;
  BAS[ATNO][  3].a[ 58] =         5.487679300000;     BAS[ATNO][  3].d[ 58] =        -0.352710523359;
  BAS[ATNO][  3].a[ 59] =         2.322571600000;     BAS[ATNO][  3].d[ 59] =        -0.565052459693;
  BAS[ATNO][  3].a[ 60] =         0.984980700000;     BAS[ATNO][  3].d[ 60] =         1.607579720427;
  BAS[ATNO][  3].a[ 61] =         0.418397300000;     BAS[ATNO][  3].d[ 61] =         0.002261897143;
  BAS[ATNO][  3].a[ 62] =         0.177959400000;     BAS[ATNO][  3].d[ 62] =        -1.004089158553;
  BAS[ATNO][  3].a[ 63] =         0.071183800000;     BAS[ATNO][  3].d[ 63] =        -0.038901526429;

  // Basis function   5 L = p
  InitBFNGauss(BAS[ATNO][  4]);
  BAS[ATNO][  4].l  = 1;
  BAS[ATNO][  4].ng = 36;
  BAS[ATNO][  4].a[  0] =      1462.496200000000;     BAS[ATNO][  4].d[  0] =         0.000953778861;
  BAS[ATNO][  4].a[  1] =       354.067310000000;     BAS[ATNO][  4].d[  1] =         0.006154803547;
  BAS[ATNO][  4].a[  2] =       126.697790000000;     BAS[ATNO][  4].d[  2] =         0.025542836348;
  BAS[ATNO][  4].a[  3] =        49.989095000000;     BAS[ATNO][  4].d[  3] =         0.092205928584;
  BAS[ATNO][  4].a[  4] =        20.509295000000;     BAS[ATNO][  4].d[  4] =         0.241884116579;
  BAS[ATNO][  4].a[  5] =         8.580464100000;     BAS[ATNO][  4].d[  5] =         0.412818109274;
  BAS[ATNO][  4].a[  6] =         3.630104900000;     BAS[ATNO][  4].d[  6] =         0.341250571278;
  BAS[ATNO][  4].a[  7] =         1.546528000000;     BAS[ATNO][  4].d[  7] =         0.072310428189;
  BAS[ATNO][  4].a[  8] =         0.661936900000;     BAS[ATNO][  4].d[  8] =         0.003484581720;
  BAS[ATNO][  4].a[  9] =         0.284242800000;     BAS[ATNO][  4].d[  9] =         0.000287931557;
  BAS[ATNO][  4].a[ 10] =         0.122346300000;     BAS[ATNO][  4].d[ 10] =         0.000472074870;
  BAS[ATNO][  4].a[ 11] =         0.048938500000;     BAS[ATNO][  4].d[ 11] =        -0.000084748169;
  BAS[ATNO][  4].a[ 12] =      1462.496200000000;     BAS[ATNO][  4].d[ 12] =         0.000026235086;
  BAS[ATNO][  4].a[ 13] =       354.067310000000;     BAS[ATNO][  4].d[ 13] =         0.000169995019;
  BAS[ATNO][  4].a[ 14] =       126.697790000000;     BAS[ATNO][  4].d[ 14] =         0.000711439907;
  BAS[ATNO][  4].a[ 15] =        49.989095000000;     BAS[ATNO][  4].d[ 15] =         0.002623352499;
  BAS[ATNO][  4].a[ 16] =        20.509295000000;     BAS[ATNO][  4].d[ 16] =         0.007109160998;
  BAS[ATNO][  4].a[ 17] =         8.580464100000;     BAS[ATNO][  4].d[ 17] =         0.012749379913;
  BAS[ATNO][  4].a[ 18] =         3.630104900000;     BAS[ATNO][  4].d[ 18] =         0.010538615595;
  BAS[ATNO][  4].a[ 19] =         1.546528000000;     BAS[ATNO][  4].d[ 19] =        -0.015474852404;
  BAS[ATNO][  4].a[ 20] =         0.661936900000;     BAS[ATNO][  4].d[ 20] =        -0.042715607856;
  BAS[ATNO][  4].a[ 21] =         0.284242800000;     BAS[ATNO][  4].d[ 21] =        -0.039183408849;
  BAS[ATNO][  4].a[ 22] =         0.122346300000;     BAS[ATNO][  4].d[ 22] =        -0.014015860083;
  BAS[ATNO][  4].a[ 23] =         0.048938500000;     BAS[ATNO][  4].d[ 23] =        -0.000646315746;
  BAS[ATNO][  4].a[ 24] =      1462.496200000000;     BAS[ATNO][  4].d[ 24] =         0.000029094117;
  BAS[ATNO][  4].a[ 25] =       354.067310000000;     BAS[ATNO][  4].d[ 25] =         0.000176965639;
  BAS[ATNO][  4].a[ 26] =       126.697790000000;     BAS[ATNO][  4].d[ 26] =         0.000805459307;
  BAS[ATNO][  4].a[ 27] =        49.989095000000;     BAS[ATNO][  4].d[ 27] =         0.002740825484;
  BAS[ATNO][  4].a[ 28] =        20.509295000000;     BAS[ATNO][  4].d[ 28] =         0.008318203300;
  BAS[ATNO][  4].a[ 29] =         8.580464100000;     BAS[ATNO][  4].d[ 29] =         0.012438010971;
  BAS[ATNO][  4].a[ 30] =         3.630104900000;     BAS[ATNO][  4].d[ 30] =         0.015178009534;
  BAS[ATNO][  4].a[ 31] =         1.546528000000;     BAS[ATNO][  4].d[ 31] =        -0.038928116045;
  BAS[ATNO][  4].a[ 32] =         0.661936900000;     BAS[ATNO][  4].d[ 32] =        -0.063618266234;
  BAS[ATNO][  4].a[ 33] =         0.284242800000;     BAS[ATNO][  4].d[ 33] =         0.044138585200;
  BAS[ATNO][  4].a[ 34] =         0.122346300000;     BAS[ATNO][  4].d[ 34] =         0.052289181049;
  BAS[ATNO][  4].a[ 35] =         0.048938500000;     BAS[ATNO][  4].d[ 35] =         0.005381892768;

  // Basis function   6 L = p
  InitBFNGauss(BAS[ATNO][  5]);
  BAS[ATNO][  5].l  = 1;
  BAS[ATNO][  5].ng = 36;
  BAS[ATNO][  5].a[  0] =      1462.496200000000;     BAS[ATNO][  5].d[  0] =         0.000122479929;
  BAS[ATNO][  5].a[  1] =       354.067310000000;     BAS[ATNO][  5].d[  1] =         0.000790371782;
  BAS[ATNO][  5].a[  2] =       126.697790000000;     BAS[ATNO][  5].d[  2] =         0.003280094471;
  BAS[ATNO][  5].a[  3] =        49.989095000000;     BAS[ATNO][  5].d[  3] =         0.011840664539;
  BAS[ATNO][  5].a[  4] =        20.509295000000;     BAS[ATNO][  5].d[  4] =         0.031061654340;
  BAS[ATNO][  5].a[  5] =         8.580464100000;     BAS[ATNO][  5].d[  5] =         0.053012217573;
  BAS[ATNO][  5].a[  6] =         3.630104900000;     BAS[ATNO][  5].d[  6] =         0.043821840963;
  BAS[ATNO][  5].a[  7] =         1.546528000000;     BAS[ATNO][  5].d[  7] =         0.009285775178;
  BAS[ATNO][  5].a[  8] =         0.661936900000;     BAS[ATNO][  5].d[  8] =         0.000447474082;
  BAS[ATNO][  5].a[  9] =         0.284242800000;     BAS[ATNO][  5].d[  9] =         0.000036974857;
  BAS[ATNO][  5].a[ 10] =         0.122346300000;     BAS[ATNO][  5].d[ 10] =         0.000060621700;
  BAS[ATNO][  5].a[ 11] =         0.048938500000;     BAS[ATNO][  5].d[ 11] =        -0.000010882973;
  BAS[ATNO][  5].a[ 12] =      1462.496200000000;     BAS[ATNO][  5].d[ 12] =        -0.000227534090;
  BAS[ATNO][  5].a[ 13] =       354.067310000000;     BAS[ATNO][  5].d[ 13] =        -0.001474348588;
  BAS[ATNO][  5].a[ 14] =       126.697790000000;     BAS[ATNO][  5].d[ 14] =        -0.006170242084;
  BAS[ATNO][  5].a[ 15] =        49.989095000000;     BAS[ATNO][  5].d[ 15] =        -0.022752055144;
  BAS[ATNO][  5].a[ 16] =        20.509295000000;     BAS[ATNO][  5].d[ 16] =        -0.061656991620;
  BAS[ATNO][  5].a[ 17] =         8.580464100000;     BAS[ATNO][  5].d[ 17] =        -0.110574005941;
  BAS[ATNO][  5].a[ 18] =         3.630104900000;     BAS[ATNO][  5].d[ 18] =        -0.091400283887;
  BAS[ATNO][  5].a[ 19] =         1.546528000000;     BAS[ATNO][  5].d[ 19] =         0.134211736829;
  BAS[ATNO][  5].a[ 20] =         0.661936900000;     BAS[ATNO][  5].d[ 20] =         0.370467890123;
  BAS[ATNO][  5].a[ 21] =         0.284242800000;     BAS[ATNO][  5].d[ 21] =         0.339833506599;
  BAS[ATNO][  5].a[ 22] =         0.122346300000;     BAS[ATNO][  5].d[ 22] =         0.121558052754;
  BAS[ATNO][  5].a[ 23] =         0.048938500000;     BAS[ATNO][  5].d[ 23] =         0.005605427216;
  BAS[ATNO][  5].a[ 24] =      1462.496200000000;     BAS[ATNO][  5].d[ 24] =        -0.000184346168;
  BAS[ATNO][  5].a[ 25] =       354.067310000000;     BAS[ATNO][  5].d[ 25] =        -0.001121289829;
  BAS[ATNO][  5].a[ 26] =       126.697790000000;     BAS[ATNO][  5].d[ 26] =        -0.005103551919;
  BAS[ATNO][  5].a[ 27] =        49.989095000000;     BAS[ATNO][  5].d[ 27] =        -0.017366420670;
  BAS[ATNO][  5].a[ 28] =        20.509295000000;     BAS[ATNO][  5].d[ 28] =        -0.052705806536;
  BAS[ATNO][  5].a[ 29] =         8.580464100000;     BAS[ATNO][  5].d[ 29] =        -0.078809735267;
  BAS[ATNO][  5].a[ 30] =         3.630104900000;     BAS[ATNO][  5].d[ 30] =        -0.096170916394;
  BAS[ATNO][  5].a[ 31] =         1.546528000000;     BAS[ATNO][  5].d[ 31] =         0.246656360654;
  BAS[ATNO][  5].a[ 32] =         0.661936900000;     BAS[ATNO][  5].d[ 32] =         0.403098110430;
  BAS[ATNO][  5].a[ 33] =         0.284242800000;     BAS[ATNO][  5].d[ 33] =        -0.279670939564;
  BAS[ATNO][  5].a[ 34] =         0.122346300000;     BAS[ATNO][  5].d[ 34] =        -0.331314751631;
  BAS[ATNO][  5].a[ 35] =         0.048938500000;     BAS[ATNO][  5].d[ 35] =        -0.034100753351;

  // Basis function   7 L = p
  InitBFNGauss(BAS[ATNO][  6]);
  BAS[ATNO][  6].l  = 1;
  BAS[ATNO][  6].ng = 35;
  BAS[ATNO][  6].a[  0] =      1462.496200000000;     BAS[ATNO][  6].d[  0] =         0.000018562011;
  BAS[ATNO][  6].a[  1] =       354.067310000000;     BAS[ATNO][  6].d[  1] =         0.000119781992;
  BAS[ATNO][  6].a[  2] =       126.697790000000;     BAS[ATNO][  6].d[  2] =         0.000497103085;
  BAS[ATNO][  6].a[  3] =        49.989095000000;     BAS[ATNO][  6].d[  3] =         0.001794469921;
  BAS[ATNO][  6].a[  4] =        20.509295000000;     BAS[ATNO][  6].d[  4] =         0.004707438864;
  BAS[ATNO][  6].a[  5] =         8.580464100000;     BAS[ATNO][  6].d[  5] =         0.008034078627;
  BAS[ATNO][  6].a[  6] =         3.630104900000;     BAS[ATNO][  6].d[  6] =         0.006641263693;
  BAS[ATNO][  6].a[  7] =         1.546528000000;     BAS[ATNO][  6].d[  7] =         0.001407272725;
  BAS[ATNO][  6].a[  8] =         0.661936900000;     BAS[ATNO][  6].d[  8] =         0.000067815347;
  BAS[ATNO][  6].a[  9] =         0.284242800000;     BAS[ATNO][  6].d[  9] =         0.000005603593;
  BAS[ATNO][  6].a[ 10] =         0.122346300000;     BAS[ATNO][  6].d[ 10] =         0.000009187307;
  BAS[ATNO][  6].a[ 11] =      1462.496200000000;     BAS[ATNO][  6].d[ 11] =         0.000153317786;
  BAS[ATNO][  6].a[ 12] =       354.067310000000;     BAS[ATNO][  6].d[ 12] =         0.000993450522;
  BAS[ATNO][  6].a[ 13] =       126.697790000000;     BAS[ATNO][  6].d[ 13] =         0.004157653266;
  BAS[ATNO][  6].a[ 14] =        49.989095000000;     BAS[ATNO][  6].d[ 14] =         0.015330866293;
  BAS[ATNO][  6].a[ 15] =        20.509295000000;     BAS[ATNO][  6].d[ 15] =         0.041545921395;
  BAS[ATNO][  6].a[ 16] =         8.580464100000;     BAS[ATNO][  6].d[ 16] =         0.074507348452;
  BAS[ATNO][  6].a[ 17] =         3.630104900000;     BAS[ATNO][  6].d[ 17] =         0.061587646592;
  BAS[ATNO][  6].a[ 18] =         1.546528000000;     BAS[ATNO][  6].d[ 18] =        -0.090435003754;
  BAS[ATNO][  6].a[ 19] =         0.661936900000;     BAS[ATNO][  6].d[ 19] =        -0.249629919300;
  BAS[ATNO][  6].a[ 20] =         0.284242800000;     BAS[ATNO][  6].d[ 20] =        -0.228987755996;
  BAS[ATNO][  6].a[ 21] =         0.122346300000;     BAS[ATNO][  6].d[ 21] =        -0.081908655806;
  BAS[ATNO][  6].a[ 22] =         0.048938500000;     BAS[ATNO][  6].d[ 22] =        -0.003777067813;
  BAS[ATNO][  6].a[ 23] =      1462.496200000000;     BAS[ATNO][  6].d[ 23] =        -0.000278560789;
  BAS[ATNO][  6].a[ 24] =       354.067310000000;     BAS[ATNO][  6].d[ 24] =        -0.001694352435;
  BAS[ATNO][  6].a[ 25] =       126.697790000000;     BAS[ATNO][  6].d[ 25] =        -0.007711847015;
  BAS[ATNO][  6].a[ 26] =        49.989095000000;     BAS[ATNO][  6].d[ 26] =        -0.026241954922;
  BAS[ATNO][  6].a[ 27] =        20.509295000000;     BAS[ATNO][  6].d[ 27] =        -0.079642398716;
  BAS[ATNO][  6].a[ 28] =         8.580464100000;     BAS[ATNO][  6].d[ 28] =        -0.119087379008;
  BAS[ATNO][  6].a[ 29] =         3.630104900000;     BAS[ATNO][  6].d[ 29] =        -0.145321416589;
  BAS[ATNO][  6].a[ 30] =         1.546528000000;     BAS[ATNO][  6].d[ 30] =         0.372716129628;
  BAS[ATNO][  6].a[ 31] =         0.661936900000;     BAS[ATNO][  6].d[ 31] =         0.609111263870;
  BAS[ATNO][  6].a[ 32] =         0.284242800000;     BAS[ATNO][  6].d[ 32] =        -0.422603616981;
  BAS[ATNO][  6].a[ 33] =         0.122346300000;     BAS[ATNO][  6].d[ 33] =        -0.500641262967;
  BAS[ATNO][  6].a[ 34] =         0.048938500000;     BAS[ATNO][  6].d[ 34] =        -0.051528777821;

  // Basis function   8 L = d
  InitBFNGauss(BAS[ATNO][  7]);
  BAS[ATNO][  7].l  = 2;
  BAS[ATNO][  7].ng = 5;
  BAS[ATNO][  7].a[  0] =         4.328841700000;     BAS[ATNO][  7].d[  0] =         0.027886140074;
  BAS[ATNO][  7].a[  1] =         1.774230200000;     BAS[ATNO][  7].d[  1] =         0.193753660516;
  BAS[ATNO][  7].a[  2] =         0.727190600000;     BAS[ATNO][  7].d[  2] =         0.602274991605;
  BAS[ATNO][  7].a[  3] =         0.298048200000;     BAS[ATNO][  7].d[  3] =         0.305103490813;
  BAS[ATNO][  7].a[  4] =         0.119219300000;     BAS[ATNO][  7].d[  4] =         0.028800580077;

-------
TIMINGS
-------

Total SCF time: 0 days 0 hours 0 min 3 sec 

Total time                  ....       3.577 sec
Sum of individual times     ....       3.315 sec  ( 92.7%)

Fock matrix formation       ....       2.852 sec  ( 79.7%)
  XC integration            ....       0.017 sec  (  0.6% of F)
    Basis function eval.    ....       0.006 sec  ( 38.2% of XC)
    Density eval.           ....       0.001 sec  (  3.9% of XC)
    XC-Functional eval.     ....       0.001 sec  (  7.5% of XC)
    XC-Potential eval.      ....       0.000 sec  (  1.7% of XC)
Diagonalization             ....       0.000 sec  (  0.0%)
Density matrix formation    ....       0.000 sec  (  0.0%)
Population analysis         ....       0.000 sec  (  0.0%)
Initial guess               ....       0.090 sec  (  2.5%)
Orbital Transformation      ....       0.000 sec  (  0.0%)
Orbital Orthonormalization  ....       0.000 sec  (  0.0%)
DIIS solution               ....       0.000 sec  (  0.0%)
SOSCF solution              ....       0.000 sec  (  0.0%)
Grid generation             ....       0.372 sec  ( 10.4%)

-------------------------   --------------------
FINAL SINGLE POINT ENERGY      -311.105970305293
-------------------------   --------------------


                            ***************************************
                            *     ORCA property calculations      *
                            ***************************************

                                    ---------------------
                                    Active property flags
                                    ---------------------
   (+) Dipole Moment


------------------------------------------------------------------------------
                       ORCA ELECTRIC PROPERTIES CALCULATION
------------------------------------------------------------------------------

Dipole Moment Calculation                       ... on
Quadrupole Moment Calculation                   ... off
Polarizability Calculation                      ... off
GBWName                                         ... Ar_ano-rcc-dzp_1096.287912_.gbw
Electron density file                           ... Ar_ano-rcc-dzp_1096.287912_.scfp
The origin for moment calculation is the CENTER OF MASS  = ( 0.000000,  0.000000  0.000000)

-------------
DIPOLE MOMENT
-------------
                                X             Y             Z
Electronic contribution:     -0.00000       0.00000      -0.00000
Nuclear contribution   :      0.00000       0.00000       0.00000
                        -----------------------------------------
Total Dipole Moment    :     -0.00000       0.00000      -0.00000
                        -----------------------------------------
Magnitude (a.u.)       :      0.00000
Magnitude (Debye)      :      0.00000



--------------------
Rotational spectrum 
--------------------
 
Rotational constants in cm-1:     0.000000     0.000000     0.000000 
Rotational constants in MHz :     0.000000     0.000000     0.000000 

 Dipole components along the rotational axes: 
x,y,z [a.u.] :    -0.000000     0.000000    -0.000000 
x,y,z [Debye]:    -0.000000     0.000000    -0.000000 

 

Timings for individual modules:

Sum of individual times         ...        4.693 sec (=   0.078 min)
GTO integral calculation        ...        0.435 sec (=   0.007 min)   9.3 %
Relativistic integrals          ...        0.413 sec (=   0.007 min)   8.8 %
SCF iterations                  ...        3.846 sec (=   0.064 min)  81.9 %
                             ****ORCA TERMINATED NORMALLY****
TOTAL RUN TIME: 0 days 0 hours 0 minutes 5 seconds 55 msec
