
                                 *****************
                                 * O   R   C   A *
                                 *****************

           --- An Ab Initio, DFT and Semiempirical electronic structure package ---

                  #######################################################
                  #                        -***-                        #
                  #          Department of theory and spectroscopy      #
                  #               Directorship: Frank Neese             #
                  #        Max Planck Institute fuer Kohlenforschung    #
                  #                Kaiser Wilhelm Platz 1               #
                  #                 D-45470 Muelheim/Ruhr               #
                  #                      Germany                        #
                  #                                                     #
                  #                  All rights reserved                #
                  #                        -***-                        #
                  #######################################################


                         Program Version 4.2.1 -  RELEASE  -


 With contributions from (in alphabetic order):
   Daniel Aravena         : Magnetic Suceptibility
   Michael Atanasov       : Ab Initio Ligand Field Theory (pilot matlab implementation)
   Alexander A. Auer      : GIAO ZORA, VPT2
   Ute Becker             : Parallelization
   Giovanni Bistoni       : ED, misc. LED, open-shell LED, HFLD
   Martin Brehm           : Molecular dynamics
   Dmytro Bykov           : SCF Hessian
   Vijay G. Chilkuri      : MRCI spin determinant printing, contributions to CSF-ICE
   Dipayan Datta          : RHF DLPNO-CCSD density
   Achintya Kumar Dutta   : EOM-CC, STEOM-CC
   Dmitry Ganyushin       : Spin-Orbit,Spin-Spin,Magnetic field MRCI
   Miquel Garcia          : C-PCM Hessian, Gaussian charge scheme
   Yang Guo               : DLPNO-NEVPT2, CIM, IAO-localization
   Andreas Hansen         : Spin unrestricted coupled pair/coupled cluster methods
   Benjamin Helmich-Paris : CASSCF linear response (MC-RPA)
   Lee Huntington         : MR-EOM, pCC
   Robert Izsak           : Overlap fitted RIJCOSX, COSX-SCS-MP3, EOM
   Christian Kollmar      : KDIIS, OOCD, Brueckner-CCSD(T), CCSD density
   Simone Kossmann        : Meta GGA functionals, TD-DFT gradient, OOMP2, MP2 Hessian
   Martin Krupicka        : AUTO-CI
   Lucas Lang             : DCDCAS
   Dagmar Lenk            : GEPOL surface, SMD
   Dimitrios Liakos       : Extrapolation schemes; Compound Job, initial MDCI parallelization
   Dimitrios Manganas     : Further ROCIS development; embedding schemes
   Dimitrios Pantazis     : SARC Basis sets
   Taras Petrenko         : DFT Hessian,TD-DFT gradient, ASA, ECA, R-Raman, ABS, FL, XAS/XES, NRVS
   Peter Pinski           : DLPNO-MP2, DLPNO-MP2 Gradient
   Christoph Reimann      : Effective Core Potentials
   Marius Retegan         : Local ZFS, SOC
   Christoph Riplinger    : Optimizer, TS searches, QM/MM, DLPNO-CCSD(T), (RO)-DLPNO pert. Triples
   Tobias Risthaus        : Range-separated hybrids, TD-DFT gradient, RPA, STAB
   Michael Roemelt        : Original ROCIS implementation
   Masaaki Saitow         : Open-shell DLPNO-CCSD energy and density
   Barbara Sandhoefer     : DKH picture change effects
   Avijit Sen             : IP-ROCIS
   Kantharuban Sivalingam : CASSCF convergence, NEVPT2, FIC-MRCI
   Bernardo de Souza      : ESD, SOC TD-DFT
   Georgi Stoychev        : AutoAux, RI-MP2 NMR
   Willem Van den Heuvel  : Paramagnetic NMR
   Boris Wezisla          : Elementary symmetry handling
   Frank Wennmohs         : Technical directorship


 We gratefully acknowledge several colleagues who have allowed us to
 interface, adapt or use parts of their codes:
   Stefan Grimme, W. Hujo, H. Kruse,             : VdW corrections, initial TS optimization,
                  C. Bannwarth                     DFT functionals, gCP, sTDA/sTD-DF
   Ed Valeev, F. Pavosevic, A. Kumar             : LibInt (2-el integral package), F12 methods
   Garnet Chan, S. Sharma, J. Yang, R. Olivares  : DMRG
   Ulf Ekstrom                                   : XCFun DFT Library
   Mihaly Kallay                                 : mrcc  (arbitrary order and MRCC methods)
   Andreas Klamt, Michael Diedenhofen            : otool_cosmo (COSMO solvation model)
   Jiri Pittner, Ondrej Demel                    : Mk-CCSD
   Frank Weinhold                                : gennbo (NPA and NBO analysis)
   Christopher J. Cramer and Donald G. Truhlar   : smd solvation model
   Lars Goerigk                                  : TD-DFT with DH, B97 family of functionals
   V. Asgeirsson, H. Jonsson                     : NEB implementation
   FAccTs GmbH                                   : IRC, NEB, NEB-TS, Multilevel, MM, QM/MM, CI optimization
   S Lehtola, MJT Oliveira, MAL Marques          : LibXC Library


 Your calculation uses the libint2 library for the computation of 2-el integrals
 For citations please refer to: http://libint.valeyev.net

 Your ORCA version has been built with support for libXC version: 4.2.3
 For citations please refer to: https://tddft.org/programs/libxc/

 This ORCA versions uses:
   CBLAS   interface :  Fast vector & matrix operations
   LAPACKE interface :  Fast linear algebra routines
   SCALAPACK package :  Parallel linear algebra routines


----- Orbital basis set information -----
Your calculation utilizes the basis: ANO-RCC-DZP
   H, He:       P.-O. Widmark, P.-A. Malmqvist, and B. O. Roos, Theor. Chim. Acta 77, 291 (1990).
   s block:     B. O. Roos, V. Veryazov and P.-O. Widmark, Theor. Chem. Acc. 111, 345 (2004).
   p block:     B. O. Roos, R. Lindh, P.-A. Malmqvist, V. Veryazov, and P.-O. Widmark, J. Phys. Chem. A 108, 2851 (2004).
   d block:     B. O. Roos, R. Lindh, P.-A. Malmqvist, V. Veryazov, and P.-O. Widmark, J. Phys. Chem. A 109, 6575 (2005).
   actinides:   B. O. Roos, R. Lindh, P.-A. Malmqvist, V. Veryazov, and P.-O. Widmark, Chem. Phys. Letters 409, 295 (2005).
   lanthanides: B. O. Roos, R. Lindh, P.-A. Malmqvist, V. Veryazov, P.-O. Widmark and A. C. Borin, J. Phys. Chem. A 112, 11431 (2008).

================================================================================
                                        WARNINGS
                       Please study these warnings very carefully!
================================================================================


INFO   : the flag for use of LIBINT has been found!

================================================================================
                                       INPUT FILE
================================================================================
NAME = Ar_ano-rcc-dzp_68.5179945_.inp
|  1> ! LDA ano-rcc-dzp nori grid5 finalgrid6 verytightscf
|  2> %Pal NProcs 18 End
|  3> 
|  4> % REL
|  5>   Method ZORA
|  6>   ModelPot 1, 0, 0, 0
|  7>   velit 68.5179945
|  8> END
|  9> 
| 10> *xyz 16 1
| 11> Ar 0.0 0.0 0.0
| 12> **                         ****END OF INPUT****
================================================================================

                       ****************************
                       * Single Point Calculation *
                       ****************************

---------------------------------
CARTESIAN COORDINATES (ANGSTROEM)
---------------------------------
  Ar     0.000000    0.000000    0.000000

----------------------------
CARTESIAN COORDINATES (A.U.)
----------------------------
  NO LB      ZA    FRAG     MASS         X           Y           Z
   0 Ar   18.0000    0    39.948    0.000000    0.000000    0.000000

--------------------------------
INTERNAL COORDINATES (ANGSTROEM)
--------------------------------
 Ar     0   0   0     0.000000000000     0.00000000     0.00000000

---------------------------
INTERNAL COORDINATES (A.U.)
---------------------------
 Ar     0   0   0     0.000000000000     0.00000000     0.00000000

---------------------
BASIS SET INFORMATION
---------------------
There are 1 groups of distinct atoms

 Group   1 Type Ar  : 68s36p5d contracted to 4s3p1d pattern {17171717/121212/5}

Atom   0Ar   basis set group =>   1


           ************************************************************
           *        Program running with 18 parallel MPI-processes    *
           *              working on a common directory               *
           ************************************************************


------------------------------------------------------------------------------
                       ORCA GTO INTEGRAL CALCULATION
                     -- ANO INTEGRAL GENERATION BRANCH --
------------------------------------------------------------------------------


Gathering ANO information                         ... done
Calculation Information:
Number of atoms                                   ... 1
Number of basis functions                         ... 18
Highest angular momentum                          ... 2
Number of primitive shells                        ... 34
Total number of shells                            ... 8
Maximum number of shells                          ... 8

Getting memory                                    ... done
Making prescreening integrals                     ... done
Gathering atom contracted prescreening            ... done
Making one-electron integrals                     ... done

Timings:

Total time                                        ...    0.1 sec
Prescreening matrix                               ...    0.0 sec
One-electron matrix                               ...    0.0 sec
Two-index integrals + Cholesky                    ...    0.0 sec


           ************************************************************
           *        Program running with 18 parallel MPI-processes    *
           *              working on a common directory               *
           ************************************************************
------------------------------------------------------------------------------
                          ORCA RELATIVISTIC HAMILTONIAN
------------------------------------------------------------------------------

Relativistic Method            ... ZORA(MP)
Treatment of potential         ... Van Wuellen
Nucleus model                  ... Point Nucleus
Speed of light used            ...  68.51799450000000


            *************************************************
            *         ZERO ORDER REGULAR APPROXIMATION      *
            *                     ZORA(MP)                  *
            *            Programmed by FN according to      *
            *                   C. van Wuellen              *
            *       J. Chem. Phys. (1998) vol 109, 392-399  *
            *************************************************

Terms included in model potential: +V(e,N)
Basis function cutoff value   ... 1.000000e-12
Loading the fitted atomic densities  (DKH4)  ... done
Calculating the cutoffs                      ... done
Number of fit functions                      ... 15
Setting up the integration grid ... done


           ************************************************************
           *        Program running with 18 parallel MPI-processes    *
           *              working on a common directory               *
           ************************************************************
-------------------------------------------------------------------------------
                                 ORCA SCF
-------------------------------------------------------------------------------

------------
SCF SETTINGS
------------
Hamiltonian:
 Density Functional     Method          .... DFT(GTOs)
 Exchange Functional    Exchange        .... Slater
   X-Alpha parameter    XAlpha          ....  0.666667
 Correlation Functional Correlation     .... VWN-5
 Gradients option       PostSCFGGA      .... off
   Density functional embedding theory  .... OFF

Relativistic Settings:
 Scalar relativistic method             .... ZORA
 Speed of light used       Velit        ....       68.5179945
Orbital energies will be scaled


General Settings:
 Integral files         IntName         .... Ar_ano-rcc-dzp_68.5179945_
 Hartree-Fock type      HFTyp           .... RHF
 Total Charge           Charge          ....   16
 Multiplicity           Mult            ....    1
 Number of Electrons    NEL             ....    2
 Basis Dimension        Dim             ....   18
 Nuclear Repulsion      ENuc            ....      0.0000000000 Eh

Convergence Acceleration:
 DIIS                   CNVDIIS         .... on
   Start iteration      DIISMaxIt       ....    12
   Startup error        DIISStart       ....  0.200000
   # of expansion vecs  DIISMaxEq       ....     5
   Bias factor          DIISBfac        ....   1.050
   Max. coefficient     DIISMaxC        ....  10.000
 Newton-Raphson         CNVNR           .... off
 SOSCF                  CNVSOSCF        .... on
   Start iteration      SOSCFMaxIt      ....   150
   Startup grad/error   SOSCFStart      ....  0.003300
 Level Shifting         CNVShift        .... on
   Level shift para.    LevelShift      ....    0.2500
   Turn off err/grad.   ShiftErr        ....    0.0010
 Zerner damping         CNVZerner       .... off
 Static damping         CNVDamp         .... on
   Fraction old density DampFac         ....    0.7000
   Max. Damping (<1)    DampMax         ....    0.9800
   Min. Damping (>=0)   DampMin         ....    0.0000
   Turn off err/grad.   DampErr         ....    0.1000
 Fernandez-Rico         CNVRico         .... off

SCF Procedure:
 Maximum # iterations   MaxIter         ....   125
 SCF integral mode      SCFMode         .... Direct
   Integral package                     .... LIBINT
 Reset frequency        DirectResetFreq ....    20
 Integral Threshold     Thresh          ....  1.000e-12 Eh
 Primitive CutOff       TCut            ....  1.000e-14 Eh

Convergence Tolerance:
 Convergence Check Mode ConvCheckMode   .... Total+1el-Energy
 Convergence forced     ConvForced      .... 0
 Energy Change          TolE            ....  1.000e-09 Eh
 1-El. energy change                    ....  1.000e-06 Eh
 Orbital Gradient       TolG            ....  2.000e-06
 Orbital Rotation angle TolX            ....  2.000e-06
 DIIS Error             TolErr          ....  1.000e-08


Diagonalization of the overlap matrix:
Smallest eigenvalue                        ... 1.000e+00
Time for diagonalization                   ...    0.001 sec
Threshold for overlap eigenvalues          ... 1.000e-08
Number of eigenvalues below threshold      ... 0
Time for construction of square roots      ...    0.001 sec
Total time needed                          ...    0.002 sec

-------------------
DFT GRID GENERATION
-------------------

General Integration Accuracy     IntAcc      ...  5.010
Radial Grid Type                 RadialGrid  ... Gauss-Chebyshev
Angular Grid (max. acc.)         AngularGrid ... Lebedev-434
Angular grid pruning method      GridPruning ... 3 (G Style)
Weight generation scheme         WeightScheme... Becke
Basis function cutoff            BFCut       ...    1.0000e-12
Integration weight cutoff        WCut        ...    1.0000e-14
Grids for H and He will be reduced by one unit

# of grid points (after initial pruning)     ...  11992 (   0.0 sec)
# of grid points (after weights+screening)   ...  11992 (   0.0 sec)
Grid point division into batches done        ...    0.1 sec
Reduced shell lists constructed in    0.1 sec

Total number of grid points                  ...    11992
Total number of batches                      ...      188
Average number of points per batch           ...       63
Average number of grid points per atom       ...    11992
Average number of shells per batch           ...     3.50 (43.75%)
Average number of basis functions per batch  ...     9.67 (53.70%)
Average number of large shells per batch     ...     2.25 (64.29%)
Average number of large basis fcns per batch ...     5.92 (61.21%)
Maximum spatial batch extension              ...  18.71, 18.71, 18.71 au
Average spatial batch extension              ...   0.97,  0.98,  0.97 au

Time for grid setup =    0.155 sec

------------------------------
INITIAL GUESS: MODEL POTENTIAL
------------------------------
Loading ZORA relativistic densities                ... done
Calculating cut-offs                               ... done
Setting up the integral package                    ... done
Initializing the effective Hamiltonian             ... done
Starting the Coulomb interaction                   ... done (   0.0 sec)
Reading the grid                                   ... done
Mapping shells                                     ... done
Starting the XC term evaluation                    ... done (   0.0 sec)
  promolecular density results
     # of electrons  =     18.000000116
     EX              =    -28.047870263
     EC              =     -1.433252902
     EX+EC           =    -29.481123164
Transforming the Hamiltonian                       ... done (   0.0 sec)
Diagonalizing the Hamiltonian                      ... done (   0.0 sec)
Back transforming the eigenvectors                 ... done (   0.0 sec)
Now organizing SCF variables                       ... done
                      ------------------
                      INITIAL GUESS DONE (   0.2 sec)
                      ------------------
--------------
SCF ITERATIONS
--------------
ITER       Energy         Delta-E        Max-DP      RMS-DP      [F,P]     Damp
               ***  Starting incremental Fock matrix formation  ***
  0   -322.2002731100   0.000000000000 0.00412997  0.00023693  1.6103879 0.7000
                      *** Initiating the SOSCF procedure ***
                      *** Re-Reading the Fockian *** 
                      *** Removing any level shift *** 
ITER      Energy       Delta-E        Grad      Rot      Max-DP    RMS-DP
  1   -322.20405946  -0.0037863477  0.000416  0.000416  0.009644  0.000553
               *** Restarting incremental Fock matrix formation ***
  2   -322.21284468  -0.0087852223  0.003184  0.000027  0.000052  0.000003
  3   -322.21284487  -0.0000001886  0.000017  0.000000  0.000000  0.000000
                 **** Energy Check signals convergence ****
              ***Rediagonalizing the Fockian in SOSCF/NRSCF***

               *****************************************************
               *                     SUCCESS                       *
               *           SCF CONVERGED AFTER   4 CYCLES          *
               *****************************************************

Setting up the final grid:

General Integration Accuracy     IntAcc      ...  5.340
Radial Grid Type                 RadialGrid  ... Gauss-Chebyshev
Angular Grid (max. acc.)         AngularGrid ... Lebedev-590
Angular grid pruning method      GridPruning ... 3 (G Style)
Weight generation scheme         WeightScheme... Becke
Basis function cutoff            BFCut       ...    1.0000e-12
Integration weight cutoff        WCut        ...    1.0000e-14
Grids for H and He will be reduced by one unit

# of grid points (after initial pruning)     ...  18110 (   0.0 sec)
# of grid points (after weights+screening)   ...  18110 (   0.0 sec)
Grid point division into batches done        ...    0.2 sec
Reduced shell lists constructed in    0.2 sec

Total number of grid points                  ...    18110
Total number of batches                      ...      283
Average number of points per batch           ...       63
Average number of grid points per atom       ...    18110
Average number of shells per batch           ...     1.18 (14.71%)
Average number of basis functions per batch  ...     3.53 (19.61%)
Average number of large shells per batch     ...     0.59 (50.00%)
Average number of large basis fcns per batch ...     1.76 (50.00%)
Maximum spatial batch extension              ...  19.03, 19.03, 19.03 au
Average spatial batch extension              ...   0.84,  0.84,  0.80 au

Final grid set up in    0.2 sec
Final integration                            ... done (   0.0 sec)
Change in XC energy                          ...     0.000014215
Integrated number of electrons               ...     2.000000251
Previous integrated no of electrons          ...     2.000000970

----------------
TOTAL SCF ENERGY
----------------

Total Energy       :         -322.21283065 Eh           -8767.85687 eV

Components:
Nuclear Repulsion  :            0.00000000 Eh               0.00000 eV
Electronic Energy  :         -322.21283065 Eh           -8767.85687 eV
One Electron Energy:         -334.69287703 Eh           -9107.45620 eV
Two Electron Energy:           12.48004638 Eh             339.59933 eV

Virial components:
Potential Energy   :         -634.42361158 Eh          -17263.54413 eV
Kinetic Energy     :          312.21078092 Eh            8495.68726 eV
Virial Ratio       :            2.03203621


DFT components:
N(Alpha)           :        1.000000125675 electrons
N(Beta)            :        1.000000125675 electrons
N(Total)           :        2.000000251349 electrons
E(X)               :       -9.563571524225 Eh       
E(C)               :       -0.237691348996 Eh       
E(XC)              :       -9.801262873221 Eh       
DFET-embed. en.    :        0.000000000000 Eh       

---------------
SCF CONVERGENCE
---------------

  Last Energy change         ...   -5.5707e-12  Tolerance :   1.0000e-09
  Last MAX-Density change    ...    0.0000e+00  Tolerance :   1.0000e-08
  Last RMS-Density change    ...    0.0000e+00  Tolerance :   1.0000e-09
  Last Orbital Gradient      ...    2.7365e-11  Tolerance :   2.0000e-06
  Last Orbital Rotation      ...    0.0000e+00  Tolerance :   2.0000e-06

================================================================================
                                        WARNING
Number of found core electrons (2) does not match given number of chemical core electrons (10)
================================================================================
             **** THE GBW FILE WAS UPDATED (Ar_ano-rcc-dzp_68.5179945_.gbw) ****
             **** DENSITY FILE WAS UPDATED (Ar_ano-rcc-dzp_68.5179945_.scfp) ****
             **** ENERGY FILE WAS UPDATED (Ar_ano-rcc-dzp_68.5179945_.en.tmp) ****
             **** THE GBW FILE WAS UPDATED (Ar_ano-rcc-dzp_68.5179945_.gbw) ****
             **** DENSITY FILE WAS UPDATED (Ar_ano-rcc-dzp_68.5179945_.scfp) ****
----------------
ORBITAL ENERGIES
----------------

  NO   OCC          E(Eh)            E(eV) 
   0   2.0000    -151.569256     -4124.4091 
   1   0.0000     -34.329240      -934.1461 
   2   0.0000     -32.794817      -892.3923 
   3   0.0000     -32.794817      -892.3923 
   4   0.0000     -32.794817      -892.3923 
   5   0.0000     -13.527696      -368.1073 
   6   0.0000     -12.211540      -332.2929 
   7   0.0000     -12.211540      -332.2929 
   8   0.0000     -12.211540      -332.2929 
   9   0.0000      -9.354316      -254.5439 
  10   0.0000      -9.354316      -254.5439 
  11   0.0000      -9.354316      -254.5439 
  12   0.0000      -9.354316      -254.5439 
  13   0.0000      -9.354316      -254.5439 
  14   0.0000      -6.762156      -184.0076 
  15   0.0000      -5.711005      -155.4044 
  16   0.0000      -5.711005      -155.4044 
  17   0.0000      -5.711005      -155.4044 

                    ********************************
                    * MULLIKEN POPULATION ANALYSIS *
                    ********************************

-----------------------
MULLIKEN ATOMIC CHARGES
-----------------------
   0 Ar:   16.000000
Sum of atomic charges:   16.0000000

--------------------------------
MULLIKEN REDUCED ORBITAL CHARGES
--------------------------------
  0 Ars       :     2.000000  s :     2.000000
      pz      :     0.000000  p :     0.000000
      px      :     0.000000
      py      :     0.000000
      dz2     :     0.000000  d :     0.000000
      dxz     :     0.000000
      dyz     :     0.000000
      dx2y2   :     0.000000
      dxy     :     0.000000


                     *******************************
                     * LOEWDIN POPULATION ANALYSIS *
                     *******************************

----------------------
LOEWDIN ATOMIC CHARGES
----------------------
   0 Ar:   16.000000

-------------------------------
LOEWDIN REDUCED ORBITAL CHARGES
-------------------------------
  0 Ars       :     2.000000  s :     2.000000
      pz      :     0.000000  p :     0.000000
      px      :     0.000000
      py      :     0.000000
      dz2     :     0.000000  d :     0.000000
      dxz     :     0.000000
      dyz     :     0.000000
      dx2y2   :     0.000000
      dxy     :     0.000000


                      *****************************
                      * MAYER POPULATION ANALYSIS *
                      *****************************

  NA   - Mulliken gross atomic population
  ZA   - Total nuclear charge
  QA   - Mulliken gross atomic charge
  VA   - Mayer's total valence
  BVA  - Mayer's bonded valence
  FA   - Mayer's free valence

  ATOM       NA         ZA         QA         VA         BVA        FA
  0 Ar     2.0000    18.0000    16.0000    -0.0000     0.0000    -0.0000

  Mayer bond orders larger than 0.100000


--------------------------
ATOM BASIS FOR ELEMENT Ar
--------------------------
 NewGTO Ar
 S 68
    1     455476.770000000019         0.000319789451
    2      64817.743000000002         0.001011396876
    3      19256.987000000001         0.002169741334
    4       6877.007300000000         0.005961634805
    5       2643.487700000000         0.015904611287
    6       1054.237500000000         0.044037174968
    7        429.371220000000         0.114434974523
    8        177.188590000000         0.254572508811
    9         73.763945000000         0.398389771313
   10         30.897007000000         0.278888434479
   11         12.999482000000         0.038326884714
   12          5.487679300000         0.003117922156
   13          2.322571600000        -0.001384364596
   14          0.984980700000         0.001002518835
   15          0.418397300000        -0.000643038139
   16          0.177959400000         0.000281957797
   17          0.071183800000        -0.000076263176
   18     455476.770000000019         0.000001792061
   19      64817.743000000002         0.000005675546
   20      19256.987000000001         0.000012209629
   21       6877.007300000000         0.000033658367
   22       2643.487700000000         0.000090674813
   23       1054.237500000000         0.000255639794
   24        429.371220000000         0.000695822736
   25        177.188590000000         0.001714539544
   26         73.763945000000         0.003421165473
   27         30.897007000000         0.003637732146
   28         12.999482000000        -0.002680532200
   29          5.487679300000        -0.012426147793
   30          2.322571600000        -0.007479465391
   31          0.984980700000        -0.000097405664
   32          0.418397300000        -0.000229687506
   33          0.177959400000         0.000087242231
   34          0.071183800000        -0.000025281710
   35     455476.770000000019         0.000000147658
   36      64817.743000000002         0.000000467236
   37      19256.987000000001         0.000001008838
   38       6877.007300000000         0.000002764650
   39       2643.487700000000         0.000007519293
   40       1054.237500000000         0.000021024193
   41        429.371220000000         0.000058113125
   42        177.188590000000         0.000142986394
   43         73.763945000000         0.000297024138
   44         30.897007000000         0.000322551888
   45         12.999482000000        -0.000249002300
   46          5.487679300000        -0.001685918353
   47          2.322571600000        -0.001785096258
   48          0.984980700000         0.001751701239
   49          0.418397300000         0.003478755468
   50          0.177959400000         0.001307232300
   51          0.071183800000         0.000023191264
   52     455476.770000000019         0.000000192120
   53      64817.743000000002         0.000000607760
   54      19256.987000000001         0.000001313211
   55       6877.007300000000         0.000003596980
   56       2643.487700000000         0.000009790838
   57       1054.237500000000         0.000027403880
   58        429.371220000000         0.000075880305
   59        177.188590000000         0.000187740878
   60         73.763945000000         0.000394846665
   61         30.897007000000         0.000438911543
   62         12.999482000000        -0.000480193276
   63          5.487679300000        -0.002313203642
   64          2.322571600000        -0.003705819138
   65          0.984980700000         0.010543091338
   66          0.418397300000         0.000014834343
   67          0.177959400000        -0.006585181174
   68          0.071183800000        -0.000255130331
 S 68
    1     455476.770000000019        -0.000006524244
    2      64817.743000000002        -0.000020634201
    3      19256.987000000001        -0.000044266380
    4       6877.007300000000        -0.000121627398
    5       2643.487700000000        -0.000324480876
    6       1054.237500000000        -0.000898432590
    7        429.371220000000        -0.002334666350
    8        177.188590000000        -0.005193708238
    9         73.763945000000        -0.008127822784
   10         30.897007000000        -0.005689794104
   11         12.999482000000        -0.000781933045
   12          5.487679300000        -0.000063610867
   13          2.322571600000         0.000028243371
   14          0.984980700000        -0.000020453074
   15          0.418397300000         0.000013119062
   16          0.177959400000        -0.000005752414
   17          0.071183800000         0.000001555897
   18     455476.770000000019         0.000090727698
   19      64817.743000000002         0.000287339071
   20      19256.987000000001         0.000618143777
   21       6877.007300000000         0.001704041225
   22       2643.487700000000         0.004590645092
   23       1054.237500000000         0.012942420645
   24        429.371220000000         0.035227811743
   25        177.188590000000         0.086802964543
   26         73.763945000000         0.173205281994
   27         30.897007000000         0.184169525586
   28         12.999482000000        -0.135708821827
   29          5.487679300000        -0.629105621877
   30          2.322571600000        -0.378667130345
   31          0.984980700000        -0.004931411706
   32          0.418397300000        -0.011628519426
   33          0.177959400000         0.004416861851
   34          0.071183800000        -0.001279951436
   35     455476.770000000019         0.000002841498
   36      64817.743000000002         0.000008991359
   37      19256.987000000001         0.000019413787
   38       6877.007300000000         0.000053202152
   39       2643.487700000000         0.000144699159
   40       1054.237500000000         0.000404583644
   41        429.371220000000         0.001118312587
   42        177.188590000000         0.002751589842
   43         73.763945000000         0.005715848721
   44         30.897007000000         0.006207097548
   45         12.999482000000        -0.004791730032
   46          5.487679300000        -0.032443337229
   47          2.322571600000        -0.034351888858
   48          0.984980700000         0.033709244531
   49          0.418397300000         0.066944188966
   50          0.177959400000         0.025156009648
   51          0.071183800000         0.000446286134
   52     455476.770000000019         0.000002932373
   53      64817.743000000002         0.000009276400
   54      19256.987000000001         0.000020043896
   55       6877.007300000000         0.000054901688
   56       2643.487700000000         0.000149440231
   57       1054.237500000000         0.000418272887
   58        429.371220000000         0.001158181761
   59        177.188590000000         0.002865540159
   60         73.763945000000         0.006026652198
   61         30.897007000000         0.006699226431
   62         12.999482000000        -0.007329320764
   63          5.487679300000        -0.035307057268
   64          2.322571600000        -0.056562926912
   65          0.984980700000         0.160922074884
   66          0.418397300000         0.000226420610
   67          0.177959400000        -0.100511413966
   68          0.071183800000        -0.003894123737
 S 67
    1     455476.770000000019        -0.000001502809
    2      64817.743000000002        -0.000004752928
    3      19256.987000000001        -0.000010196418
    4       6877.007300000000        -0.000028015929
    5       2643.487700000000        -0.000074741657
    6       1054.237500000000        -0.000206946990
    7        429.371220000000        -0.000537772316
    8        177.188590000000        -0.001196330477
    9         73.763945000000        -0.001872181043
   10         30.897007000000        -0.001310600015
   11         12.999482000000        -0.000180112222
   12          5.487679300000        -0.000014652271
   13          2.322571600000         0.000006505642
   14          0.984980700000        -0.000004711207
   15          0.418397300000         0.000003021874
   16          0.177959400000        -0.000001325024
   17     455476.770000000019        -0.000011774758
   18      64817.743000000002        -0.000037291235
   19      19256.987000000001        -0.000080223496
   20       6877.007300000000        -0.000221152666
   21       2643.487700000000        -0.000595779836
   22       1054.237500000000        -0.001679684029
   23        429.371220000000        -0.004571910802
   24        177.188590000000        -0.011265400591
   25         73.763945000000        -0.022478804686
   26         30.897007000000        -0.023901758347
   27         12.999482000000         0.017612465768
   28          5.487679300000         0.081646138259
   29          2.322571600000         0.049143908118
   30          0.984980700000         0.000640004966
   31          0.418397300000         0.001509164235
   32          0.177959400000        -0.000573226023
   33          0.071183800000         0.000166113747
   34     455476.770000000019         0.000024573016
   35      64817.743000000002         0.000077756469
   36      19256.987000000001         0.000167888695
   37       6877.007300000000         0.000460087444
   38       2643.487700000000         0.001251345369
   39       1054.237500000000         0.003498803130
   40        429.371220000000         0.009671067136
   41        177.188590000000         0.023795502613
   42         73.763945000000         0.049430148024
   43         30.897007000000         0.053678423901
   44         12.999482000000        -0.041438452331
   45          5.487679300000        -0.280567075855
   46          2.322571600000        -0.297072059473
   47          0.984980700000         0.291514528867
   48          0.418397300000         0.578927352972
   49          0.177959400000         0.217546919336
   50          0.071183800000         0.003859442531
   51     455476.770000000019         0.000017440066
   52      64817.743000000002         0.000055170684
   53      19256.987000000001         0.000119209544
   54       6877.007300000000         0.000326523605
   55       2643.487700000000         0.000888784389
   56       1054.237500000000         0.002487646127
   57        429.371220000000         0.006888197783
   58        177.188590000000         0.017042581774
   59         73.763945000000         0.035843054782
   60         30.897007000000         0.039843138792
   61         12.999482000000        -0.043590576830
   62          5.487679300000        -0.209986033092
   63          2.322571600000        -0.336403698336
   64          0.984980700000         0.957071779874
   65          0.418397300000         0.001346619329
   66          0.177959400000        -0.597783976694
   67          0.071183800000        -0.023160004239
 S 66
    1     455476.770000000019        -0.000000551237
    2      64817.743000000002        -0.000001743396
    3      19256.987000000001        -0.000003740094
    4       6877.007300000000        -0.000010276374
    5       2643.487700000000        -0.000027415590
    6       1054.237500000000        -0.000075909125
    7        429.371220000000        -0.000197257402
    8        177.188590000000        -0.000438819618
    9         73.763945000000        -0.000686724769
   10         30.897007000000        -0.000480734219
   11         12.999482000000        -0.000066066006
   12          5.487679300000        -0.000005374521
   13          2.322571600000         0.000002386300
   14          0.984980700000        -0.000001728093
   15          0.418397300000         0.000001108438
   16     455476.770000000019        -0.000002090251
   17      64817.743000000002        -0.000006619929
   18      19256.987000000001        -0.000014241251
   19       6877.007300000000        -0.000039258955
   20       2643.487700000000        -0.000105762658
   21       1054.237500000000        -0.000298177005
   22        429.371220000000        -0.000811604234
   23        177.188590000000        -0.001999830533
   24         73.763945000000        -0.003990430663
   25         30.897007000000        -0.004243032970
   26         12.999482000000         0.003126559638
   27          5.487679300000         0.014493797965
   28          2.322571600000         0.008724011823
   29          0.984980700000         0.000113613489
   30          0.418397300000         0.000267906382
   31          0.177959400000        -0.000101758912
   32          0.071183800000         0.000029488462
   33     455476.770000000019        -0.000014961920
   34      64817.743000000002        -0.000047344049
   35      19256.987000000001        -0.000102223399
   36       6877.007300000000        -0.000280136207
   37       2643.487700000000        -0.000761914174
   38       1054.237500000000        -0.002130337287
   39        429.371220000000        -0.005888480764
   40        177.188590000000        -0.014488510671
   41         73.763945000000        -0.030096831270
   42         30.897007000000        -0.032683504533
   43         12.999482000000         0.025230879489
   44          5.487679300000         0.170830561499
   45          2.322571600000         0.180880050059
   46          0.984980700000        -0.177496203001
   47          0.418397300000        -0.352494976376
   48          0.177959400000        -0.132459100089
   49          0.071183800000        -0.002349921967
   50     455476.770000000019         0.000029201849
   51      64817.743000000002         0.000092378432
   52      19256.987000000001         0.000199605842
   53       6877.007300000000         0.000546734907
   54       2643.487700000000         0.001488190879
   55       1054.237500000000         0.004165343500
   56        429.371220000000         0.011533678185
   57        177.188590000000         0.028536296403
   58         73.763945000000         0.060016026256
   59         30.897007000000         0.066713813274
   60         12.999482000000        -0.072988566948
   61          5.487679300000        -0.351603047015
   62          2.322571600000        -0.563278250558
   63          0.984980700000         1.602532078254
   64          0.418397300000         0.002254795008
   65          0.177959400000        -1.000936417375
   66          0.071183800000        -0.038779379463
 P 36
    1       1462.496200000000         0.000953292652
    2        354.067310000000         0.006151666004
    3        126.697790000000         0.025529815338
    4         49.989095000000         0.092158924627
    5         20.509295000000         0.241760810945
    6          8.580464100000         0.412607666358
    7          3.630104900000         0.341076611455
    8          1.546528000000         0.072273566392
    9          0.661936900000         0.003482805379
   10          0.284242800000         0.000287784778
   11          0.122346300000         0.000471834220
   12          0.048938500000        -0.000084704967
   13       1462.496200000000         0.000026942193
   14        354.067310000000         0.000174576851
   15        126.697790000000         0.000730615161
   16         49.989095000000         0.002694059036
   17         20.509295000000         0.007300772363
   18          8.580464100000         0.013093010629
   19          3.630104900000         0.010822660156
   20          1.546528000000        -0.015891942070
   21          0.661936900000        -0.043866910507
   22          0.284242800000        -0.040239509061
   23          0.122346300000        -0.014393625909
   24          0.048938500000        -0.000663735726
   25       1462.496200000000         0.000030058470
   26        354.067310000000         0.000182831341
   27        126.697790000000         0.000832157054
   28         49.989095000000         0.002831672861
   29         20.509295000000         0.008593918390
   30          8.580464100000         0.012850281169
   31          3.630104900000         0.015681099699
   32          1.546528000000        -0.040218427024
   33          0.661936900000        -0.065726956705
   34          0.284242800000         0.045601602342
   35          0.122346300000         0.054022357766
   36          0.048938500000         0.005560280937
 P 36
    1       1462.496200000000        -0.000126098092
    2        354.067310000000        -0.000813720048
    3        126.697790000000        -0.003376991299
    4         49.989095000000        -0.012190448010
    5         20.509295000000        -0.031979242472
    6          8.580464100000        -0.054578244326
    7          3.630104900000        -0.045116376044
    8          1.546528000000        -0.009560085007
    9          0.661936900000        -0.000460692853
   10          0.284242800000        -0.000038067126
   11          0.122346300000        -0.000062412518
   12          0.048938500000         0.000011204466
   13       1462.496200000000         0.000227200816
   14        354.067310000000         0.001472189075
   15        126.697790000000         0.006161204388
   16         49.989095000000         0.022718729683
   17         20.509295000000         0.061566681202
   18          8.580464100000         0.110412045643
   19          3.630104900000         0.091266407782
   20          1.546528000000        -0.134015153801
   21          0.661936900000        -0.369925257255
   22          0.284242800000        -0.339335744620
   23          0.122346300000        -0.121380003869
   24          0.048938500000        -0.005597216817
   25       1462.496200000000         0.000184657760
   26        354.067310000000         0.001123185093
   27        126.697790000000         0.005112178215
   28         49.989095000000         0.017395774320
   29         20.509295000000         0.052794892699
   30          8.580464100000         0.078942943682
   31          3.630104900000         0.096333469602
   32          1.546528000000        -0.247073272381
   33          0.661936900000        -0.403779448340
   34          0.284242800000         0.280143654292
   35          0.122346300000         0.331874757482
   36          0.048938500000         0.034158392262
 P 35
    1       1462.496200000000        -0.000019297367
    2        354.067310000000        -0.000124527296
    3        126.697790000000        -0.000516796403
    4         49.989095000000        -0.001865559941
    5         20.509295000000        -0.004893929545
    6          8.580464100000        -0.008352358023
    7          3.630104900000        -0.006904365102
    8          1.546528000000        -0.001463023476
    9          0.661936900000        -0.000070501932
   10          0.284242800000        -0.000005825586
   11          0.122346300000        -0.000009551273
   12       1462.496200000000        -0.000153688948
   13        354.067310000000        -0.000995855539
   14        126.697790000000        -0.004167718413
   15         49.989095000000        -0.015367980361
   16         20.509295000000        -0.041646498761
   17          8.580464100000        -0.074687721220
   18          3.630104900000        -0.061736742413
   19          1.546528000000         0.090653935339
   20          0.661936900000         0.250234241429
   21          0.284242800000         0.229542106086
   22          0.122346300000         0.082106946193
   23          0.048938500000         0.003786211612
   24       1462.496200000000         0.000278251847
   25        354.067310000000         0.001692473291
   26        126.697790000000         0.007703294089
   27         49.989095000000         0.026212850932
   28         20.509295000000         0.079554070252
   29          8.580464100000         0.118955303561
   30          3.630104900000         0.145160245934
   31          1.546528000000        -0.372302763833
   32          0.661936900000        -0.608435720899
   33          0.284242800000         0.422134922803
   34          0.122346300000         0.500086020096
   35          0.048938500000         0.051471629143
 D 5
    1          4.328841700000         0.027886140074
    2          1.774230200000         0.193753660516
    3          0.727190600000         0.602274991605
    4          0.298048200000         0.305103490813
    5          0.119219300000         0.028800580077
 end
  // -----------------------------------------------
  // The basis set
  // -----------------------------------------------
  BAS[ATNO] = new BFNGauss[NSH];
  // Basis function   1 L = s
  InitBFNGauss(BAS[ATNO][  0]);
  BAS[ATNO][  0].l  = 0;
  BAS[ATNO][  0].ng = 68;
  BAS[ATNO][  0].a[  0] =    455476.770000000019;     BAS[ATNO][  0].d[  0] =         0.000319789451;
  BAS[ATNO][  0].a[  1] =     64817.743000000002;     BAS[ATNO][  0].d[  1] =         0.001011396876;
  BAS[ATNO][  0].a[  2] =     19256.987000000001;     BAS[ATNO][  0].d[  2] =         0.002169741334;
  BAS[ATNO][  0].a[  3] =      6877.007300000000;     BAS[ATNO][  0].d[  3] =         0.005961634805;
  BAS[ATNO][  0].a[  4] =      2643.487700000000;     BAS[ATNO][  0].d[  4] =         0.015904611287;
  BAS[ATNO][  0].a[  5] =      1054.237500000000;     BAS[ATNO][  0].d[  5] =         0.044037174968;
  BAS[ATNO][  0].a[  6] =       429.371220000000;     BAS[ATNO][  0].d[  6] =         0.114434974523;
  BAS[ATNO][  0].a[  7] =       177.188590000000;     BAS[ATNO][  0].d[  7] =         0.254572508811;
  BAS[ATNO][  0].a[  8] =        73.763945000000;     BAS[ATNO][  0].d[  8] =         0.398389771313;
  BAS[ATNO][  0].a[  9] =        30.897007000000;     BAS[ATNO][  0].d[  9] =         0.278888434479;
  BAS[ATNO][  0].a[ 10] =        12.999482000000;     BAS[ATNO][  0].d[ 10] =         0.038326884714;
  BAS[ATNO][  0].a[ 11] =         5.487679300000;     BAS[ATNO][  0].d[ 11] =         0.003117922156;
  BAS[ATNO][  0].a[ 12] =         2.322571600000;     BAS[ATNO][  0].d[ 12] =        -0.001384364596;
  BAS[ATNO][  0].a[ 13] =         0.984980700000;     BAS[ATNO][  0].d[ 13] =         0.001002518835;
  BAS[ATNO][  0].a[ 14] =         0.418397300000;     BAS[ATNO][  0].d[ 14] =        -0.000643038139;
  BAS[ATNO][  0].a[ 15] =         0.177959400000;     BAS[ATNO][  0].d[ 15] =         0.000281957797;
  BAS[ATNO][  0].a[ 16] =         0.071183800000;     BAS[ATNO][  0].d[ 16] =        -0.000076263176;
  BAS[ATNO][  0].a[ 17] =    455476.770000000019;     BAS[ATNO][  0].d[ 17] =         0.000001792061;
  BAS[ATNO][  0].a[ 18] =     64817.743000000002;     BAS[ATNO][  0].d[ 18] =         0.000005675546;
  BAS[ATNO][  0].a[ 19] =     19256.987000000001;     BAS[ATNO][  0].d[ 19] =         0.000012209629;
  BAS[ATNO][  0].a[ 20] =      6877.007300000000;     BAS[ATNO][  0].d[ 20] =         0.000033658367;
  BAS[ATNO][  0].a[ 21] =      2643.487700000000;     BAS[ATNO][  0].d[ 21] =         0.000090674813;
  BAS[ATNO][  0].a[ 22] =      1054.237500000000;     BAS[ATNO][  0].d[ 22] =         0.000255639794;
  BAS[ATNO][  0].a[ 23] =       429.371220000000;     BAS[ATNO][  0].d[ 23] =         0.000695822736;
  BAS[ATNO][  0].a[ 24] =       177.188590000000;     BAS[ATNO][  0].d[ 24] =         0.001714539544;
  BAS[ATNO][  0].a[ 25] =        73.763945000000;     BAS[ATNO][  0].d[ 25] =         0.003421165473;
  BAS[ATNO][  0].a[ 26] =        30.897007000000;     BAS[ATNO][  0].d[ 26] =         0.003637732146;
  BAS[ATNO][  0].a[ 27] =        12.999482000000;     BAS[ATNO][  0].d[ 27] =        -0.002680532200;
  BAS[ATNO][  0].a[ 28] =         5.487679300000;     BAS[ATNO][  0].d[ 28] =        -0.012426147793;
  BAS[ATNO][  0].a[ 29] =         2.322571600000;     BAS[ATNO][  0].d[ 29] =        -0.007479465391;
  BAS[ATNO][  0].a[ 30] =         0.984980700000;     BAS[ATNO][  0].d[ 30] =        -0.000097405664;
  BAS[ATNO][  0].a[ 31] =         0.418397300000;     BAS[ATNO][  0].d[ 31] =        -0.000229687506;
  BAS[ATNO][  0].a[ 32] =         0.177959400000;     BAS[ATNO][  0].d[ 32] =         0.000087242231;
  BAS[ATNO][  0].a[ 33] =         0.071183800000;     BAS[ATNO][  0].d[ 33] =        -0.000025281710;
  BAS[ATNO][  0].a[ 34] =    455476.770000000019;     BAS[ATNO][  0].d[ 34] =         0.000000147658;
  BAS[ATNO][  0].a[ 35] =     64817.743000000002;     BAS[ATNO][  0].d[ 35] =         0.000000467236;
  BAS[ATNO][  0].a[ 36] =     19256.987000000001;     BAS[ATNO][  0].d[ 36] =         0.000001008838;
  BAS[ATNO][  0].a[ 37] =      6877.007300000000;     BAS[ATNO][  0].d[ 37] =         0.000002764650;
  BAS[ATNO][  0].a[ 38] =      2643.487700000000;     BAS[ATNO][  0].d[ 38] =         0.000007519293;
  BAS[ATNO][  0].a[ 39] =      1054.237500000000;     BAS[ATNO][  0].d[ 39] =         0.000021024193;
  BAS[ATNO][  0].a[ 40] =       429.371220000000;     BAS[ATNO][  0].d[ 40] =         0.000058113125;
  BAS[ATNO][  0].a[ 41] =       177.188590000000;     BAS[ATNO][  0].d[ 41] =         0.000142986394;
  BAS[ATNO][  0].a[ 42] =        73.763945000000;     BAS[ATNO][  0].d[ 42] =         0.000297024138;
  BAS[ATNO][  0].a[ 43] =        30.897007000000;     BAS[ATNO][  0].d[ 43] =         0.000322551888;
  BAS[ATNO][  0].a[ 44] =        12.999482000000;     BAS[ATNO][  0].d[ 44] =        -0.000249002300;
  BAS[ATNO][  0].a[ 45] =         5.487679300000;     BAS[ATNO][  0].d[ 45] =        -0.001685918353;
  BAS[ATNO][  0].a[ 46] =         2.322571600000;     BAS[ATNO][  0].d[ 46] =        -0.001785096258;
  BAS[ATNO][  0].a[ 47] =         0.984980700000;     BAS[ATNO][  0].d[ 47] =         0.001751701239;
  BAS[ATNO][  0].a[ 48] =         0.418397300000;     BAS[ATNO][  0].d[ 48] =         0.003478755468;
  BAS[ATNO][  0].a[ 49] =         0.177959400000;     BAS[ATNO][  0].d[ 49] =         0.001307232300;
  BAS[ATNO][  0].a[ 50] =         0.071183800000;     BAS[ATNO][  0].d[ 50] =         0.000023191264;
  BAS[ATNO][  0].a[ 51] =    455476.770000000019;     BAS[ATNO][  0].d[ 51] =         0.000000192120;
  BAS[ATNO][  0].a[ 52] =     64817.743000000002;     BAS[ATNO][  0].d[ 52] =         0.000000607760;
  BAS[ATNO][  0].a[ 53] =     19256.987000000001;     BAS[ATNO][  0].d[ 53] =         0.000001313211;
  BAS[ATNO][  0].a[ 54] =      6877.007300000000;     BAS[ATNO][  0].d[ 54] =         0.000003596980;
  BAS[ATNO][  0].a[ 55] =      2643.487700000000;     BAS[ATNO][  0].d[ 55] =         0.000009790838;
  BAS[ATNO][  0].a[ 56] =      1054.237500000000;     BAS[ATNO][  0].d[ 56] =         0.000027403880;
  BAS[ATNO][  0].a[ 57] =       429.371220000000;     BAS[ATNO][  0].d[ 57] =         0.000075880305;
  BAS[ATNO][  0].a[ 58] =       177.188590000000;     BAS[ATNO][  0].d[ 58] =         0.000187740878;
  BAS[ATNO][  0].a[ 59] =        73.763945000000;     BAS[ATNO][  0].d[ 59] =         0.000394846665;
  BAS[ATNO][  0].a[ 60] =        30.897007000000;     BAS[ATNO][  0].d[ 60] =         0.000438911543;
  BAS[ATNO][  0].a[ 61] =        12.999482000000;     BAS[ATNO][  0].d[ 61] =        -0.000480193276;
  BAS[ATNO][  0].a[ 62] =         5.487679300000;     BAS[ATNO][  0].d[ 62] =        -0.002313203642;
  BAS[ATNO][  0].a[ 63] =         2.322571600000;     BAS[ATNO][  0].d[ 63] =        -0.003705819138;
  BAS[ATNO][  0].a[ 64] =         0.984980700000;     BAS[ATNO][  0].d[ 64] =         0.010543091338;
  BAS[ATNO][  0].a[ 65] =         0.418397300000;     BAS[ATNO][  0].d[ 65] =         0.000014834343;
  BAS[ATNO][  0].a[ 66] =         0.177959400000;     BAS[ATNO][  0].d[ 66] =        -0.006585181174;
  BAS[ATNO][  0].a[ 67] =         0.071183800000;     BAS[ATNO][  0].d[ 67] =        -0.000255130331;

  // Basis function   2 L = s
  InitBFNGauss(BAS[ATNO][  1]);
  BAS[ATNO][  1].l  = 0;
  BAS[ATNO][  1].ng = 68;
  BAS[ATNO][  1].a[  0] =    455476.770000000019;     BAS[ATNO][  1].d[  0] =         0.000006524244;
  BAS[ATNO][  1].a[  1] =     64817.743000000002;     BAS[ATNO][  1].d[  1] =         0.000020634201;
  BAS[ATNO][  1].a[  2] =     19256.987000000001;     BAS[ATNO][  1].d[  2] =         0.000044266380;
  BAS[ATNO][  1].a[  3] =      6877.007300000000;     BAS[ATNO][  1].d[  3] =         0.000121627398;
  BAS[ATNO][  1].a[  4] =      2643.487700000000;     BAS[ATNO][  1].d[  4] =         0.000324480876;
  BAS[ATNO][  1].a[  5] =      1054.237500000000;     BAS[ATNO][  1].d[  5] =         0.000898432590;
  BAS[ATNO][  1].a[  6] =       429.371220000000;     BAS[ATNO][  1].d[  6] =         0.002334666350;
  BAS[ATNO][  1].a[  7] =       177.188590000000;     BAS[ATNO][  1].d[  7] =         0.005193708238;
  BAS[ATNO][  1].a[  8] =        73.763945000000;     BAS[ATNO][  1].d[  8] =         0.008127822784;
  BAS[ATNO][  1].a[  9] =        30.897007000000;     BAS[ATNO][  1].d[  9] =         0.005689794104;
  BAS[ATNO][  1].a[ 10] =        12.999482000000;     BAS[ATNO][  1].d[ 10] =         0.000781933045;
  BAS[ATNO][  1].a[ 11] =         5.487679300000;     BAS[ATNO][  1].d[ 11] =         0.000063610867;
  BAS[ATNO][  1].a[ 12] =         2.322571600000;     BAS[ATNO][  1].d[ 12] =        -0.000028243371;
  BAS[ATNO][  1].a[ 13] =         0.984980700000;     BAS[ATNO][  1].d[ 13] =         0.000020453074;
  BAS[ATNO][  1].a[ 14] =         0.418397300000;     BAS[ATNO][  1].d[ 14] =        -0.000013119062;
  BAS[ATNO][  1].a[ 15] =         0.177959400000;     BAS[ATNO][  1].d[ 15] =         0.000005752414;
  BAS[ATNO][  1].a[ 16] =         0.071183800000;     BAS[ATNO][  1].d[ 16] =        -0.000001555897;
  BAS[ATNO][  1].a[ 17] =    455476.770000000019;     BAS[ATNO][  1].d[ 17] =        -0.000090727698;
  BAS[ATNO][  1].a[ 18] =     64817.743000000002;     BAS[ATNO][  1].d[ 18] =        -0.000287339071;
  BAS[ATNO][  1].a[ 19] =     19256.987000000001;     BAS[ATNO][  1].d[ 19] =        -0.000618143777;
  BAS[ATNO][  1].a[ 20] =      6877.007300000000;     BAS[ATNO][  1].d[ 20] =        -0.001704041225;
  BAS[ATNO][  1].a[ 21] =      2643.487700000000;     BAS[ATNO][  1].d[ 21] =        -0.004590645092;
  BAS[ATNO][  1].a[ 22] =      1054.237500000000;     BAS[ATNO][  1].d[ 22] =        -0.012942420645;
  BAS[ATNO][  1].a[ 23] =       429.371220000000;     BAS[ATNO][  1].d[ 23] =        -0.035227811743;
  BAS[ATNO][  1].a[ 24] =       177.188590000000;     BAS[ATNO][  1].d[ 24] =        -0.086802964543;
  BAS[ATNO][  1].a[ 25] =        73.763945000000;     BAS[ATNO][  1].d[ 25] =        -0.173205281994;
  BAS[ATNO][  1].a[ 26] =        30.897007000000;     BAS[ATNO][  1].d[ 26] =        -0.184169525586;
  BAS[ATNO][  1].a[ 27] =        12.999482000000;     BAS[ATNO][  1].d[ 27] =         0.135708821827;
  BAS[ATNO][  1].a[ 28] =         5.487679300000;     BAS[ATNO][  1].d[ 28] =         0.629105621877;
  BAS[ATNO][  1].a[ 29] =         2.322571600000;     BAS[ATNO][  1].d[ 29] =         0.378667130345;
  BAS[ATNO][  1].a[ 30] =         0.984980700000;     BAS[ATNO][  1].d[ 30] =         0.004931411706;
  BAS[ATNO][  1].a[ 31] =         0.418397300000;     BAS[ATNO][  1].d[ 31] =         0.011628519426;
  BAS[ATNO][  1].a[ 32] =         0.177959400000;     BAS[ATNO][  1].d[ 32] =        -0.004416861851;
  BAS[ATNO][  1].a[ 33] =         0.071183800000;     BAS[ATNO][  1].d[ 33] =         0.001279951436;
  BAS[ATNO][  1].a[ 34] =    455476.770000000019;     BAS[ATNO][  1].d[ 34] =        -0.000002841498;
  BAS[ATNO][  1].a[ 35] =     64817.743000000002;     BAS[ATNO][  1].d[ 35] =        -0.000008991359;
  BAS[ATNO][  1].a[ 36] =     19256.987000000001;     BAS[ATNO][  1].d[ 36] =        -0.000019413787;
  BAS[ATNO][  1].a[ 37] =      6877.007300000000;     BAS[ATNO][  1].d[ 37] =        -0.000053202152;
  BAS[ATNO][  1].a[ 38] =      2643.487700000000;     BAS[ATNO][  1].d[ 38] =        -0.000144699159;
  BAS[ATNO][  1].a[ 39] =      1054.237500000000;     BAS[ATNO][  1].d[ 39] =        -0.000404583644;
  BAS[ATNO][  1].a[ 40] =       429.371220000000;     BAS[ATNO][  1].d[ 40] =        -0.001118312587;
  BAS[ATNO][  1].a[ 41] =       177.188590000000;     BAS[ATNO][  1].d[ 41] =        -0.002751589842;
  BAS[ATNO][  1].a[ 42] =        73.763945000000;     BAS[ATNO][  1].d[ 42] =        -0.005715848721;
  BAS[ATNO][  1].a[ 43] =        30.897007000000;     BAS[ATNO][  1].d[ 43] =        -0.006207097548;
  BAS[ATNO][  1].a[ 44] =        12.999482000000;     BAS[ATNO][  1].d[ 44] =         0.004791730032;
  BAS[ATNO][  1].a[ 45] =         5.487679300000;     BAS[ATNO][  1].d[ 45] =         0.032443337229;
  BAS[ATNO][  1].a[ 46] =         2.322571600000;     BAS[ATNO][  1].d[ 46] =         0.034351888858;
  BAS[ATNO][  1].a[ 47] =         0.984980700000;     BAS[ATNO][  1].d[ 47] =        -0.033709244531;
  BAS[ATNO][  1].a[ 48] =         0.418397300000;     BAS[ATNO][  1].d[ 48] =        -0.066944188966;
  BAS[ATNO][  1].a[ 49] =         0.177959400000;     BAS[ATNO][  1].d[ 49] =        -0.025156009648;
  BAS[ATNO][  1].a[ 50] =         0.071183800000;     BAS[ATNO][  1].d[ 50] =        -0.000446286134;
  BAS[ATNO][  1].a[ 51] =    455476.770000000019;     BAS[ATNO][  1].d[ 51] =        -0.000002932373;
  BAS[ATNO][  1].a[ 52] =     64817.743000000002;     BAS[ATNO][  1].d[ 52] =        -0.000009276400;
  BAS[ATNO][  1].a[ 53] =     19256.987000000001;     BAS[ATNO][  1].d[ 53] =        -0.000020043896;
  BAS[ATNO][  1].a[ 54] =      6877.007300000000;     BAS[ATNO][  1].d[ 54] =        -0.000054901688;
  BAS[ATNO][  1].a[ 55] =      2643.487700000000;     BAS[ATNO][  1].d[ 55] =        -0.000149440231;
  BAS[ATNO][  1].a[ 56] =      1054.237500000000;     BAS[ATNO][  1].d[ 56] =        -0.000418272887;
  BAS[ATNO][  1].a[ 57] =       429.371220000000;     BAS[ATNO][  1].d[ 57] =        -0.001158181761;
  BAS[ATNO][  1].a[ 58] =       177.188590000000;     BAS[ATNO][  1].d[ 58] =        -0.002865540159;
  BAS[ATNO][  1].a[ 59] =        73.763945000000;     BAS[ATNO][  1].d[ 59] =        -0.006026652198;
  BAS[ATNO][  1].a[ 60] =        30.897007000000;     BAS[ATNO][  1].d[ 60] =        -0.006699226431;
  BAS[ATNO][  1].a[ 61] =        12.999482000000;     BAS[ATNO][  1].d[ 61] =         0.007329320764;
  BAS[ATNO][  1].a[ 62] =         5.487679300000;     BAS[ATNO][  1].d[ 62] =         0.035307057268;
  BAS[ATNO][  1].a[ 63] =         2.322571600000;     BAS[ATNO][  1].d[ 63] =         0.056562926912;
  BAS[ATNO][  1].a[ 64] =         0.984980700000;     BAS[ATNO][  1].d[ 64] =        -0.160922074884;
  BAS[ATNO][  1].a[ 65] =         0.418397300000;     BAS[ATNO][  1].d[ 65] =        -0.000226420610;
  BAS[ATNO][  1].a[ 66] =         0.177959400000;     BAS[ATNO][  1].d[ 66] =         0.100511413966;
  BAS[ATNO][  1].a[ 67] =         0.071183800000;     BAS[ATNO][  1].d[ 67] =         0.003894123737;

  // Basis function   3 L = s
  InitBFNGauss(BAS[ATNO][  2]);
  BAS[ATNO][  2].l  = 0;
  BAS[ATNO][  2].ng = 67;
  BAS[ATNO][  2].a[  0] =    455476.770000000019;     BAS[ATNO][  2].d[  0] =        -0.000001502809;
  BAS[ATNO][  2].a[  1] =     64817.743000000002;     BAS[ATNO][  2].d[  1] =        -0.000004752928;
  BAS[ATNO][  2].a[  2] =     19256.987000000001;     BAS[ATNO][  2].d[  2] =        -0.000010196418;
  BAS[ATNO][  2].a[  3] =      6877.007300000000;     BAS[ATNO][  2].d[  3] =        -0.000028015929;
  BAS[ATNO][  2].a[  4] =      2643.487700000000;     BAS[ATNO][  2].d[  4] =        -0.000074741657;
  BAS[ATNO][  2].a[  5] =      1054.237500000000;     BAS[ATNO][  2].d[  5] =        -0.000206946990;
  BAS[ATNO][  2].a[  6] =       429.371220000000;     BAS[ATNO][  2].d[  6] =        -0.000537772316;
  BAS[ATNO][  2].a[  7] =       177.188590000000;     BAS[ATNO][  2].d[  7] =        -0.001196330477;
  BAS[ATNO][  2].a[  8] =        73.763945000000;     BAS[ATNO][  2].d[  8] =        -0.001872181043;
  BAS[ATNO][  2].a[  9] =        30.897007000000;     BAS[ATNO][  2].d[  9] =        -0.001310600015;
  BAS[ATNO][  2].a[ 10] =        12.999482000000;     BAS[ATNO][  2].d[ 10] =        -0.000180112222;
  BAS[ATNO][  2].a[ 11] =         5.487679300000;     BAS[ATNO][  2].d[ 11] =        -0.000014652271;
  BAS[ATNO][  2].a[ 12] =         2.322571600000;     BAS[ATNO][  2].d[ 12] =         0.000006505642;
  BAS[ATNO][  2].a[ 13] =         0.984980700000;     BAS[ATNO][  2].d[ 13] =        -0.000004711207;
  BAS[ATNO][  2].a[ 14] =         0.418397300000;     BAS[ATNO][  2].d[ 14] =         0.000003021874;
  BAS[ATNO][  2].a[ 15] =         0.177959400000;     BAS[ATNO][  2].d[ 15] =        -0.000001325024;
  BAS[ATNO][  2].a[ 16] =    455476.770000000019;     BAS[ATNO][  2].d[ 16] =        -0.000011774758;
  BAS[ATNO][  2].a[ 17] =     64817.743000000002;     BAS[ATNO][  2].d[ 17] =        -0.000037291235;
  BAS[ATNO][  2].a[ 18] =     19256.987000000001;     BAS[ATNO][  2].d[ 18] =        -0.000080223496;
  BAS[ATNO][  2].a[ 19] =      6877.007300000000;     BAS[ATNO][  2].d[ 19] =        -0.000221152666;
  BAS[ATNO][  2].a[ 20] =      2643.487700000000;     BAS[ATNO][  2].d[ 20] =        -0.000595779836;
  BAS[ATNO][  2].a[ 21] =      1054.237500000000;     BAS[ATNO][  2].d[ 21] =        -0.001679684029;
  BAS[ATNO][  2].a[ 22] =       429.371220000000;     BAS[ATNO][  2].d[ 22] =        -0.004571910802;
  BAS[ATNO][  2].a[ 23] =       177.188590000000;     BAS[ATNO][  2].d[ 23] =        -0.011265400591;
  BAS[ATNO][  2].a[ 24] =        73.763945000000;     BAS[ATNO][  2].d[ 24] =        -0.022478804686;
  BAS[ATNO][  2].a[ 25] =        30.897007000000;     BAS[ATNO][  2].d[ 25] =        -0.023901758347;
  BAS[ATNO][  2].a[ 26] =        12.999482000000;     BAS[ATNO][  2].d[ 26] =         0.017612465768;
  BAS[ATNO][  2].a[ 27] =         5.487679300000;     BAS[ATNO][  2].d[ 27] =         0.081646138259;
  BAS[ATNO][  2].a[ 28] =         2.322571600000;     BAS[ATNO][  2].d[ 28] =         0.049143908118;
  BAS[ATNO][  2].a[ 29] =         0.984980700000;     BAS[ATNO][  2].d[ 29] =         0.000640004966;
  BAS[ATNO][  2].a[ 30] =         0.418397300000;     BAS[ATNO][  2].d[ 30] =         0.001509164235;
  BAS[ATNO][  2].a[ 31] =         0.177959400000;     BAS[ATNO][  2].d[ 31] =        -0.000573226023;
  BAS[ATNO][  2].a[ 32] =         0.071183800000;     BAS[ATNO][  2].d[ 32] =         0.000166113747;
  BAS[ATNO][  2].a[ 33] =    455476.770000000019;     BAS[ATNO][  2].d[ 33] =         0.000024573016;
  BAS[ATNO][  2].a[ 34] =     64817.743000000002;     BAS[ATNO][  2].d[ 34] =         0.000077756469;
  BAS[ATNO][  2].a[ 35] =     19256.987000000001;     BAS[ATNO][  2].d[ 35] =         0.000167888695;
  BAS[ATNO][  2].a[ 36] =      6877.007300000000;     BAS[ATNO][  2].d[ 36] =         0.000460087444;
  BAS[ATNO][  2].a[ 37] =      2643.487700000000;     BAS[ATNO][  2].d[ 37] =         0.001251345369;
  BAS[ATNO][  2].a[ 38] =      1054.237500000000;     BAS[ATNO][  2].d[ 38] =         0.003498803130;
  BAS[ATNO][  2].a[ 39] =       429.371220000000;     BAS[ATNO][  2].d[ 39] =         0.009671067136;
  BAS[ATNO][  2].a[ 40] =       177.188590000000;     BAS[ATNO][  2].d[ 40] =         0.023795502613;
  BAS[ATNO][  2].a[ 41] =        73.763945000000;     BAS[ATNO][  2].d[ 41] =         0.049430148024;
  BAS[ATNO][  2].a[ 42] =        30.897007000000;     BAS[ATNO][  2].d[ 42] =         0.053678423901;
  BAS[ATNO][  2].a[ 43] =        12.999482000000;     BAS[ATNO][  2].d[ 43] =        -0.041438452331;
  BAS[ATNO][  2].a[ 44] =         5.487679300000;     BAS[ATNO][  2].d[ 44] =        -0.280567075855;
  BAS[ATNO][  2].a[ 45] =         2.322571600000;     BAS[ATNO][  2].d[ 45] =        -0.297072059473;
  BAS[ATNO][  2].a[ 46] =         0.984980700000;     BAS[ATNO][  2].d[ 46] =         0.291514528867;
  BAS[ATNO][  2].a[ 47] =         0.418397300000;     BAS[ATNO][  2].d[ 47] =         0.578927352972;
  BAS[ATNO][  2].a[ 48] =         0.177959400000;     BAS[ATNO][  2].d[ 48] =         0.217546919336;
  BAS[ATNO][  2].a[ 49] =         0.071183800000;     BAS[ATNO][  2].d[ 49] =         0.003859442531;
  BAS[ATNO][  2].a[ 50] =    455476.770000000019;     BAS[ATNO][  2].d[ 50] =         0.000017440066;
  BAS[ATNO][  2].a[ 51] =     64817.743000000002;     BAS[ATNO][  2].d[ 51] =         0.000055170684;
  BAS[ATNO][  2].a[ 52] =     19256.987000000001;     BAS[ATNO][  2].d[ 52] =         0.000119209544;
  BAS[ATNO][  2].a[ 53] =      6877.007300000000;     BAS[ATNO][  2].d[ 53] =         0.000326523605;
  BAS[ATNO][  2].a[ 54] =      2643.487700000000;     BAS[ATNO][  2].d[ 54] =         0.000888784389;
  BAS[ATNO][  2].a[ 55] =      1054.237500000000;     BAS[ATNO][  2].d[ 55] =         0.002487646127;
  BAS[ATNO][  2].a[ 56] =       429.371220000000;     BAS[ATNO][  2].d[ 56] =         0.006888197783;
  BAS[ATNO][  2].a[ 57] =       177.188590000000;     BAS[ATNO][  2].d[ 57] =         0.017042581774;
  BAS[ATNO][  2].a[ 58] =        73.763945000000;     BAS[ATNO][  2].d[ 58] =         0.035843054782;
  BAS[ATNO][  2].a[ 59] =        30.897007000000;     BAS[ATNO][  2].d[ 59] =         0.039843138792;
  BAS[ATNO][  2].a[ 60] =        12.999482000000;     BAS[ATNO][  2].d[ 60] =        -0.043590576830;
  BAS[ATNO][  2].a[ 61] =         5.487679300000;     BAS[ATNO][  2].d[ 61] =        -0.209986033092;
  BAS[ATNO][  2].a[ 62] =         2.322571600000;     BAS[ATNO][  2].d[ 62] =        -0.336403698336;
  BAS[ATNO][  2].a[ 63] =         0.984980700000;     BAS[ATNO][  2].d[ 63] =         0.957071779874;
  BAS[ATNO][  2].a[ 64] =         0.418397300000;     BAS[ATNO][  2].d[ 64] =         0.001346619329;
  BAS[ATNO][  2].a[ 65] =         0.177959400000;     BAS[ATNO][  2].d[ 65] =        -0.597783976694;
  BAS[ATNO][  2].a[ 66] =         0.071183800000;     BAS[ATNO][  2].d[ 66] =        -0.023160004239;

  // Basis function   4 L = s
  InitBFNGauss(BAS[ATNO][  3]);
  BAS[ATNO][  3].l  = 0;
  BAS[ATNO][  3].ng = 66;
  BAS[ATNO][  3].a[  0] =    455476.770000000019;     BAS[ATNO][  3].d[  0] =        -0.000000551237;
  BAS[ATNO][  3].a[  1] =     64817.743000000002;     BAS[ATNO][  3].d[  1] =        -0.000001743396;
  BAS[ATNO][  3].a[  2] =     19256.987000000001;     BAS[ATNO][  3].d[  2] =        -0.000003740094;
  BAS[ATNO][  3].a[  3] =      6877.007300000000;     BAS[ATNO][  3].d[  3] =        -0.000010276374;
  BAS[ATNO][  3].a[  4] =      2643.487700000000;     BAS[ATNO][  3].d[  4] =        -0.000027415590;
  BAS[ATNO][  3].a[  5] =      1054.237500000000;     BAS[ATNO][  3].d[  5] =        -0.000075909125;
  BAS[ATNO][  3].a[  6] =       429.371220000000;     BAS[ATNO][  3].d[  6] =        -0.000197257402;
  BAS[ATNO][  3].a[  7] =       177.188590000000;     BAS[ATNO][  3].d[  7] =        -0.000438819618;
  BAS[ATNO][  3].a[  8] =        73.763945000000;     BAS[ATNO][  3].d[  8] =        -0.000686724769;
  BAS[ATNO][  3].a[  9] =        30.897007000000;     BAS[ATNO][  3].d[  9] =        -0.000480734219;
  BAS[ATNO][  3].a[ 10] =        12.999482000000;     BAS[ATNO][  3].d[ 10] =        -0.000066066006;
  BAS[ATNO][  3].a[ 11] =         5.487679300000;     BAS[ATNO][  3].d[ 11] =        -0.000005374521;
  BAS[ATNO][  3].a[ 12] =         2.322571600000;     BAS[ATNO][  3].d[ 12] =         0.000002386300;
  BAS[ATNO][  3].a[ 13] =         0.984980700000;     BAS[ATNO][  3].d[ 13] =        -0.000001728093;
  BAS[ATNO][  3].a[ 14] =         0.418397300000;     BAS[ATNO][  3].d[ 14] =         0.000001108438;
  BAS[ATNO][  3].a[ 15] =    455476.770000000019;     BAS[ATNO][  3].d[ 15] =        -0.000002090251;
  BAS[ATNO][  3].a[ 16] =     64817.743000000002;     BAS[ATNO][  3].d[ 16] =        -0.000006619929;
  BAS[ATNO][  3].a[ 17] =     19256.987000000001;     BAS[ATNO][  3].d[ 17] =        -0.000014241251;
  BAS[ATNO][  3].a[ 18] =      6877.007300000000;     BAS[ATNO][  3].d[ 18] =        -0.000039258955;
  BAS[ATNO][  3].a[ 19] =      2643.487700000000;     BAS[ATNO][  3].d[ 19] =        -0.000105762658;
  BAS[ATNO][  3].a[ 20] =      1054.237500000000;     BAS[ATNO][  3].d[ 20] =        -0.000298177005;
  BAS[ATNO][  3].a[ 21] =       429.371220000000;     BAS[ATNO][  3].d[ 21] =        -0.000811604234;
  BAS[ATNO][  3].a[ 22] =       177.188590000000;     BAS[ATNO][  3].d[ 22] =        -0.001999830533;
  BAS[ATNO][  3].a[ 23] =        73.763945000000;     BAS[ATNO][  3].d[ 23] =        -0.003990430663;
  BAS[ATNO][  3].a[ 24] =        30.897007000000;     BAS[ATNO][  3].d[ 24] =        -0.004243032970;
  BAS[ATNO][  3].a[ 25] =        12.999482000000;     BAS[ATNO][  3].d[ 25] =         0.003126559638;
  BAS[ATNO][  3].a[ 26] =         5.487679300000;     BAS[ATNO][  3].d[ 26] =         0.014493797965;
  BAS[ATNO][  3].a[ 27] =         2.322571600000;     BAS[ATNO][  3].d[ 27] =         0.008724011823;
  BAS[ATNO][  3].a[ 28] =         0.984980700000;     BAS[ATNO][  3].d[ 28] =         0.000113613489;
  BAS[ATNO][  3].a[ 29] =         0.418397300000;     BAS[ATNO][  3].d[ 29] =         0.000267906382;
  BAS[ATNO][  3].a[ 30] =         0.177959400000;     BAS[ATNO][  3].d[ 30] =        -0.000101758912;
  BAS[ATNO][  3].a[ 31] =         0.071183800000;     BAS[ATNO][  3].d[ 31] =         0.000029488462;
  BAS[ATNO][  3].a[ 32] =    455476.770000000019;     BAS[ATNO][  3].d[ 32] =        -0.000014961920;
  BAS[ATNO][  3].a[ 33] =     64817.743000000002;     BAS[ATNO][  3].d[ 33] =        -0.000047344049;
  BAS[ATNO][  3].a[ 34] =     19256.987000000001;     BAS[ATNO][  3].d[ 34] =        -0.000102223399;
  BAS[ATNO][  3].a[ 35] =      6877.007300000000;     BAS[ATNO][  3].d[ 35] =        -0.000280136207;
  BAS[ATNO][  3].a[ 36] =      2643.487700000000;     BAS[ATNO][  3].d[ 36] =        -0.000761914174;
  BAS[ATNO][  3].a[ 37] =      1054.237500000000;     BAS[ATNO][  3].d[ 37] =        -0.002130337287;
  BAS[ATNO][  3].a[ 38] =       429.371220000000;     BAS[ATNO][  3].d[ 38] =        -0.005888480764;
  BAS[ATNO][  3].a[ 39] =       177.188590000000;     BAS[ATNO][  3].d[ 39] =        -0.014488510671;
  BAS[ATNO][  3].a[ 40] =        73.763945000000;     BAS[ATNO][  3].d[ 40] =        -0.030096831270;
  BAS[ATNO][  3].a[ 41] =        30.897007000000;     BAS[ATNO][  3].d[ 41] =        -0.032683504533;
  BAS[ATNO][  3].a[ 42] =        12.999482000000;     BAS[ATNO][  3].d[ 42] =         0.025230879489;
  BAS[ATNO][  3].a[ 43] =         5.487679300000;     BAS[ATNO][  3].d[ 43] =         0.170830561499;
  BAS[ATNO][  3].a[ 44] =         2.322571600000;     BAS[ATNO][  3].d[ 44] =         0.180880050059;
  BAS[ATNO][  3].a[ 45] =         0.984980700000;     BAS[ATNO][  3].d[ 45] =        -0.177496203001;
  BAS[ATNO][  3].a[ 46] =         0.418397300000;     BAS[ATNO][  3].d[ 46] =        -0.352494976376;
  BAS[ATNO][  3].a[ 47] =         0.177959400000;     BAS[ATNO][  3].d[ 47] =        -0.132459100089;
  BAS[ATNO][  3].a[ 48] =         0.071183800000;     BAS[ATNO][  3].d[ 48] =        -0.002349921967;
  BAS[ATNO][  3].a[ 49] =    455476.770000000019;     BAS[ATNO][  3].d[ 49] =         0.000029201849;
  BAS[ATNO][  3].a[ 50] =     64817.743000000002;     BAS[ATNO][  3].d[ 50] =         0.000092378432;
  BAS[ATNO][  3].a[ 51] =     19256.987000000001;     BAS[ATNO][  3].d[ 51] =         0.000199605842;
  BAS[ATNO][  3].a[ 52] =      6877.007300000000;     BAS[ATNO][  3].d[ 52] =         0.000546734907;
  BAS[ATNO][  3].a[ 53] =      2643.487700000000;     BAS[ATNO][  3].d[ 53] =         0.001488190879;
  BAS[ATNO][  3].a[ 54] =      1054.237500000000;     BAS[ATNO][  3].d[ 54] =         0.004165343500;
  BAS[ATNO][  3].a[ 55] =       429.371220000000;     BAS[ATNO][  3].d[ 55] =         0.011533678185;
  BAS[ATNO][  3].a[ 56] =       177.188590000000;     BAS[ATNO][  3].d[ 56] =         0.028536296403;
  BAS[ATNO][  3].a[ 57] =        73.763945000000;     BAS[ATNO][  3].d[ 57] =         0.060016026256;
  BAS[ATNO][  3].a[ 58] =        30.897007000000;     BAS[ATNO][  3].d[ 58] =         0.066713813274;
  BAS[ATNO][  3].a[ 59] =        12.999482000000;     BAS[ATNO][  3].d[ 59] =        -0.072988566948;
  BAS[ATNO][  3].a[ 60] =         5.487679300000;     BAS[ATNO][  3].d[ 60] =        -0.351603047015;
  BAS[ATNO][  3].a[ 61] =         2.322571600000;     BAS[ATNO][  3].d[ 61] =        -0.563278250558;
  BAS[ATNO][  3].a[ 62] =         0.984980700000;     BAS[ATNO][  3].d[ 62] =         1.602532078254;
  BAS[ATNO][  3].a[ 63] =         0.418397300000;     BAS[ATNO][  3].d[ 63] =         0.002254795008;
  BAS[ATNO][  3].a[ 64] =         0.177959400000;     BAS[ATNO][  3].d[ 64] =        -1.000936417375;
  BAS[ATNO][  3].a[ 65] =         0.071183800000;     BAS[ATNO][  3].d[ 65] =        -0.038779379463;

  // Basis function   5 L = p
  InitBFNGauss(BAS[ATNO][  4]);
  BAS[ATNO][  4].l  = 1;
  BAS[ATNO][  4].ng = 36;
  BAS[ATNO][  4].a[  0] =      1462.496200000000;     BAS[ATNO][  4].d[  0] =         0.000953292652;
  BAS[ATNO][  4].a[  1] =       354.067310000000;     BAS[ATNO][  4].d[  1] =         0.006151666004;
  BAS[ATNO][  4].a[  2] =       126.697790000000;     BAS[ATNO][  4].d[  2] =         0.025529815338;
  BAS[ATNO][  4].a[  3] =        49.989095000000;     BAS[ATNO][  4].d[  3] =         0.092158924627;
  BAS[ATNO][  4].a[  4] =        20.509295000000;     BAS[ATNO][  4].d[  4] =         0.241760810945;
  BAS[ATNO][  4].a[  5] =         8.580464100000;     BAS[ATNO][  4].d[  5] =         0.412607666358;
  BAS[ATNO][  4].a[  6] =         3.630104900000;     BAS[ATNO][  4].d[  6] =         0.341076611455;
  BAS[ATNO][  4].a[  7] =         1.546528000000;     BAS[ATNO][  4].d[  7] =         0.072273566392;
  BAS[ATNO][  4].a[  8] =         0.661936900000;     BAS[ATNO][  4].d[  8] =         0.003482805379;
  BAS[ATNO][  4].a[  9] =         0.284242800000;     BAS[ATNO][  4].d[  9] =         0.000287784778;
  BAS[ATNO][  4].a[ 10] =         0.122346300000;     BAS[ATNO][  4].d[ 10] =         0.000471834220;
  BAS[ATNO][  4].a[ 11] =         0.048938500000;     BAS[ATNO][  4].d[ 11] =        -0.000084704967;
  BAS[ATNO][  4].a[ 12] =      1462.496200000000;     BAS[ATNO][  4].d[ 12] =         0.000026942193;
  BAS[ATNO][  4].a[ 13] =       354.067310000000;     BAS[ATNO][  4].d[ 13] =         0.000174576851;
  BAS[ATNO][  4].a[ 14] =       126.697790000000;     BAS[ATNO][  4].d[ 14] =         0.000730615161;
  BAS[ATNO][  4].a[ 15] =        49.989095000000;     BAS[ATNO][  4].d[ 15] =         0.002694059036;
  BAS[ATNO][  4].a[ 16] =        20.509295000000;     BAS[ATNO][  4].d[ 16] =         0.007300772363;
  BAS[ATNO][  4].a[ 17] =         8.580464100000;     BAS[ATNO][  4].d[ 17] =         0.013093010629;
  BAS[ATNO][  4].a[ 18] =         3.630104900000;     BAS[ATNO][  4].d[ 18] =         0.010822660156;
  BAS[ATNO][  4].a[ 19] =         1.546528000000;     BAS[ATNO][  4].d[ 19] =        -0.015891942070;
  BAS[ATNO][  4].a[ 20] =         0.661936900000;     BAS[ATNO][  4].d[ 20] =        -0.043866910507;
  BAS[ATNO][  4].a[ 21] =         0.284242800000;     BAS[ATNO][  4].d[ 21] =        -0.040239509061;
  BAS[ATNO][  4].a[ 22] =         0.122346300000;     BAS[ATNO][  4].d[ 22] =        -0.014393625909;
  BAS[ATNO][  4].a[ 23] =         0.048938500000;     BAS[ATNO][  4].d[ 23] =        -0.000663735726;
  BAS[ATNO][  4].a[ 24] =      1462.496200000000;     BAS[ATNO][  4].d[ 24] =         0.000030058470;
  BAS[ATNO][  4].a[ 25] =       354.067310000000;     BAS[ATNO][  4].d[ 25] =         0.000182831341;
  BAS[ATNO][  4].a[ 26] =       126.697790000000;     BAS[ATNO][  4].d[ 26] =         0.000832157054;
  BAS[ATNO][  4].a[ 27] =        49.989095000000;     BAS[ATNO][  4].d[ 27] =         0.002831672861;
  BAS[ATNO][  4].a[ 28] =        20.509295000000;     BAS[ATNO][  4].d[ 28] =         0.008593918390;
  BAS[ATNO][  4].a[ 29] =         8.580464100000;     BAS[ATNO][  4].d[ 29] =         0.012850281169;
  BAS[ATNO][  4].a[ 30] =         3.630104900000;     BAS[ATNO][  4].d[ 30] =         0.015681099699;
  BAS[ATNO][  4].a[ 31] =         1.546528000000;     BAS[ATNO][  4].d[ 31] =        -0.040218427024;
  BAS[ATNO][  4].a[ 32] =         0.661936900000;     BAS[ATNO][  4].d[ 32] =        -0.065726956705;
  BAS[ATNO][  4].a[ 33] =         0.284242800000;     BAS[ATNO][  4].d[ 33] =         0.045601602342;
  BAS[ATNO][  4].a[ 34] =         0.122346300000;     BAS[ATNO][  4].d[ 34] =         0.054022357766;
  BAS[ATNO][  4].a[ 35] =         0.048938500000;     BAS[ATNO][  4].d[ 35] =         0.005560280937;

  // Basis function   6 L = p
  InitBFNGauss(BAS[ATNO][  5]);
  BAS[ATNO][  5].l  = 1;
  BAS[ATNO][  5].ng = 36;
  BAS[ATNO][  5].a[  0] =      1462.496200000000;     BAS[ATNO][  5].d[  0] =         0.000126098092;
  BAS[ATNO][  5].a[  1] =       354.067310000000;     BAS[ATNO][  5].d[  1] =         0.000813720048;
  BAS[ATNO][  5].a[  2] =       126.697790000000;     BAS[ATNO][  5].d[  2] =         0.003376991299;
  BAS[ATNO][  5].a[  3] =        49.989095000000;     BAS[ATNO][  5].d[  3] =         0.012190448010;
  BAS[ATNO][  5].a[  4] =        20.509295000000;     BAS[ATNO][  5].d[  4] =         0.031979242472;
  BAS[ATNO][  5].a[  5] =         8.580464100000;     BAS[ATNO][  5].d[  5] =         0.054578244326;
  BAS[ATNO][  5].a[  6] =         3.630104900000;     BAS[ATNO][  5].d[  6] =         0.045116376044;
  BAS[ATNO][  5].a[  7] =         1.546528000000;     BAS[ATNO][  5].d[  7] =         0.009560085007;
  BAS[ATNO][  5].a[  8] =         0.661936900000;     BAS[ATNO][  5].d[  8] =         0.000460692853;
  BAS[ATNO][  5].a[  9] =         0.284242800000;     BAS[ATNO][  5].d[  9] =         0.000038067126;
  BAS[ATNO][  5].a[ 10] =         0.122346300000;     BAS[ATNO][  5].d[ 10] =         0.000062412518;
  BAS[ATNO][  5].a[ 11] =         0.048938500000;     BAS[ATNO][  5].d[ 11] =        -0.000011204466;
  BAS[ATNO][  5].a[ 12] =      1462.496200000000;     BAS[ATNO][  5].d[ 12] =        -0.000227200816;
  BAS[ATNO][  5].a[ 13] =       354.067310000000;     BAS[ATNO][  5].d[ 13] =        -0.001472189075;
  BAS[ATNO][  5].a[ 14] =       126.697790000000;     BAS[ATNO][  5].d[ 14] =        -0.006161204388;
  BAS[ATNO][  5].a[ 15] =        49.989095000000;     BAS[ATNO][  5].d[ 15] =        -0.022718729683;
  BAS[ATNO][  5].a[ 16] =        20.509295000000;     BAS[ATNO][  5].d[ 16] =        -0.061566681202;
  BAS[ATNO][  5].a[ 17] =         8.580464100000;     BAS[ATNO][  5].d[ 17] =        -0.110412045643;
  BAS[ATNO][  5].a[ 18] =         3.630104900000;     BAS[ATNO][  5].d[ 18] =        -0.091266407782;
  BAS[ATNO][  5].a[ 19] =         1.546528000000;     BAS[ATNO][  5].d[ 19] =         0.134015153801;
  BAS[ATNO][  5].a[ 20] =         0.661936900000;     BAS[ATNO][  5].d[ 20] =         0.369925257255;
  BAS[ATNO][  5].a[ 21] =         0.284242800000;     BAS[ATNO][  5].d[ 21] =         0.339335744620;
  BAS[ATNO][  5].a[ 22] =         0.122346300000;     BAS[ATNO][  5].d[ 22] =         0.121380003869;
  BAS[ATNO][  5].a[ 23] =         0.048938500000;     BAS[ATNO][  5].d[ 23] =         0.005597216817;
  BAS[ATNO][  5].a[ 24] =      1462.496200000000;     BAS[ATNO][  5].d[ 24] =        -0.000184657760;
  BAS[ATNO][  5].a[ 25] =       354.067310000000;     BAS[ATNO][  5].d[ 25] =        -0.001123185093;
  BAS[ATNO][  5].a[ 26] =       126.697790000000;     BAS[ATNO][  5].d[ 26] =        -0.005112178215;
  BAS[ATNO][  5].a[ 27] =        49.989095000000;     BAS[ATNO][  5].d[ 27] =        -0.017395774320;
  BAS[ATNO][  5].a[ 28] =        20.509295000000;     BAS[ATNO][  5].d[ 28] =        -0.052794892699;
  BAS[ATNO][  5].a[ 29] =         8.580464100000;     BAS[ATNO][  5].d[ 29] =        -0.078942943682;
  BAS[ATNO][  5].a[ 30] =         3.630104900000;     BAS[ATNO][  5].d[ 30] =        -0.096333469602;
  BAS[ATNO][  5].a[ 31] =         1.546528000000;     BAS[ATNO][  5].d[ 31] =         0.247073272381;
  BAS[ATNO][  5].a[ 32] =         0.661936900000;     BAS[ATNO][  5].d[ 32] =         0.403779448340;
  BAS[ATNO][  5].a[ 33] =         0.284242800000;     BAS[ATNO][  5].d[ 33] =        -0.280143654292;
  BAS[ATNO][  5].a[ 34] =         0.122346300000;     BAS[ATNO][  5].d[ 34] =        -0.331874757482;
  BAS[ATNO][  5].a[ 35] =         0.048938500000;     BAS[ATNO][  5].d[ 35] =        -0.034158392262;

  // Basis function   7 L = p
  InitBFNGauss(BAS[ATNO][  6]);
  BAS[ATNO][  6].l  = 1;
  BAS[ATNO][  6].ng = 35;
  BAS[ATNO][  6].a[  0] =      1462.496200000000;     BAS[ATNO][  6].d[  0] =         0.000019297367;
  BAS[ATNO][  6].a[  1] =       354.067310000000;     BAS[ATNO][  6].d[  1] =         0.000124527296;
  BAS[ATNO][  6].a[  2] =       126.697790000000;     BAS[ATNO][  6].d[  2] =         0.000516796403;
  BAS[ATNO][  6].a[  3] =        49.989095000000;     BAS[ATNO][  6].d[  3] =         0.001865559941;
  BAS[ATNO][  6].a[  4] =        20.509295000000;     BAS[ATNO][  6].d[  4] =         0.004893929545;
  BAS[ATNO][  6].a[  5] =         8.580464100000;     BAS[ATNO][  6].d[  5] =         0.008352358023;
  BAS[ATNO][  6].a[  6] =         3.630104900000;     BAS[ATNO][  6].d[  6] =         0.006904365102;
  BAS[ATNO][  6].a[  7] =         1.546528000000;     BAS[ATNO][  6].d[  7] =         0.001463023476;
  BAS[ATNO][  6].a[  8] =         0.661936900000;     BAS[ATNO][  6].d[  8] =         0.000070501932;
  BAS[ATNO][  6].a[  9] =         0.284242800000;     BAS[ATNO][  6].d[  9] =         0.000005825586;
  BAS[ATNO][  6].a[ 10] =         0.122346300000;     BAS[ATNO][  6].d[ 10] =         0.000009551273;
  BAS[ATNO][  6].a[ 11] =      1462.496200000000;     BAS[ATNO][  6].d[ 11] =         0.000153688948;
  BAS[ATNO][  6].a[ 12] =       354.067310000000;     BAS[ATNO][  6].d[ 12] =         0.000995855539;
  BAS[ATNO][  6].a[ 13] =       126.697790000000;     BAS[ATNO][  6].d[ 13] =         0.004167718413;
  BAS[ATNO][  6].a[ 14] =        49.989095000000;     BAS[ATNO][  6].d[ 14] =         0.015367980361;
  BAS[ATNO][  6].a[ 15] =        20.509295000000;     BAS[ATNO][  6].d[ 15] =         0.041646498761;
  BAS[ATNO][  6].a[ 16] =         8.580464100000;     BAS[ATNO][  6].d[ 16] =         0.074687721220;
  BAS[ATNO][  6].a[ 17] =         3.630104900000;     BAS[ATNO][  6].d[ 17] =         0.061736742413;
  BAS[ATNO][  6].a[ 18] =         1.546528000000;     BAS[ATNO][  6].d[ 18] =        -0.090653935339;
  BAS[ATNO][  6].a[ 19] =         0.661936900000;     BAS[ATNO][  6].d[ 19] =        -0.250234241429;
  BAS[ATNO][  6].a[ 20] =         0.284242800000;     BAS[ATNO][  6].d[ 20] =        -0.229542106086;
  BAS[ATNO][  6].a[ 21] =         0.122346300000;     BAS[ATNO][  6].d[ 21] =        -0.082106946193;
  BAS[ATNO][  6].a[ 22] =         0.048938500000;     BAS[ATNO][  6].d[ 22] =        -0.003786211612;
  BAS[ATNO][  6].a[ 23] =      1462.496200000000;     BAS[ATNO][  6].d[ 23] =        -0.000278251847;
  BAS[ATNO][  6].a[ 24] =       354.067310000000;     BAS[ATNO][  6].d[ 24] =        -0.001692473291;
  BAS[ATNO][  6].a[ 25] =       126.697790000000;     BAS[ATNO][  6].d[ 25] =        -0.007703294089;
  BAS[ATNO][  6].a[ 26] =        49.989095000000;     BAS[ATNO][  6].d[ 26] =        -0.026212850932;
  BAS[ATNO][  6].a[ 27] =        20.509295000000;     BAS[ATNO][  6].d[ 27] =        -0.079554070252;
  BAS[ATNO][  6].a[ 28] =         8.580464100000;     BAS[ATNO][  6].d[ 28] =        -0.118955303561;
  BAS[ATNO][  6].a[ 29] =         3.630104900000;     BAS[ATNO][  6].d[ 29] =        -0.145160245934;
  BAS[ATNO][  6].a[ 30] =         1.546528000000;     BAS[ATNO][  6].d[ 30] =         0.372302763833;
  BAS[ATNO][  6].a[ 31] =         0.661936900000;     BAS[ATNO][  6].d[ 31] =         0.608435720899;
  BAS[ATNO][  6].a[ 32] =         0.284242800000;     BAS[ATNO][  6].d[ 32] =        -0.422134922803;
  BAS[ATNO][  6].a[ 33] =         0.122346300000;     BAS[ATNO][  6].d[ 33] =        -0.500086020096;
  BAS[ATNO][  6].a[ 34] =         0.048938500000;     BAS[ATNO][  6].d[ 34] =        -0.051471629143;

  // Basis function   8 L = d
  InitBFNGauss(BAS[ATNO][  7]);
  BAS[ATNO][  7].l  = 2;
  BAS[ATNO][  7].ng = 5;
  BAS[ATNO][  7].a[  0] =         4.328841700000;     BAS[ATNO][  7].d[  0] =         0.027886140074;
  BAS[ATNO][  7].a[  1] =         1.774230200000;     BAS[ATNO][  7].d[  1] =         0.193753660516;
  BAS[ATNO][  7].a[  2] =         0.727190600000;     BAS[ATNO][  7].d[  2] =         0.602274991605;
  BAS[ATNO][  7].a[  3] =         0.298048200000;     BAS[ATNO][  7].d[  3] =         0.305103490813;
  BAS[ATNO][  7].a[  4] =         0.119219300000;     BAS[ATNO][  7].d[  4] =         0.028800580077;

-------
TIMINGS
-------

Total SCF time: 0 days 0 hours 0 min 3 sec 

Total time                  ....       3.631 sec
Sum of individual times     ....       3.370 sec  ( 92.8%)

Fock matrix formation       ....       2.893 sec  ( 79.7%)
  XC integration            ....       0.039 sec  (  1.4% of F)
    Basis function eval.    ....       0.006 sec  ( 16.3% of XC)
    Density eval.           ....       0.001 sec  (  1.5% of XC)
    XC-Functional eval.     ....       0.001 sec  (  3.4% of XC)
    XC-Potential eval.      ....       0.000 sec  (  0.7% of XC)
Diagonalization             ....       0.000 sec  (  0.0%)
Density matrix formation    ....       0.000 sec  (  0.0%)
Population analysis         ....       0.001 sec  (  0.0%)
Initial guess               ....       0.095 sec  (  2.6%)
Orbital Transformation      ....       0.000 sec  (  0.0%)
Orbital Orthonormalization  ....       0.000 sec  (  0.0%)
DIIS solution               ....       0.000 sec  (  0.0%)
SOSCF solution              ....       0.000 sec  (  0.0%)
Grid generation             ....       0.380 sec  ( 10.5%)

-------------------------   --------------------
FINAL SINGLE POINT ENERGY      -322.212830653710
-------------------------   --------------------


                            ***************************************
                            *     ORCA property calculations      *
                            ***************************************

                                    ---------------------
                                    Active property flags
                                    ---------------------
   (+) Dipole Moment


------------------------------------------------------------------------------
                       ORCA ELECTRIC PROPERTIES CALCULATION
------------------------------------------------------------------------------

Dipole Moment Calculation                       ... on
Quadrupole Moment Calculation                   ... off
Polarizability Calculation                      ... off
GBWName                                         ... Ar_ano-rcc-dzp_68.5179945_.gbw
Electron density file                           ... Ar_ano-rcc-dzp_68.5179945_.scfp
The origin for moment calculation is the CENTER OF MASS  = ( 0.000000,  0.000000  0.000000)

-------------
DIPOLE MOMENT
-------------
                                X             Y             Z
Electronic contribution:      0.00000      -0.00000       0.00000
Nuclear contribution   :      0.00000       0.00000       0.00000
                        -----------------------------------------
Total Dipole Moment    :      0.00000      -0.00000       0.00000
                        -----------------------------------------
Magnitude (a.u.)       :      0.00000
Magnitude (Debye)      :      0.00000



--------------------
Rotational spectrum 
--------------------
 
Rotational constants in cm-1:     0.000000     0.000000     0.000000 
Rotational constants in MHz :     0.000000     0.000000     0.000000 

 Dipole components along the rotational axes: 
x,y,z [a.u.] :     0.000000    -0.000000     0.000000 
x,y,z [Debye]:     0.000000    -0.000000     0.000000 

 

Timings for individual modules:

Sum of individual times         ...        4.623 sec (=   0.077 min)
GTO integral calculation        ...        0.342 sec (=   0.006 min)   7.4 %
Relativistic integrals          ...        0.372 sec (=   0.006 min)   8.0 %
SCF iterations                  ...        3.910 sec (=   0.065 min)  84.6 %
                             ****ORCA TERMINATED NORMALLY****
TOTAL RUN TIME: 0 days 0 hours 0 minutes 4 seconds 980 msec
