
                                 *****************
                                 * O   R   C   A *
                                 *****************

           --- An Ab Initio, DFT and Semiempirical electronic structure package ---

                  #######################################################
                  #                        -***-                        #
                  #          Department of theory and spectroscopy      #
                  #               Directorship: Frank Neese             #
                  #        Max Planck Institute fuer Kohlenforschung    #
                  #                Kaiser Wilhelm Platz 1               #
                  #                 D-45470 Muelheim/Ruhr               #
                  #                      Germany                        #
                  #                                                     #
                  #                  All rights reserved                #
                  #                        -***-                        #
                  #######################################################


                         Program Version 4.2.1 -  RELEASE  -


 With contributions from (in alphabetic order):
   Daniel Aravena         : Magnetic Suceptibility
   Michael Atanasov       : Ab Initio Ligand Field Theory (pilot matlab implementation)
   Alexander A. Auer      : GIAO ZORA, VPT2
   Ute Becker             : Parallelization
   Giovanni Bistoni       : ED, misc. LED, open-shell LED, HFLD
   Martin Brehm           : Molecular dynamics
   Dmytro Bykov           : SCF Hessian
   Vijay G. Chilkuri      : MRCI spin determinant printing, contributions to CSF-ICE
   Dipayan Datta          : RHF DLPNO-CCSD density
   Achintya Kumar Dutta   : EOM-CC, STEOM-CC
   Dmitry Ganyushin       : Spin-Orbit,Spin-Spin,Magnetic field MRCI
   Miquel Garcia          : C-PCM Hessian, Gaussian charge scheme
   Yang Guo               : DLPNO-NEVPT2, CIM, IAO-localization
   Andreas Hansen         : Spin unrestricted coupled pair/coupled cluster methods
   Benjamin Helmich-Paris : CASSCF linear response (MC-RPA)
   Lee Huntington         : MR-EOM, pCC
   Robert Izsak           : Overlap fitted RIJCOSX, COSX-SCS-MP3, EOM
   Christian Kollmar      : KDIIS, OOCD, Brueckner-CCSD(T), CCSD density
   Simone Kossmann        : Meta GGA functionals, TD-DFT gradient, OOMP2, MP2 Hessian
   Martin Krupicka        : AUTO-CI
   Lucas Lang             : DCDCAS
   Dagmar Lenk            : GEPOL surface, SMD
   Dimitrios Liakos       : Extrapolation schemes; Compound Job, initial MDCI parallelization
   Dimitrios Manganas     : Further ROCIS development; embedding schemes
   Dimitrios Pantazis     : SARC Basis sets
   Taras Petrenko         : DFT Hessian,TD-DFT gradient, ASA, ECA, R-Raman, ABS, FL, XAS/XES, NRVS
   Peter Pinski           : DLPNO-MP2, DLPNO-MP2 Gradient
   Christoph Reimann      : Effective Core Potentials
   Marius Retegan         : Local ZFS, SOC
   Christoph Riplinger    : Optimizer, TS searches, QM/MM, DLPNO-CCSD(T), (RO)-DLPNO pert. Triples
   Tobias Risthaus        : Range-separated hybrids, TD-DFT gradient, RPA, STAB
   Michael Roemelt        : Original ROCIS implementation
   Masaaki Saitow         : Open-shell DLPNO-CCSD energy and density
   Barbara Sandhoefer     : DKH picture change effects
   Avijit Sen             : IP-ROCIS
   Kantharuban Sivalingam : CASSCF convergence, NEVPT2, FIC-MRCI
   Bernardo de Souza      : ESD, SOC TD-DFT
   Georgi Stoychev        : AutoAux, RI-MP2 NMR
   Willem Van den Heuvel  : Paramagnetic NMR
   Boris Wezisla          : Elementary symmetry handling
   Frank Wennmohs         : Technical directorship


 We gratefully acknowledge several colleagues who have allowed us to
 interface, adapt or use parts of their codes:
   Stefan Grimme, W. Hujo, H. Kruse,             : VdW corrections, initial TS optimization,
                  C. Bannwarth                     DFT functionals, gCP, sTDA/sTD-DF
   Ed Valeev, F. Pavosevic, A. Kumar             : LibInt (2-el integral package), F12 methods
   Garnet Chan, S. Sharma, J. Yang, R. Olivares  : DMRG
   Ulf Ekstrom                                   : XCFun DFT Library
   Mihaly Kallay                                 : mrcc  (arbitrary order and MRCC methods)
   Andreas Klamt, Michael Diedenhofen            : otool_cosmo (COSMO solvation model)
   Jiri Pittner, Ondrej Demel                    : Mk-CCSD
   Frank Weinhold                                : gennbo (NPA and NBO analysis)
   Christopher J. Cramer and Donald G. Truhlar   : smd solvation model
   Lars Goerigk                                  : TD-DFT with DH, B97 family of functionals
   V. Asgeirsson, H. Jonsson                     : NEB implementation
   FAccTs GmbH                                   : IRC, NEB, NEB-TS, Multilevel, MM, QM/MM, CI optimization
   S Lehtola, MJT Oliveira, MAL Marques          : LibXC Library


 Your calculation uses the libint2 library for the computation of 2-el integrals
 For citations please refer to: http://libint.valeyev.net

 Your ORCA version has been built with support for libXC version: 4.2.3
 For citations please refer to: https://tddft.org/programs/libxc/

 This ORCA versions uses:
   CBLAS   interface :  Fast vector & matrix operations
   LAPACKE interface :  Fast linear algebra routines
   SCALAPACK package :  Parallel linear algebra routines


----- Orbital basis set information -----
Your calculation utilizes the basis: ANO-RCC-TZP
   H, He:       P.-O. Widmark, P.-A. Malmqvist, and B. O. Roos, Theor. Chim. Acta 77, 291 (1990).
   s block:     B. O. Roos, V. Veryazov and P.-O. Widmark, Theor. Chem. Acc. 111, 345 (2004).
   p block:     B. O. Roos, R. Lindh, P.-A. Malmqvist, V. Veryazov, and P.-O. Widmark, J. Phys. Chem. A 108, 2851 (2004).
   d block:     B. O. Roos, R. Lindh, P.-A. Malmqvist, V. Veryazov, and P.-O. Widmark, J. Phys. Chem. A 109, 6575 (2005).
   actinides:   B. O. Roos, R. Lindh, P.-A. Malmqvist, V. Veryazov, and P.-O. Widmark, Chem. Phys. Letters 409, 295 (2005).
   lanthanides: B. O. Roos, R. Lindh, P.-A. Malmqvist, V. Veryazov, P.-O. Widmark and A. C. Borin, J. Phys. Chem. A 112, 11431 (2008).

================================================================================
                                        WARNINGS
                       Please study these warnings very carefully!
================================================================================


INFO   : the flag for use of LIBINT has been found!

================================================================================
                                       INPUT FILE
================================================================================
NAME = Ar_ano-rcc-tzp_137.035989_.inp
|  1> ! LDA ano-rcc-tzp nori grid5 finalgrid6 verytightscf
|  2> %Pal NProcs 18 End
|  3> 
|  4> % REL
|  5>   Method ZORA
|  6>   ModelPot 1, 0, 0, 0
|  7>   velit 137.035989
|  8> END
|  9> 
| 10> *xyz 16 1
| 11> Ar 0.0 0.0 0.0
| 12> **                         ****END OF INPUT****
================================================================================

                       ****************************
                       * Single Point Calculation *
                       ****************************

---------------------------------
CARTESIAN COORDINATES (ANGSTROEM)
---------------------------------
  Ar     0.000000    0.000000    0.000000

----------------------------
CARTESIAN COORDINATES (A.U.)
----------------------------
  NO LB      ZA    FRAG     MASS         X           Y           Z
   0 Ar   18.0000    0    39.948    0.000000    0.000000    0.000000

--------------------------------
INTERNAL COORDINATES (ANGSTROEM)
--------------------------------
 Ar     0   0   0     0.000000000000     0.00000000     0.00000000

---------------------------
INTERNAL COORDINATES (A.U.)
---------------------------
 Ar     0   0   0     0.000000000000     0.00000000     0.00000000

---------------------
BASIS SET INFORMATION
---------------------
There are 1 groups of distinct atoms

 Group   1 Type Ar  : 85s48p10d4f contracted to 5s4p2d1f pattern {1717171717/12121212/55/4}

Atom   0Ar   basis set group =>   1


           ************************************************************
           *        Program running with 18 parallel MPI-processes    *
           *              working on a common directory               *
           ************************************************************


------------------------------------------------------------------------------
                       ORCA GTO INTEGRAL CALCULATION
                     -- ANO INTEGRAL GENERATION BRANCH --
------------------------------------------------------------------------------


Gathering ANO information                         ... done
Calculation Information:
Number of atoms                                   ... 1
Number of basis functions                         ... 34
Highest angular momentum                          ... 3
Number of primitive shells                        ... 38
Total number of shells                            ... 12
Maximum number of shells                          ... 12

Getting memory                                    ... done
Making prescreening integrals                     ... done
Gathering atom contracted prescreening            ... done
Making one-electron integrals                     ... done

Timings:

Total time                                        ...    0.2 sec
Prescreening matrix                               ...    0.1 sec
One-electron matrix                               ...    0.0 sec
Two-index integrals + Cholesky                    ...    0.0 sec


           ************************************************************
           *        Program running with 18 parallel MPI-processes    *
           *              working on a common directory               *
           ************************************************************
------------------------------------------------------------------------------
                          ORCA RELATIVISTIC HAMILTONIAN
------------------------------------------------------------------------------

Relativistic Method            ... ZORA(MP)
Treatment of potential         ... Van Wuellen
Nucleus model                  ... Point Nucleus
Speed of light used            ... 137.03598900000000


            *************************************************
            *         ZERO ORDER REGULAR APPROXIMATION      *
            *                     ZORA(MP)                  *
            *            Programmed by FN according to      *
            *                   C. van Wuellen              *
            *       J. Chem. Phys. (1998) vol 109, 392-399  *
            *************************************************

Terms included in model potential: +V(e,N)
Basis function cutoff value   ... 1.000000e-12
Loading the fitted atomic densities  (DKH4)  ... done
Calculating the cutoffs                      ... done
Number of fit functions                      ... 15
Setting up the integration grid ... done


           ************************************************************
           *        Program running with 18 parallel MPI-processes    *
           *              working on a common directory               *
           ************************************************************
-------------------------------------------------------------------------------
                                 ORCA SCF
-------------------------------------------------------------------------------

------------
SCF SETTINGS
------------
Hamiltonian:
 Density Functional     Method          .... DFT(GTOs)
 Exchange Functional    Exchange        .... Slater
   X-Alpha parameter    XAlpha          ....  0.666667
 Correlation Functional Correlation     .... VWN-5
 Gradients option       PostSCFGGA      .... off
   Density functional embedding theory  .... OFF

Relativistic Settings:
 Scalar relativistic method             .... ZORA
 Speed of light used       Velit        ....       137.035989
Orbital energies will be scaled


General Settings:
 Integral files         IntName         .... Ar_ano-rcc-tzp_137.035989_
 Hartree-Fock type      HFTyp           .... RHF
 Total Charge           Charge          ....   16
 Multiplicity           Mult            ....    1
 Number of Electrons    NEL             ....    2
 Basis Dimension        Dim             ....   34
 Nuclear Repulsion      ENuc            ....      0.0000000000 Eh

Convergence Acceleration:
 DIIS                   CNVDIIS         .... on
   Start iteration      DIISMaxIt       ....    12
   Startup error        DIISStart       ....  0.200000
   # of expansion vecs  DIISMaxEq       ....     5
   Bias factor          DIISBfac        ....   1.050
   Max. coefficient     DIISMaxC        ....  10.000
 Newton-Raphson         CNVNR           .... off
 SOSCF                  CNVSOSCF        .... on
   Start iteration      SOSCFMaxIt      ....   150
   Startup grad/error   SOSCFStart      ....  0.003300
 Level Shifting         CNVShift        .... on
   Level shift para.    LevelShift      ....    0.2500
   Turn off err/grad.   ShiftErr        ....    0.0010
 Zerner damping         CNVZerner       .... off
 Static damping         CNVDamp         .... on
   Fraction old density DampFac         ....    0.7000
   Max. Damping (<1)    DampMax         ....    0.9800
   Min. Damping (>=0)   DampMin         ....    0.0000
   Turn off err/grad.   DampErr         ....    0.1000
 Fernandez-Rico         CNVRico         .... off

SCF Procedure:
 Maximum # iterations   MaxIter         ....   125
 SCF integral mode      SCFMode         .... Direct
   Integral package                     .... LIBINT
 Reset frequency        DirectResetFreq ....    20
 Integral Threshold     Thresh          ....  1.000e-12 Eh
 Primitive CutOff       TCut            ....  1.000e-14 Eh

Convergence Tolerance:
 Convergence Check Mode ConvCheckMode   .... Total+1el-Energy
 Convergence forced     ConvForced      .... 0
 Energy Change          TolE            ....  1.000e-09 Eh
 1-El. energy change                    ....  1.000e-06 Eh
 Orbital Gradient       TolG            ....  2.000e-06
 Orbital Rotation angle TolX            ....  2.000e-06
 DIIS Error             TolErr          ....  1.000e-08


Diagonalization of the overlap matrix:
Smallest eigenvalue                        ... 1.000e+00
Time for diagonalization                   ...    0.001 sec
Threshold for overlap eigenvalues          ... 1.000e-08
Number of eigenvalues below threshold      ... 0
Time for construction of square roots      ...    0.001 sec
Total time needed                          ...    0.002 sec

-------------------
DFT GRID GENERATION
-------------------

General Integration Accuracy     IntAcc      ...  5.010
Radial Grid Type                 RadialGrid  ... Gauss-Chebyshev
Angular Grid (max. acc.)         AngularGrid ... Lebedev-434
Angular grid pruning method      GridPruning ... 3 (G Style)
Weight generation scheme         WeightScheme... Becke
Basis function cutoff            BFCut       ...    1.0000e-12
Integration weight cutoff        WCut        ...    1.0000e-14
Grids for H and He will be reduced by one unit

# of grid points (after initial pruning)     ...  11992 (   0.0 sec)
# of grid points (after weights+screening)   ...  11992 (   0.0 sec)
Grid point division into batches done        ...    0.1 sec
Reduced shell lists constructed in    0.1 sec

Total number of grid points                  ...    11992
Total number of batches                      ...      188
Average number of points per batch           ...       63
Average number of grid points per atom       ...    11992
Average number of shells per batch           ...     6.67 (55.56%)
Average number of basis functions per batch  ...    16.33 (48.04%)
Average number of large shells per batch     ...     3.58 (53.75%)
Average number of large basis fcns per batch ...     9.08 (55.61%)
Maximum spatial batch extension              ...  18.71, 18.71, 18.71 au
Average spatial batch extension              ...   0.97,  0.98,  0.97 au

Time for grid setup =    0.155 sec

------------------------------
INITIAL GUESS: MODEL POTENTIAL
------------------------------
Loading ZORA relativistic densities                ... done
Calculating cut-offs                               ... done
Setting up the integral package                    ... done
Initializing the effective Hamiltonian             ... done
Starting the Coulomb interaction                   ... done (   0.0 sec)
Reading the grid                                   ... done
Mapping shells                                     ... done
Starting the XC term evaluation                    ... done (   0.0 sec)
  promolecular density results
     # of electrons  =     18.000000116
     EX              =    -28.047870263
     EC              =     -1.433252902
     EX+EC           =    -29.481123164
Transforming the Hamiltonian                       ... done (   0.0 sec)
Diagonalizing the Hamiltonian                      ... done (   0.0 sec)
Back transforming the eigenvectors                 ... done (   0.0 sec)
Now organizing SCF variables                       ... done
                      ------------------
                      INITIAL GUESS DONE (   0.2 sec)
                      ------------------
--------------
SCF ITERATIONS
--------------
ITER       Energy         Delta-E        Max-DP      RMS-DP      [F,P]     Damp
               ***  Starting incremental Fock matrix formation  ***
  0   -313.9896590160   0.000000000000 0.00493267  0.00016069  1.8526199 0.7000
                      *** Initiating the SOSCF procedure ***
                      *** Re-Reading the Fockian *** 
                      *** Removing any level shift *** 
ITER      Energy       Delta-E        Grad      Rot      Max-DP    RMS-DP
  1   -313.99559386  -0.0059348444  0.000285  0.000285  0.011509  0.000375
               *** Restarting incremental Fock matrix formation ***
  2   -314.00933344  -0.0137395841  0.005213  0.000046  0.000085  0.000003
  3   -314.00933402  -0.0000005708  0.000039  0.000000  0.000001  0.000000
                 **** Energy Check signals convergence ****
              ***Rediagonalizing the Fockian in SOSCF/NRSCF***

               *****************************************************
               *                     SUCCESS                       *
               *           SCF CONVERGED AFTER   4 CYCLES          *
               *****************************************************

Setting up the final grid:

General Integration Accuracy     IntAcc      ...  5.340
Radial Grid Type                 RadialGrid  ... Gauss-Chebyshev
Angular Grid (max. acc.)         AngularGrid ... Lebedev-590
Angular grid pruning method      GridPruning ... 3 (G Style)
Weight generation scheme         WeightScheme... Becke
Basis function cutoff            BFCut       ...    1.0000e-12
Integration weight cutoff        WCut        ...    1.0000e-14
Grids for H and He will be reduced by one unit

# of grid points (after initial pruning)     ...  18110 (   0.0 sec)
# of grid points (after weights+screening)   ...  18110 (   0.0 sec)
Grid point division into batches done        ...    0.2 sec
Reduced shell lists constructed in    0.2 sec

Total number of grid points                  ...    18110
Total number of batches                      ...      283
Average number of points per batch           ...       63
Average number of grid points per atom       ...    18110
Average number of shells per batch           ...     2.35 (19.61%)
Average number of basis functions per batch  ...     5.88 (17.30%)
Average number of large shells per batch     ...     1.18 (50.00%)
Average number of large basis fcns per batch ...     3.53 (60.00%)
Maximum spatial batch extension              ...  19.03, 19.03, 19.03 au
Average spatial batch extension              ...   0.84,  0.84,  0.80 au

Final grid set up in    0.2 sec
Final integration                            ... done (   0.0 sec)
Change in XC energy                          ...     0.000014132
Integrated number of electrons               ...     2.000000250
Previous integrated no of electrons          ...     2.000000964

----------------
TOTAL SCF ENERGY
----------------

Total Energy       :         -314.00931988 Eh           -8544.62799 eV

Components:
Nuclear Repulsion  :            0.00000000 Eh               0.00000 eV
Electronic Energy  :         -314.00931988 Eh           -8544.62799 eV
One Electron Energy:         -326.41556053 Eh           -8882.21897 eV
Two Electron Energy:           12.40624065 Eh             337.59097 eV

Virial components:
Potential Energy   :         -631.84896607 Eh          -17193.48447 eV
Kinetic Energy     :          317.83964619 Eh            8648.85647 eV
Virial Ratio       :            1.98794887


DFT components:
N(Alpha)           :        1.000000124812 electrons
N(Beta)            :        1.000000124812 electrons
N(Total)           :        2.000000249625 electrons
E(X)               :       -9.512897694110 Eh       
E(C)               :       -0.237286730261 Eh       
E(XC)              :       -9.750184424371 Eh       
DFET-embed. en.    :        0.000000000000 Eh       

---------------
SCF CONVERGENCE
---------------

  Last Energy change         ...   -3.1378e-11  Tolerance :   1.0000e-09
  Last MAX-Density change    ...    0.0000e+00  Tolerance :   1.0000e-08
  Last RMS-Density change    ...    0.0000e+00  Tolerance :   1.0000e-09
  Last Orbital Gradient      ...    9.7967e-11  Tolerance :   2.0000e-06
  Last Orbital Rotation      ...    0.0000e+00  Tolerance :   2.0000e-06

================================================================================
                                        WARNING
Number of found core electrons (2) does not match given number of chemical core electrons (10)
================================================================================
             **** THE GBW FILE WAS UPDATED (Ar_ano-rcc-tzp_137.035989_.gbw) ****
             **** DENSITY FILE WAS UPDATED (Ar_ano-rcc-tzp_137.035989_.scfp) ****
             **** ENERGY FILE WAS UPDATED (Ar_ano-rcc-tzp_137.035989_.en.tmp) ****
             **** THE GBW FILE WAS UPDATED (Ar_ano-rcc-tzp_137.035989_.gbw) ****
             **** DENSITY FILE WAS UPDATED (Ar_ano-rcc-tzp_137.035989_.scfp) ****
----------------
ORBITAL ENERGIES
----------------

  NO   OCC          E(Eh)            E(eV) 
   0   2.0000    -147.521493     -4014.2639 
   1   0.0000     -34.031885      -926.0547 
   2   0.0000     -32.840334      -893.6309 
   3   0.0000     -32.840334      -893.6309 
   4   0.0000     -32.840334      -893.6309 
   5   0.0000     -14.325325      -389.8119 
   6   0.0000     -13.482290      -366.8718 
   7   0.0000     -13.482290      -366.8718 
   8   0.0000     -13.482290      -366.8718 
   9   0.0000     -10.766774      -292.9788 
  10   0.0000     -10.766774      -292.9788 
  11   0.0000     -10.766774      -292.9788 
  12   0.0000     -10.766774      -292.9788 
  13   0.0000     -10.766774      -292.9788 
  14   0.0000      -7.862882      -213.9599 
  15   0.0000      -7.219439      -196.4509 
  16   0.0000      -7.219439      -196.4509 
  17   0.0000      -7.219439      -196.4509 
  18   0.0000      -7.120526      -193.7594 
  19   0.0000      -7.120526      -193.7594 
  20   0.0000      -7.120526      -193.7594 
  21   0.0000      -7.120526      -193.7594 
  22   0.0000      -7.120526      -193.7594 
  23   0.0000      -7.120526      -193.7594 
  24   0.0000      -7.120526      -193.7594 
  25   0.0000      -5.649008      -153.7173 
  26   0.0000      -5.649008      -153.7173 
  27   0.0000      -5.649008      -153.7173 
  28   0.0000      -5.649008      -153.7173 
  29   0.0000      -5.649008      -153.7173 
  30   0.0000      -4.879591      -132.7804 
  31   0.0000      -4.275427      -116.3403 
  32   0.0000      -4.275426      -116.3403 
  33   0.0000      -4.275426      -116.3403 

                    ********************************
                    * MULLIKEN POPULATION ANALYSIS *
                    ********************************

-----------------------
MULLIKEN ATOMIC CHARGES
-----------------------
   0 Ar:   16.000000
Sum of atomic charges:   16.0000000

--------------------------------
MULLIKEN REDUCED ORBITAL CHARGES
--------------------------------
  0 Ars       :     2.000000  s :     2.000000
      pz      :     0.000000  p :     0.000000
      px      :     0.000000
      py      :     0.000000
      dz2     :     0.000000  d :     0.000000
      dxz     :     0.000000
      dyz     :     0.000000
      dx2y2   :     0.000000
      dxy     :     0.000000
      f0      :     0.000000  f :     0.000000
      f+1     :     0.000000
      f-1     :     0.000000
      f+2     :     0.000000
      f-2     :     0.000000
      f+3     :     0.000000
      f-3     :     0.000000


                     *******************************
                     * LOEWDIN POPULATION ANALYSIS *
                     *******************************

----------------------
LOEWDIN ATOMIC CHARGES
----------------------
   0 Ar:   16.000000

-------------------------------
LOEWDIN REDUCED ORBITAL CHARGES
-------------------------------
  0 Ars       :     2.000000  s :     2.000000
      pz      :     0.000000  p :     0.000000
      px      :     0.000000
      py      :     0.000000
      dz2     :     0.000000  d :     0.000000
      dxz     :     0.000000
      dyz     :     0.000000
      dx2y2   :     0.000000
      dxy     :     0.000000
      f0      :     0.000000  f :     0.000000
      f+1     :     0.000000
      f-1     :     0.000000
      f+2     :     0.000000
      f-2     :     0.000000
      f+3     :     0.000000
      f-3     :     0.000000


                      *****************************
                      * MAYER POPULATION ANALYSIS *
                      *****************************

  NA   - Mulliken gross atomic population
  ZA   - Total nuclear charge
  QA   - Mulliken gross atomic charge
  VA   - Mayer's total valence
  BVA  - Mayer's bonded valence
  FA   - Mayer's free valence

  ATOM       NA         ZA         QA         VA         BVA        FA
  0 Ar     2.0000    18.0000    16.0000    -0.0000     0.0000    -0.0000

  Mayer bond orders larger than 0.100000


--------------------------
ATOM BASIS FOR ELEMENT Ar
--------------------------
 NewGTO Ar
 S 85
    1     455476.770000000019         0.000319847060
    2      64817.743000000002         0.001011579075
    3      19256.987000000001         0.002170132205
    4       6877.007300000000         0.005962708771
    5       2643.487700000000         0.015907476444
    6       1054.237500000000         0.044045108101
    7        429.371220000000         0.114455589559
    8        177.188590000000         0.254618369102
    9         73.763945000000         0.398461539750
   10         30.897007000000         0.278938675194
   11         12.999482000000         0.038333789160
   12          5.487679300000         0.003118483838
   13          2.322571600000        -0.001384613984
   14          0.984980700000         0.001002699435
   15          0.418397300000        -0.000643153980
   16          0.177959400000         0.000282008591
   17          0.071183800000        -0.000076276914
   18     455476.770000000019         0.000000758143
   19      64817.743000000002         0.000002401078
   20      19256.987000000001         0.000005165365
   21       6877.007300000000         0.000014239397
   22       2643.487700000000         0.000038360585
   23       1054.237500000000         0.000108150121
   24        429.371220000000         0.000294372453
   25        177.188590000000         0.000725347399
   26         73.763945000000         0.001447346890
   27         30.897007000000         0.001538966866
   28         12.999482000000        -0.001134017040
   29          5.487679300000        -0.005256964768
   30          2.322571600000        -0.003164237759
   31          0.984980700000        -0.000041208116
   32          0.418397300000        -0.000097170832
   33          0.177959400000         0.000036908408
   34          0.071183800000        -0.000010695596
   35     455476.770000000019         0.000000054330
   36      64817.743000000002         0.000000171917
   37      19256.987000000001         0.000000371196
   38       6877.007300000000         0.000001017238
   39       2643.487700000000         0.000002766683
   40       1054.237500000000         0.000007735737
   41        429.371220000000         0.000021382406
   42        177.188590000000         0.000052611060
   43         73.763945000000         0.000109288402
   44         30.897007000000         0.000118681198
   45         12.999482000000        -0.000091619031
   46          5.487679300000        -0.000620324411
   47          2.322571600000        -0.000656816377
   48          0.984980700000         0.000644528863
   49          0.418397300000         0.001279988994
   50          0.177959400000         0.000480988955
   51          0.071183800000         0.000008533098
   52     455476.770000000019         0.000000066969
   53      64817.743000000002         0.000000211853
   54      19256.987000000001         0.000000457759
   55       6877.007300000000         0.000001253836
   56       2643.487700000000         0.000003412893
   57       1054.237500000000         0.000009552451
   58        429.371220000000         0.000026450376
   59        177.188590000000         0.000065442762
   60         73.763945000000         0.000137635749
   61         30.897007000000         0.000152995896
   62         12.999482000000        -0.000167385892
   63          5.487679300000        -0.000806337105
   64          2.322571600000        -0.001291775364
   65          0.984980700000         0.003675113421
   66          0.418397300000         0.000005170959
   67          0.177959400000        -0.002295464104
   68          0.071183800000        -0.000088933395
   69     455476.770000000019         0.000000101863
   70      64817.743000000002         0.000000307921
   71      19256.987000000001         0.000000763338
   72       6877.007300000000         0.000001589327
   73       2643.487700000000         0.000006201835
   74       1054.237500000000         0.000011256986
   75        429.371220000000         0.000049419176
   76        177.188590000000         0.000074881171
   77         73.763945000000         0.000284248928
   78         30.897007000000         0.000061366985
   79         12.999482000000         0.000076620237
   80          5.487679300000        -0.002727270162
   81          2.322571600000         0.001437929525
   82          0.984980700000         0.005824222945
   83          0.418397300000        -0.009240606120
   84          0.177959400000         0.004334943694
   85          0.071183800000         0.000512722528
 S 84
    1     455476.770000000019        -0.000002789264
    2      64817.743000000002        -0.000008821594
    3      19256.987000000001        -0.000018924892
    4       6877.007300000000        -0.000051998499
    5       2643.487700000000        -0.000138723008
    6       1054.237500000000        -0.000384100514
    7        429.371220000000        -0.000998123348
    8        177.188590000000        -0.002220429251
    9         73.763945000000        -0.003474830435
   10         30.897007000000        -0.002432517323
   11         12.999482000000        -0.000334294289
   12          5.487679300000        -0.000027195103
   13          2.322571600000         0.000012074688
   14          0.984980700000        -0.000008744158
   15          0.418397300000         0.000005608699
   16          0.177959400000        -0.000002459289
   17     455476.770000000019         0.000090420660
   18      64817.743000000002         0.000286366667
   19      19256.987000000001         0.000616051875
   20       6877.007300000000         0.001698274464
   21       2643.487700000000         0.004575109578
   22       1054.237500000000         0.012898621319
   23        429.371220000000         0.035108594909
   24        177.188590000000         0.086509208728
   25         73.763945000000         0.172619126220
   26         30.897007000000         0.183546264971
   27         12.999482000000        -0.135249560374
   28          5.487679300000        -0.626976622761
   29          2.322571600000        -0.377385657159
   30          0.984980700000        -0.004914722980
   31          0.418397300000        -0.011589166562
   32          0.177959400000         0.004401914449
   33          0.071183800000        -0.001275619865
   34     455476.770000000019         0.000002854495
   35      64817.743000000002         0.000009032487
   36      19256.987000000001         0.000019502588
   37       6877.007300000000         0.000053445503
   38       2643.487700000000         0.000145361026
   39       1054.237500000000         0.000406434247
   40        429.371220000000         0.001123427853
   41        177.188590000000         0.002764175870
   42         73.763945000000         0.005741993546
   43         30.897007000000         0.006235489391
   44         12.999482000000        -0.004813647851
   45          5.487679300000        -0.032591736079
   46          2.322571600000        -0.034509017600
   47          0.984980700000         0.033863433758
   48          0.418397300000         0.067250397928
   49          0.177959400000         0.025271075582
   50          0.071183800000         0.000448327488
   51     455476.770000000019         0.000003027241
   52      64817.743000000002         0.000009576509
   53      19256.987000000001         0.000020692353
   54       6877.007300000000         0.000056677858
   55       2643.487700000000         0.000154274895
   56       1054.237500000000         0.000431804779
   57        429.371220000000         0.001195651056
   58        177.188590000000         0.002958245616
   59         73.763945000000         0.006221625401
   60         30.897007000000         0.006915958639
   61         12.999482000000        -0.007566437674
   62          5.487679300000        -0.036449305043
   63          2.322571600000        -0.058392840885
   64          0.984980700000         0.166128197858
   65          0.418397300000         0.000233745730
   66          0.177959400000        -0.103763141746
   67          0.071183800000        -0.004020105751
   68     455476.770000000019         0.000003669518
   69      64817.743000000002         0.000011092588
   70      19256.987000000001         0.000027498574
   71       6877.007300000000         0.000057254082
   72       2643.487700000000         0.000223415610
   73       1054.237500000000         0.000405522934
   74        429.371220000000         0.001780281967
   75        177.188590000000         0.002697527761
   76         73.763945000000         0.010239815429
   77         30.897007000000         0.002210691194
   78         12.999482000000         0.002760176074
   79          5.487679300000        -0.098247487877
   80          2.322571600000         0.051800135357
   81          0.984980700000         0.209812464182
   82          0.418397300000        -0.332884636934
   83          0.177959400000         0.156162500492
   84          0.071183800000         0.018470374182
 S 84
    1     455476.770000000019         0.000000627056
    2      64817.743000000002         0.000001983187
    3      19256.987000000001         0.000004254514
    4       6877.007300000000         0.000011689807
    5       2643.487700000000         0.000031186386
    6       1054.237500000000         0.000086349821
    7        429.371220000000         0.000224388589
    8        177.188590000000         0.000499175765
    9         73.763945000000         0.000781178297
   10         30.897007000000         0.000546855386
   11         12.999482000000         0.000075152860
   12          5.487679300000         0.000006113744
   13          2.322571600000        -0.000002714516
   14          0.984980700000         0.000001965778
   15          0.418397300000        -0.000001260894
   16          0.177959400000         0.000000552874
   17     455476.770000000019         0.000013807064
   18      64817.743000000002         0.000043727647
   19      19256.987000000001         0.000094069954
   20       6877.007300000000         0.000259323292
   21       2643.487700000000         0.000698610562
   22       1054.237500000000         0.001969595031
   23        429.371220000000         0.005361015909
   24        177.188590000000         0.013209792230
   25         73.763945000000         0.026358613445
   26         30.897007000000         0.028027166825
   27         12.999482000000        -0.020652351559
   28          5.487679300000        -0.095738142119
   29          2.322571600000        -0.057626074669
   30          0.984980700000        -0.000750468885
   31          0.418397300000        -0.001769643772
   32          0.177959400000         0.000672163994
   33          0.071183800000        -0.000194784736
   34     455476.770000000019        -0.000022143663
   35      64817.743000000002        -0.000070069261
   36      19256.987000000001        -0.000151290778
   37       6877.007300000000        -0.000414601991
   38       2643.487700000000        -0.001127634081
   39       1054.237500000000        -0.003152902269
   40        429.371220000000        -0.008714960055
   41        177.188590000000        -0.021443016768
   42         73.763945000000        -0.044543353849
   43         30.897007000000        -0.048371634023
   44         12.999482000000         0.037341738169
   45          5.487679300000         0.252829478324
   46          2.322571600000         0.267702735941
   47          0.984980700000        -0.262694637397
   48          0.418397300000        -0.521693075331
   49          0.177959400000        -0.196039659889
   50          0.071183800000        -0.003477887913
   51     455476.770000000019        -0.000018198564
   52      64817.743000000002        -0.000057570149
   53      19256.987000000001        -0.000124394167
   54       6877.007300000000        -0.000340724665
   55       2643.487700000000        -0.000927439116
   56       1054.237500000000        -0.002595838039
   57        429.371220000000        -0.007187777084
   58        177.188590000000        -0.017783792304
   59         73.763945000000        -0.037401929486
   60         30.897007000000        -0.041575983874
   61         12.999482000000         0.045486404292
   62          5.487679300000         0.219118678656
   63          2.322571600000         0.351034460667
   64          0.984980700000        -0.998696440408
   65          0.418397300000        -0.001405186067
   66          0.177959400000         0.623782606708
   67          0.071183800000         0.024167271755
   68     455476.770000000019        -0.000014956486
   69      64817.743000000002        -0.000045211974
   70      19256.987000000001        -0.000112080679
   71       6877.007300000000        -0.000233360332
   72       2643.487700000000        -0.000910613522
   73       1054.237500000000        -0.001652859740
   74        429.371220000000        -0.007256202161
   75        177.188590000000        -0.010994778993
   76         73.763945000000        -0.041736181254
   77         30.897007000000        -0.009010495258
   78         12.999482000000        -0.011250125523
   79          5.487679300000         0.400444225797
   80          2.322571600000        -0.211130742856
   81          0.984980700000        -0.855168835327
   82          0.418397300000         1.356795309445
   83          0.177959400000        -0.636498428195
   84          0.071183800000        -0.075282888646
 S 83
    1     455476.770000000019         0.000000281605
    2      64817.743000000002         0.000000890631
    3      19256.987000000001         0.000001910662
    4       6877.007300000000         0.000005249783
    5       2643.487700000000         0.000014005515
    6       1054.237500000000         0.000038778898
    7        429.371220000000         0.000100770820
    8        177.188590000000         0.000224175176
    9         73.763945000000         0.000350819881
   10         30.897007000000         0.000245587649
   11         12.999482000000         0.000033750448
   12          5.487679300000         0.000002745625
   13          2.322571600000        -0.000001219064
   14          0.984980700000         0.000000882813
   15          0.418397300000        -0.000000566256
   16     455476.770000000019         0.000002933539
   17      64817.743000000002         0.000009290661
   18      19256.987000000001         0.000019986715
   19       6877.007300000000         0.000055097515
   20       2643.487700000000         0.000148431348
   21       1054.237500000000         0.000418472983
   22        429.371220000000         0.001139036343
   23        177.188590000000         0.002806638459
   24         73.763945000000         0.005600322619
   25         30.897007000000         0.005954834333
   26         12.999482000000        -0.004387933068
   27          5.487679300000        -0.020341148973
   28          2.322571600000        -0.012243610996
   29          0.984980700000        -0.000159449505
   30          0.418397300000        -0.000375990037
   31          0.177959400000         0.000142812338
   32          0.071183800000        -0.000041385233
   33     455476.770000000019         0.000017998320
   34      64817.743000000002         0.000056952137
   35      19256.987000000001         0.000122968803
   36       6877.007300000000         0.000336987562
   37       2643.487700000000         0.000916538433
   38       1054.237500000000         0.002562671841
   39        429.371220000000         0.007083499843
   40        177.188590000000         0.017428835581
   41         73.763945000000         0.036204737370
   42         30.897007000000         0.039316354846
   43         12.999482000000        -0.030351280416
   44          5.487679300000        -0.205499228753
   45          2.322571600000        -0.217588178940
   46          0.984980700000         0.213517607758
   47          0.418397300000         0.424030952943
   48          0.177959400000         0.159340592636
   49          0.071183800000         0.002826819438
   50     455476.770000000019        -0.000018389379
   51      64817.743000000002        -0.000058173784
   52      19256.987000000001        -0.000125698465
   53       6877.007300000000        -0.000344297230
   54       2643.487700000000        -0.000937163497
   55       1054.237500000000        -0.002623055909
   56        429.371220000000        -0.007263142334
   57        177.188590000000        -0.017970258849
   58         73.763945000000        -0.037794096043
   59         30.897007000000        -0.042011916209
   60         12.999482000000         0.045963338150
   61          5.487679300000         0.221416180922
   62          2.322571600000         0.354715125747
   63          0.984980700000        -1.009167968207
   64          0.418397300000        -0.001419919718
   65          0.177959400000         0.630323089524
   66          0.071183800000         0.024420670333
   67     455476.770000000019        -0.000025987150
   68      64817.743000000002        -0.000078556574
   69      19256.987000000001        -0.000194742087
   70       6877.007300000000        -0.000405467547
   71       2643.487700000000        -0.001582206487
   72       1054.237500000000        -0.002871871919
   73        429.371220000000        -0.012607774706
   74        177.188590000000        -0.019103615558
   75         73.763945000000        -0.072517324998
   76         30.897007000000        -0.015655888809
   77         12.999482000000        -0.019547284498
   78          5.487679300000         0.695778655185
   79          2.322571600000        -0.366843257736
   80          0.984980700000        -1.485870400593
   81          0.418397300000         2.357454933678
   82          0.177959400000        -1.105926847904
   83          0.071183800000        -0.130805299829
 S 83
    1     455476.770000000019         0.000000163764
    2      64817.743000000002         0.000000517936
    3      19256.987000000001         0.000001111124
    4       6877.007300000000         0.000003052953
    5       2643.487700000000         0.000008144750
    6       1054.237500000000         0.000022551434
    7        429.371220000000         0.000058602142
    8        177.188590000000         0.000130366564
    9         73.763945000000         0.000204015374
   10         30.897007000000         0.000142818748
   11         12.999482000000         0.000019627195
   12          5.487679300000         0.000001596688
   13          2.322571600000        -0.000000708933
   14          0.984980700000         0.000000513390
   15          0.418397300000        -0.000000329300
   16     455476.770000000019         0.000001424608
   17      64817.743000000002         0.000004511802
   18      19256.987000000001         0.000009706102
   19       6877.007300000000         0.000026756879
   20       2643.487700000000         0.000072082373
   21       1054.237500000000         0.000203222068
   22        429.371220000000         0.000553147587
   23        177.188590000000         0.001362981349
   24         73.763945000000         0.002719671731
   25         30.897007000000         0.002891832436
   26         12.999482000000        -0.002130901796
   27          5.487679300000        -0.009878225168
   28          2.322571600000        -0.005945836513
   29          0.984980700000        -0.000077433095
   30          0.418397300000        -0.000182591173
   31          0.177959400000         0.000069353626
   32          0.071183800000        -0.000020097815
   33     455476.770000000019        -0.000003654540
   34      64817.743000000002        -0.000011564073
   35      19256.987000000001        -0.000024968689
   36       6877.007300000000        -0.000068424978
   37       2643.487700000000        -0.000186102187
   38       1054.237500000000        -0.000520347883
   39        429.371220000000        -0.001438297363
   40        177.188590000000        -0.003538907152
   41         73.763945000000        -0.007351334712
   42         30.897007000000        -0.007983145442
   43         12.999482000000         0.006162796293
   44          5.487679300000         0.041726407187
   45          2.322571600000         0.044181056097
   46          0.984980700000        -0.043354530803
   47          0.418397300000        -0.086099049177
   48          0.177959400000        -0.032353943565
   49          0.071183800000        -0.000573982781
   50     455476.770000000019         0.000022068392
   51      64817.743000000002         0.000069812136
   52      19256.987000000001         0.000150845927
   53       6877.007300000000         0.000413177958
   54       2643.487700000000         0.001124654125
   55       1054.237500000000         0.003147829231
   56        429.371220000000         0.008716219762
   57        177.188590000000         0.021565421425
   58         73.763945000000         0.045355251439
   59         30.897007000000         0.050416896357
   60         12.999482000000        -0.055158846938
   61          5.487679300000        -0.265713103630
   62          2.322571600000        -0.425680077103
   63          0.984980700000         1.211063942120
   64          0.418397300000         0.001703991432
   65          0.177959400000        -0.756426669948
   66          0.071183800000        -0.029306313929
   67     455476.770000000019        -0.000034492294
   68      64817.743000000002        -0.000104266782
   69      19256.987000000001        -0.000258477804
   70       6877.007300000000        -0.000538170061
   71       2643.487700000000        -0.002100035298
   72       1054.237500000000        -0.003811785915
   73        429.371220000000        -0.016734081255
   74        177.188590000000        -0.025355898441
   75         73.763945000000        -0.096250990932
   76         30.897007000000        -0.020779790372
   77         12.999482000000        -0.025944772550
   78          5.487679300000         0.923494972179
   79          2.322571600000        -0.486904709669
   80          0.984980700000        -1.972170077410
   81          0.418397300000         3.129009149913
   82          0.177959400000        -1.467877572883
   83          0.071183800000        -0.173615611555
 P 48
    1       1462.496200000000         0.000946845260
    2        354.067310000000         0.006110060520
    3        126.697790000000         0.025357149864
    4         49.989095000000         0.091535627350
    5         20.509295000000         0.240125713143
    6          8.580464100000         0.409817082203
    7          3.630104900000         0.338769812369
    8          1.546528000000         0.071784759505
    9          0.661936900000         0.003459250166
   10          0.284242800000         0.000285838407
   11          0.122346300000         0.000468643069
   12          0.048938500000        -0.000084132083
   13       1462.496200000000         0.000028500473
   14        354.067310000000         0.000184674010
   15        126.697790000000         0.000772872411
   16         49.989095000000         0.002849877765
   17         20.509295000000         0.007723033739
   18          8.580464100000         0.013850282929
   19          3.630104900000         0.011448620142
   20          1.546528000000        -0.016811098700
   21          0.661936900000        -0.046404080694
   22          0.284242800000        -0.042566877949
   23          0.122346300000        -0.015226123072
   24          0.048938500000        -0.000702124810
   25       1462.496200000000         0.000033422895
   26        354.067310000000         0.000203295532
   27        126.697790000000         0.000925299841
   28         49.989095000000         0.003148620125
   29         20.509295000000         0.009555829974
   30          8.580464100000         0.014288604615
   31          3.630104900000         0.017436274785
   32          1.546528000000        -0.044720048878
   33          0.661936900000        -0.073083731364
   34          0.284242800000         0.050705759438
   35          0.122346300000         0.060069044430
   36          0.048938500000         0.006182639493
   37       1462.496200000000         0.000050729234
   38        354.067310000000         0.000297074105
   39        126.697790000000         0.001437144767
   40         49.989095000000         0.004671876256
   41         20.509295000000         0.015747958414
   42          8.580464100000         0.018582111510
   43          3.630104900000         0.025309684078
   44          1.546528000000        -0.149449210925
   45          0.661936900000         0.072723111730
   46          0.284242800000         0.111359284704
   47          0.122346300000        -0.110265783949
   48          0.048938500000        -0.011781051110
 P 48
    1       1462.496200000000        -0.000165913760
    2        354.067310000000        -0.001070653417
    3        126.697790000000        -0.004443281546
    4         49.989095000000        -0.016039600903
    5         20.509295000000        -0.042076737952
    6          8.580464100000        -0.071811409742
    7          3.630104900000        -0.059361941853
    8          1.546528000000        -0.012578696696
    9          0.661936900000        -0.000606157337
   10          0.284242800000        -0.000050086880
   11          0.122346300000        -0.000082119367
   12          0.048938500000         0.000014742293
   13       1462.496200000000         0.000190746181
   14        354.067310000000         0.001235974631
   15        126.697790000000         0.005172631998
   16         49.989095000000         0.019073483155
   17         20.509295000000         0.051688235794
   18          8.580464100000         0.092696304857
   19          3.630104900000         0.076622606797
   20          1.546528000000        -0.112512266935
   21          0.661936900000        -0.310570320666
   22          0.284242800000        -0.284888930812
   23          0.122346300000        -0.101904441464
   24          0.048938500000        -0.004699136887
   25       1462.496200000000         0.000189131330
   26        354.067310000000         0.001150395687
   27        126.697790000000         0.005236027262
   28         49.989095000000         0.017817209174
   29         20.509295000000         0.054073916415
   30          8.580464100000         0.080855437335
   31          3.630104900000         0.098667270960
   32          1.546528000000        -0.253058938015
   33          0.661936900000        -0.413561521264
   34          0.284242800000         0.286930492172
   35          0.122346300000         0.339914847419
   36          0.048938500000         0.034985922948
   37       1462.496200000000         0.000208925577
   38        354.067310000000         0.001223483457
   39        126.697790000000         0.005918802136
   40         49.989095000000         0.019240866881
   41         20.509295000000         0.064857105566
   42          8.580464100000         0.076529410108
   43          3.630104900000         0.104236549839
   44          1.546528000000        -0.615498402711
   45          0.661936900000         0.299506158867
   46          0.284242800000         0.458627124478
   47          0.122346300000        -0.454123601418
   48          0.048938500000        -0.048519614761
 P 47
    1       1462.496200000000        -0.000028775530
    2        354.067310000000        -0.000185690566
    3        126.697790000000        -0.000770627967
    4         49.989095000000        -0.002781855011
    5         20.509295000000        -0.007297649425
    6          8.580464100000        -0.012454731961
    7          3.630104900000        -0.010295537675
    8          1.546528000000        -0.002181607301
    9          0.661936900000        -0.000105129912
   10          0.284242800000        -0.000008686902
   11          0.122346300000        -0.000014242510
   12       1462.496200000000        -0.000188172427
   13        354.067310000000        -0.001219297520
   14        126.697790000000        -0.005102837235
   15         49.989095000000        -0.018816123029
   16         20.509295000000        -0.050990802044
   17          8.580464100000        -0.091445545752
   18          3.630104900000        -0.075588731463
   19          1.546528000000         0.110994129373
   20          0.661936900000         0.306379768984
   21          0.284242800000         0.281044900302
   22          0.122346300000         0.100529436191
   23          0.048938500000         0.004635731034
   24       1462.496200000000         0.000120705756
   25        354.067310000000         0.000734195548
   26        126.697790000000         0.003341691863
   27         49.989095000000         0.011371144560
   28         20.509295000000         0.034510585496
   29          8.580464100000         0.051602855275
   30          3.630104900000         0.062970569099
   31          1.546528000000        -0.161505078508
   32          0.661936900000        -0.263939643797
   33          0.284242800000         0.183122287748
   34          0.122346300000         0.216937502974
   35          0.048938500000         0.022328412016
   36       1462.496200000000         0.000318920725
   37        354.067310000000         0.001867623087
   38        126.697790000000         0.009034933373
   39         49.989095000000         0.029370799415
   40         20.509295000000         0.099003077666
   41          8.580464100000         0.116820617672
   42          3.630104900000         0.159115013679
   43          1.546528000000        -0.939546031772
   44          0.661936900000         0.457190175987
   45          0.284242800000         0.700085155329
   46          0.122346300000        -0.693210617228
   47          0.048938500000        -0.074064223906
 P 47
    1       1462.496200000000        -0.000012986308
    2        354.067310000000        -0.000083801582
    3        126.697790000000        -0.000347782033
    4         49.989095000000        -0.001255442615
    5         20.509295000000        -0.003293406753
    6          8.580464100000        -0.005620782249
    7          3.630104900000        -0.004646344504
    8          1.546528000000        -0.000984552669
    9          0.661936900000        -0.000047444806
   10          0.284242800000        -0.000003920372
   11          0.122346300000        -0.000006427601
   12       1462.496200000000         0.000057975343
   13        354.067310000000         0.000375661796
   14        126.697790000000         0.001572168375
   15         49.989095000000         0.005797189329
   16         20.509295000000         0.015710108454
   17          8.580464100000         0.028174089910
   18          3.630104900000         0.023288654455
   19          1.546528000000        -0.034196948082
   20          0.661936900000        -0.094394659542
   21          0.284242800000        -0.086589064833
   22          0.122346300000        -0.030972808468
   23          0.048938500000        -0.001428254399
   24       1462.496200000000        -0.000246917924
   25        354.067310000000        -0.001501883977
   26        126.697790000000        -0.006835826613
   27         49.989095000000        -0.023261023393
   28         20.509295000000        -0.070595491271
   29          8.580464100000        -0.105559754110
   30          3.630104900000        -0.128813759526
   31          1.546528000000         0.330377772390
   32          0.661936900000         0.539919811617
   33          0.284242800000        -0.374598334989
   34          0.122346300000        -0.443771363989
   35          0.048938500000        -0.045675412136
   36       1462.496200000000         0.000322801418
   37        354.067310000000         0.001890348707
   38        126.697790000000         0.009144872295
   39         49.989095000000         0.029728189326
   40         20.509295000000         0.100207767421
   41          8.580464100000         0.118242114909
   42          3.630104900000         0.161051157801
   43          1.546528000000        -0.950978620594
   44          0.661936900000         0.462753359821
   45          0.284242800000         0.708603935091
   46          0.122346300000        -0.701645746200
   47          0.048938500000        -0.074965452573
 D 10
    1          4.328841700000         0.023693642929
    2          1.774230200000         0.164624076198
    3          0.727190600000         0.511726920906
    4          0.298048200000         0.259233194284
    5          0.119219300000         0.024470602911
    6          4.328841700000        -0.069730185861
    7          1.774230200000         0.387087972154
    8          0.727190600000         0.171236132997
    9          0.298048200000        -0.503964166531
   10          0.119219300000        -0.036206852902
 D 10
    1          4.328841700000        -0.014705376330
    2          1.774230200000        -0.102173355134
    3          0.727190600000        -0.317601517523
    4          0.298048200000        -0.160892172238
    5          0.119219300000        -0.015187593816
    6          4.328841700000        -0.112350891457
    7          1.774230200000         0.623685111499
    8          0.727190600000         0.275899625882
    9          0.298048200000        -0.811998744485
   10          0.119219300000        -0.058337320489
 F 4
    1          1.631174000000         0.245409970118
    2          0.820328800000         0.580760500278
    3          0.412549100000         0.264213740127
    4          0.165019600000         0.038934170019
 end
  // -----------------------------------------------
  // The basis set
  // -----------------------------------------------
  BAS[ATNO] = new BFNGauss[NSH];
  // Basis function   1 L = s
  InitBFNGauss(BAS[ATNO][  0]);
  BAS[ATNO][  0].l  = 0;
  BAS[ATNO][  0].ng = 85;
  BAS[ATNO][  0].a[  0] =    455476.770000000019;     BAS[ATNO][  0].d[  0] =         0.000319847060;
  BAS[ATNO][  0].a[  1] =     64817.743000000002;     BAS[ATNO][  0].d[  1] =         0.001011579075;
  BAS[ATNO][  0].a[  2] =     19256.987000000001;     BAS[ATNO][  0].d[  2] =         0.002170132205;
  BAS[ATNO][  0].a[  3] =      6877.007300000000;     BAS[ATNO][  0].d[  3] =         0.005962708771;
  BAS[ATNO][  0].a[  4] =      2643.487700000000;     BAS[ATNO][  0].d[  4] =         0.015907476444;
  BAS[ATNO][  0].a[  5] =      1054.237500000000;     BAS[ATNO][  0].d[  5] =         0.044045108101;
  BAS[ATNO][  0].a[  6] =       429.371220000000;     BAS[ATNO][  0].d[  6] =         0.114455589559;
  BAS[ATNO][  0].a[  7] =       177.188590000000;     BAS[ATNO][  0].d[  7] =         0.254618369102;
  BAS[ATNO][  0].a[  8] =        73.763945000000;     BAS[ATNO][  0].d[  8] =         0.398461539750;
  BAS[ATNO][  0].a[  9] =        30.897007000000;     BAS[ATNO][  0].d[  9] =         0.278938675194;
  BAS[ATNO][  0].a[ 10] =        12.999482000000;     BAS[ATNO][  0].d[ 10] =         0.038333789160;
  BAS[ATNO][  0].a[ 11] =         5.487679300000;     BAS[ATNO][  0].d[ 11] =         0.003118483838;
  BAS[ATNO][  0].a[ 12] =         2.322571600000;     BAS[ATNO][  0].d[ 12] =        -0.001384613984;
  BAS[ATNO][  0].a[ 13] =         0.984980700000;     BAS[ATNO][  0].d[ 13] =         0.001002699435;
  BAS[ATNO][  0].a[ 14] =         0.418397300000;     BAS[ATNO][  0].d[ 14] =        -0.000643153980;
  BAS[ATNO][  0].a[ 15] =         0.177959400000;     BAS[ATNO][  0].d[ 15] =         0.000282008591;
  BAS[ATNO][  0].a[ 16] =         0.071183800000;     BAS[ATNO][  0].d[ 16] =        -0.000076276914;
  BAS[ATNO][  0].a[ 17] =    455476.770000000019;     BAS[ATNO][  0].d[ 17] =         0.000000758143;
  BAS[ATNO][  0].a[ 18] =     64817.743000000002;     BAS[ATNO][  0].d[ 18] =         0.000002401078;
  BAS[ATNO][  0].a[ 19] =     19256.987000000001;     BAS[ATNO][  0].d[ 19] =         0.000005165365;
  BAS[ATNO][  0].a[ 20] =      6877.007300000000;     BAS[ATNO][  0].d[ 20] =         0.000014239397;
  BAS[ATNO][  0].a[ 21] =      2643.487700000000;     BAS[ATNO][  0].d[ 21] =         0.000038360585;
  BAS[ATNO][  0].a[ 22] =      1054.237500000000;     BAS[ATNO][  0].d[ 22] =         0.000108150121;
  BAS[ATNO][  0].a[ 23] =       429.371220000000;     BAS[ATNO][  0].d[ 23] =         0.000294372453;
  BAS[ATNO][  0].a[ 24] =       177.188590000000;     BAS[ATNO][  0].d[ 24] =         0.000725347399;
  BAS[ATNO][  0].a[ 25] =        73.763945000000;     BAS[ATNO][  0].d[ 25] =         0.001447346890;
  BAS[ATNO][  0].a[ 26] =        30.897007000000;     BAS[ATNO][  0].d[ 26] =         0.001538966866;
  BAS[ATNO][  0].a[ 27] =        12.999482000000;     BAS[ATNO][  0].d[ 27] =        -0.001134017040;
  BAS[ATNO][  0].a[ 28] =         5.487679300000;     BAS[ATNO][  0].d[ 28] =        -0.005256964768;
  BAS[ATNO][  0].a[ 29] =         2.322571600000;     BAS[ATNO][  0].d[ 29] =        -0.003164237759;
  BAS[ATNO][  0].a[ 30] =         0.984980700000;     BAS[ATNO][  0].d[ 30] =        -0.000041208116;
  BAS[ATNO][  0].a[ 31] =         0.418397300000;     BAS[ATNO][  0].d[ 31] =        -0.000097170832;
  BAS[ATNO][  0].a[ 32] =         0.177959400000;     BAS[ATNO][  0].d[ 32] =         0.000036908408;
  BAS[ATNO][  0].a[ 33] =         0.071183800000;     BAS[ATNO][  0].d[ 33] =        -0.000010695596;
  BAS[ATNO][  0].a[ 34] =    455476.770000000019;     BAS[ATNO][  0].d[ 34] =         0.000000054330;
  BAS[ATNO][  0].a[ 35] =     64817.743000000002;     BAS[ATNO][  0].d[ 35] =         0.000000171917;
  BAS[ATNO][  0].a[ 36] =     19256.987000000001;     BAS[ATNO][  0].d[ 36] =         0.000000371196;
  BAS[ATNO][  0].a[ 37] =      6877.007300000000;     BAS[ATNO][  0].d[ 37] =         0.000001017238;
  BAS[ATNO][  0].a[ 38] =      2643.487700000000;     BAS[ATNO][  0].d[ 38] =         0.000002766683;
  BAS[ATNO][  0].a[ 39] =      1054.237500000000;     BAS[ATNO][  0].d[ 39] =         0.000007735737;
  BAS[ATNO][  0].a[ 40] =       429.371220000000;     BAS[ATNO][  0].d[ 40] =         0.000021382406;
  BAS[ATNO][  0].a[ 41] =       177.188590000000;     BAS[ATNO][  0].d[ 41] =         0.000052611060;
  BAS[ATNO][  0].a[ 42] =        73.763945000000;     BAS[ATNO][  0].d[ 42] =         0.000109288402;
  BAS[ATNO][  0].a[ 43] =        30.897007000000;     BAS[ATNO][  0].d[ 43] =         0.000118681198;
  BAS[ATNO][  0].a[ 44] =        12.999482000000;     BAS[ATNO][  0].d[ 44] =        -0.000091619031;
  BAS[ATNO][  0].a[ 45] =         5.487679300000;     BAS[ATNO][  0].d[ 45] =        -0.000620324411;
  BAS[ATNO][  0].a[ 46] =         2.322571600000;     BAS[ATNO][  0].d[ 46] =        -0.000656816377;
  BAS[ATNO][  0].a[ 47] =         0.984980700000;     BAS[ATNO][  0].d[ 47] =         0.000644528863;
  BAS[ATNO][  0].a[ 48] =         0.418397300000;     BAS[ATNO][  0].d[ 48] =         0.001279988994;
  BAS[ATNO][  0].a[ 49] =         0.177959400000;     BAS[ATNO][  0].d[ 49] =         0.000480988955;
  BAS[ATNO][  0].a[ 50] =         0.071183800000;     BAS[ATNO][  0].d[ 50] =         0.000008533098;
  BAS[ATNO][  0].a[ 51] =    455476.770000000019;     BAS[ATNO][  0].d[ 51] =         0.000000066969;
  BAS[ATNO][  0].a[ 52] =     64817.743000000002;     BAS[ATNO][  0].d[ 52] =         0.000000211853;
  BAS[ATNO][  0].a[ 53] =     19256.987000000001;     BAS[ATNO][  0].d[ 53] =         0.000000457759;
  BAS[ATNO][  0].a[ 54] =      6877.007300000000;     BAS[ATNO][  0].d[ 54] =         0.000001253836;
  BAS[ATNO][  0].a[ 55] =      2643.487700000000;     BAS[ATNO][  0].d[ 55] =         0.000003412893;
  BAS[ATNO][  0].a[ 56] =      1054.237500000000;     BAS[ATNO][  0].d[ 56] =         0.000009552451;
  BAS[ATNO][  0].a[ 57] =       429.371220000000;     BAS[ATNO][  0].d[ 57] =         0.000026450376;
  BAS[ATNO][  0].a[ 58] =       177.188590000000;     BAS[ATNO][  0].d[ 58] =         0.000065442762;
  BAS[ATNO][  0].a[ 59] =        73.763945000000;     BAS[ATNO][  0].d[ 59] =         0.000137635749;
  BAS[ATNO][  0].a[ 60] =        30.897007000000;     BAS[ATNO][  0].d[ 60] =         0.000152995896;
  BAS[ATNO][  0].a[ 61] =        12.999482000000;     BAS[ATNO][  0].d[ 61] =        -0.000167385892;
  BAS[ATNO][  0].a[ 62] =         5.487679300000;     BAS[ATNO][  0].d[ 62] =        -0.000806337105;
  BAS[ATNO][  0].a[ 63] =         2.322571600000;     BAS[ATNO][  0].d[ 63] =        -0.001291775364;
  BAS[ATNO][  0].a[ 64] =         0.984980700000;     BAS[ATNO][  0].d[ 64] =         0.003675113421;
  BAS[ATNO][  0].a[ 65] =         0.418397300000;     BAS[ATNO][  0].d[ 65] =         0.000005170959;
  BAS[ATNO][  0].a[ 66] =         0.177959400000;     BAS[ATNO][  0].d[ 66] =        -0.002295464104;
  BAS[ATNO][  0].a[ 67] =         0.071183800000;     BAS[ATNO][  0].d[ 67] =        -0.000088933395;
  BAS[ATNO][  0].a[ 68] =    455476.770000000019;     BAS[ATNO][  0].d[ 68] =         0.000000101863;
  BAS[ATNO][  0].a[ 69] =     64817.743000000002;     BAS[ATNO][  0].d[ 69] =         0.000000307921;
  BAS[ATNO][  0].a[ 70] =     19256.987000000001;     BAS[ATNO][  0].d[ 70] =         0.000000763338;
  BAS[ATNO][  0].a[ 71] =      6877.007300000000;     BAS[ATNO][  0].d[ 71] =         0.000001589327;
  BAS[ATNO][  0].a[ 72] =      2643.487700000000;     BAS[ATNO][  0].d[ 72] =         0.000006201835;
  BAS[ATNO][  0].a[ 73] =      1054.237500000000;     BAS[ATNO][  0].d[ 73] =         0.000011256986;
  BAS[ATNO][  0].a[ 74] =       429.371220000000;     BAS[ATNO][  0].d[ 74] =         0.000049419176;
  BAS[ATNO][  0].a[ 75] =       177.188590000000;     BAS[ATNO][  0].d[ 75] =         0.000074881171;
  BAS[ATNO][  0].a[ 76] =        73.763945000000;     BAS[ATNO][  0].d[ 76] =         0.000284248928;
  BAS[ATNO][  0].a[ 77] =        30.897007000000;     BAS[ATNO][  0].d[ 77] =         0.000061366985;
  BAS[ATNO][  0].a[ 78] =        12.999482000000;     BAS[ATNO][  0].d[ 78] =         0.000076620237;
  BAS[ATNO][  0].a[ 79] =         5.487679300000;     BAS[ATNO][  0].d[ 79] =        -0.002727270162;
  BAS[ATNO][  0].a[ 80] =         2.322571600000;     BAS[ATNO][  0].d[ 80] =         0.001437929525;
  BAS[ATNO][  0].a[ 81] =         0.984980700000;     BAS[ATNO][  0].d[ 81] =         0.005824222945;
  BAS[ATNO][  0].a[ 82] =         0.418397300000;     BAS[ATNO][  0].d[ 82] =        -0.009240606120;
  BAS[ATNO][  0].a[ 83] =         0.177959400000;     BAS[ATNO][  0].d[ 83] =         0.004334943694;
  BAS[ATNO][  0].a[ 84] =         0.071183800000;     BAS[ATNO][  0].d[ 84] =         0.000512722528;

  // Basis function   2 L = s
  InitBFNGauss(BAS[ATNO][  1]);
  BAS[ATNO][  1].l  = 0;
  BAS[ATNO][  1].ng = 84;
  BAS[ATNO][  1].a[  0] =    455476.770000000019;     BAS[ATNO][  1].d[  0] =         0.000002789264;
  BAS[ATNO][  1].a[  1] =     64817.743000000002;     BAS[ATNO][  1].d[  1] =         0.000008821594;
  BAS[ATNO][  1].a[  2] =     19256.987000000001;     BAS[ATNO][  1].d[  2] =         0.000018924892;
  BAS[ATNO][  1].a[  3] =      6877.007300000000;     BAS[ATNO][  1].d[  3] =         0.000051998499;
  BAS[ATNO][  1].a[  4] =      2643.487700000000;     BAS[ATNO][  1].d[  4] =         0.000138723008;
  BAS[ATNO][  1].a[  5] =      1054.237500000000;     BAS[ATNO][  1].d[  5] =         0.000384100514;
  BAS[ATNO][  1].a[  6] =       429.371220000000;     BAS[ATNO][  1].d[  6] =         0.000998123348;
  BAS[ATNO][  1].a[  7] =       177.188590000000;     BAS[ATNO][  1].d[  7] =         0.002220429251;
  BAS[ATNO][  1].a[  8] =        73.763945000000;     BAS[ATNO][  1].d[  8] =         0.003474830435;
  BAS[ATNO][  1].a[  9] =        30.897007000000;     BAS[ATNO][  1].d[  9] =         0.002432517323;
  BAS[ATNO][  1].a[ 10] =        12.999482000000;     BAS[ATNO][  1].d[ 10] =         0.000334294289;
  BAS[ATNO][  1].a[ 11] =         5.487679300000;     BAS[ATNO][  1].d[ 11] =         0.000027195103;
  BAS[ATNO][  1].a[ 12] =         2.322571600000;     BAS[ATNO][  1].d[ 12] =        -0.000012074688;
  BAS[ATNO][  1].a[ 13] =         0.984980700000;     BAS[ATNO][  1].d[ 13] =         0.000008744158;
  BAS[ATNO][  1].a[ 14] =         0.418397300000;     BAS[ATNO][  1].d[ 14] =        -0.000005608699;
  BAS[ATNO][  1].a[ 15] =         0.177959400000;     BAS[ATNO][  1].d[ 15] =         0.000002459289;
  BAS[ATNO][  1].a[ 16] =    455476.770000000019;     BAS[ATNO][  1].d[ 16] =        -0.000090420660;
  BAS[ATNO][  1].a[ 17] =     64817.743000000002;     BAS[ATNO][  1].d[ 17] =        -0.000286366667;
  BAS[ATNO][  1].a[ 18] =     19256.987000000001;     BAS[ATNO][  1].d[ 18] =        -0.000616051875;
  BAS[ATNO][  1].a[ 19] =      6877.007300000000;     BAS[ATNO][  1].d[ 19] =        -0.001698274464;
  BAS[ATNO][  1].a[ 20] =      2643.487700000000;     BAS[ATNO][  1].d[ 20] =        -0.004575109578;
  BAS[ATNO][  1].a[ 21] =      1054.237500000000;     BAS[ATNO][  1].d[ 21] =        -0.012898621319;
  BAS[ATNO][  1].a[ 22] =       429.371220000000;     BAS[ATNO][  1].d[ 22] =        -0.035108594909;
  BAS[ATNO][  1].a[ 23] =       177.188590000000;     BAS[ATNO][  1].d[ 23] =        -0.086509208728;
  BAS[ATNO][  1].a[ 24] =        73.763945000000;     BAS[ATNO][  1].d[ 24] =        -0.172619126220;
  BAS[ATNO][  1].a[ 25] =        30.897007000000;     BAS[ATNO][  1].d[ 25] =        -0.183546264971;
  BAS[ATNO][  1].a[ 26] =        12.999482000000;     BAS[ATNO][  1].d[ 26] =         0.135249560374;
  BAS[ATNO][  1].a[ 27] =         5.487679300000;     BAS[ATNO][  1].d[ 27] =         0.626976622761;
  BAS[ATNO][  1].a[ 28] =         2.322571600000;     BAS[ATNO][  1].d[ 28] =         0.377385657159;
  BAS[ATNO][  1].a[ 29] =         0.984980700000;     BAS[ATNO][  1].d[ 29] =         0.004914722980;
  BAS[ATNO][  1].a[ 30] =         0.418397300000;     BAS[ATNO][  1].d[ 30] =         0.011589166562;
  BAS[ATNO][  1].a[ 31] =         0.177959400000;     BAS[ATNO][  1].d[ 31] =        -0.004401914449;
  BAS[ATNO][  1].a[ 32] =         0.071183800000;     BAS[ATNO][  1].d[ 32] =         0.001275619865;
  BAS[ATNO][  1].a[ 33] =    455476.770000000019;     BAS[ATNO][  1].d[ 33] =        -0.000002854495;
  BAS[ATNO][  1].a[ 34] =     64817.743000000002;     BAS[ATNO][  1].d[ 34] =        -0.000009032487;
  BAS[ATNO][  1].a[ 35] =     19256.987000000001;     BAS[ATNO][  1].d[ 35] =        -0.000019502588;
  BAS[ATNO][  1].a[ 36] =      6877.007300000000;     BAS[ATNO][  1].d[ 36] =        -0.000053445503;
  BAS[ATNO][  1].a[ 37] =      2643.487700000000;     BAS[ATNO][  1].d[ 37] =        -0.000145361026;
  BAS[ATNO][  1].a[ 38] =      1054.237500000000;     BAS[ATNO][  1].d[ 38] =        -0.000406434247;
  BAS[ATNO][  1].a[ 39] =       429.371220000000;     BAS[ATNO][  1].d[ 39] =        -0.001123427853;
  BAS[ATNO][  1].a[ 40] =       177.188590000000;     BAS[ATNO][  1].d[ 40] =        -0.002764175870;
  BAS[ATNO][  1].a[ 41] =        73.763945000000;     BAS[ATNO][  1].d[ 41] =        -0.005741993546;
  BAS[ATNO][  1].a[ 42] =        30.897007000000;     BAS[ATNO][  1].d[ 42] =        -0.006235489391;
  BAS[ATNO][  1].a[ 43] =        12.999482000000;     BAS[ATNO][  1].d[ 43] =         0.004813647851;
  BAS[ATNO][  1].a[ 44] =         5.487679300000;     BAS[ATNO][  1].d[ 44] =         0.032591736079;
  BAS[ATNO][  1].a[ 45] =         2.322571600000;     BAS[ATNO][  1].d[ 45] =         0.034509017600;
  BAS[ATNO][  1].a[ 46] =         0.984980700000;     BAS[ATNO][  1].d[ 46] =        -0.033863433758;
  BAS[ATNO][  1].a[ 47] =         0.418397300000;     BAS[ATNO][  1].d[ 47] =        -0.067250397928;
  BAS[ATNO][  1].a[ 48] =         0.177959400000;     BAS[ATNO][  1].d[ 48] =        -0.025271075582;
  BAS[ATNO][  1].a[ 49] =         0.071183800000;     BAS[ATNO][  1].d[ 49] =        -0.000448327488;
  BAS[ATNO][  1].a[ 50] =    455476.770000000019;     BAS[ATNO][  1].d[ 50] =        -0.000003027241;
  BAS[ATNO][  1].a[ 51] =     64817.743000000002;     BAS[ATNO][  1].d[ 51] =        -0.000009576509;
  BAS[ATNO][  1].a[ 52] =     19256.987000000001;     BAS[ATNO][  1].d[ 52] =        -0.000020692353;
  BAS[ATNO][  1].a[ 53] =      6877.007300000000;     BAS[ATNO][  1].d[ 53] =        -0.000056677858;
  BAS[ATNO][  1].a[ 54] =      2643.487700000000;     BAS[ATNO][  1].d[ 54] =        -0.000154274895;
  BAS[ATNO][  1].a[ 55] =      1054.237500000000;     BAS[ATNO][  1].d[ 55] =        -0.000431804779;
  BAS[ATNO][  1].a[ 56] =       429.371220000000;     BAS[ATNO][  1].d[ 56] =        -0.001195651056;
  BAS[ATNO][  1].a[ 57] =       177.188590000000;     BAS[ATNO][  1].d[ 57] =        -0.002958245616;
  BAS[ATNO][  1].a[ 58] =        73.763945000000;     BAS[ATNO][  1].d[ 58] =        -0.006221625401;
  BAS[ATNO][  1].a[ 59] =        30.897007000000;     BAS[ATNO][  1].d[ 59] =        -0.006915958639;
  BAS[ATNO][  1].a[ 60] =        12.999482000000;     BAS[ATNO][  1].d[ 60] =         0.007566437674;
  BAS[ATNO][  1].a[ 61] =         5.487679300000;     BAS[ATNO][  1].d[ 61] =         0.036449305043;
  BAS[ATNO][  1].a[ 62] =         2.322571600000;     BAS[ATNO][  1].d[ 62] =         0.058392840885;
  BAS[ATNO][  1].a[ 63] =         0.984980700000;     BAS[ATNO][  1].d[ 63] =        -0.166128197858;
  BAS[ATNO][  1].a[ 64] =         0.418397300000;     BAS[ATNO][  1].d[ 64] =        -0.000233745730;
  BAS[ATNO][  1].a[ 65] =         0.177959400000;     BAS[ATNO][  1].d[ 65] =         0.103763141746;
  BAS[ATNO][  1].a[ 66] =         0.071183800000;     BAS[ATNO][  1].d[ 66] =         0.004020105751;
  BAS[ATNO][  1].a[ 67] =    455476.770000000019;     BAS[ATNO][  1].d[ 67] =        -0.000003669518;
  BAS[ATNO][  1].a[ 68] =     64817.743000000002;     BAS[ATNO][  1].d[ 68] =        -0.000011092588;
  BAS[ATNO][  1].a[ 69] =     19256.987000000001;     BAS[ATNO][  1].d[ 69] =        -0.000027498574;
  BAS[ATNO][  1].a[ 70] =      6877.007300000000;     BAS[ATNO][  1].d[ 70] =        -0.000057254082;
  BAS[ATNO][  1].a[ 71] =      2643.487700000000;     BAS[ATNO][  1].d[ 71] =        -0.000223415610;
  BAS[ATNO][  1].a[ 72] =      1054.237500000000;     BAS[ATNO][  1].d[ 72] =        -0.000405522934;
  BAS[ATNO][  1].a[ 73] =       429.371220000000;     BAS[ATNO][  1].d[ 73] =        -0.001780281967;
  BAS[ATNO][  1].a[ 74] =       177.188590000000;     BAS[ATNO][  1].d[ 74] =        -0.002697527761;
  BAS[ATNO][  1].a[ 75] =        73.763945000000;     BAS[ATNO][  1].d[ 75] =        -0.010239815429;
  BAS[ATNO][  1].a[ 76] =        30.897007000000;     BAS[ATNO][  1].d[ 76] =        -0.002210691194;
  BAS[ATNO][  1].a[ 77] =        12.999482000000;     BAS[ATNO][  1].d[ 77] =        -0.002760176074;
  BAS[ATNO][  1].a[ 78] =         5.487679300000;     BAS[ATNO][  1].d[ 78] =         0.098247487877;
  BAS[ATNO][  1].a[ 79] =         2.322571600000;     BAS[ATNO][  1].d[ 79] =        -0.051800135357;
  BAS[ATNO][  1].a[ 80] =         0.984980700000;     BAS[ATNO][  1].d[ 80] =        -0.209812464182;
  BAS[ATNO][  1].a[ 81] =         0.418397300000;     BAS[ATNO][  1].d[ 81] =         0.332884636934;
  BAS[ATNO][  1].a[ 82] =         0.177959400000;     BAS[ATNO][  1].d[ 82] =        -0.156162500492;
  BAS[ATNO][  1].a[ 83] =         0.071183800000;     BAS[ATNO][  1].d[ 83] =        -0.018470374182;

  // Basis function   3 L = s
  InitBFNGauss(BAS[ATNO][  2]);
  BAS[ATNO][  2].l  = 0;
  BAS[ATNO][  2].ng = 84;
  BAS[ATNO][  2].a[  0] =    455476.770000000019;     BAS[ATNO][  2].d[  0] =         0.000000627056;
  BAS[ATNO][  2].a[  1] =     64817.743000000002;     BAS[ATNO][  2].d[  1] =         0.000001983187;
  BAS[ATNO][  2].a[  2] =     19256.987000000001;     BAS[ATNO][  2].d[  2] =         0.000004254514;
  BAS[ATNO][  2].a[  3] =      6877.007300000000;     BAS[ATNO][  2].d[  3] =         0.000011689807;
  BAS[ATNO][  2].a[  4] =      2643.487700000000;     BAS[ATNO][  2].d[  4] =         0.000031186386;
  BAS[ATNO][  2].a[  5] =      1054.237500000000;     BAS[ATNO][  2].d[  5] =         0.000086349821;
  BAS[ATNO][  2].a[  6] =       429.371220000000;     BAS[ATNO][  2].d[  6] =         0.000224388589;
  BAS[ATNO][  2].a[  7] =       177.188590000000;     BAS[ATNO][  2].d[  7] =         0.000499175765;
  BAS[ATNO][  2].a[  8] =        73.763945000000;     BAS[ATNO][  2].d[  8] =         0.000781178297;
  BAS[ATNO][  2].a[  9] =        30.897007000000;     BAS[ATNO][  2].d[  9] =         0.000546855386;
  BAS[ATNO][  2].a[ 10] =        12.999482000000;     BAS[ATNO][  2].d[ 10] =         0.000075152860;
  BAS[ATNO][  2].a[ 11] =         5.487679300000;     BAS[ATNO][  2].d[ 11] =         0.000006113744;
  BAS[ATNO][  2].a[ 12] =         2.322571600000;     BAS[ATNO][  2].d[ 12] =        -0.000002714516;
  BAS[ATNO][  2].a[ 13] =         0.984980700000;     BAS[ATNO][  2].d[ 13] =         0.000001965778;
  BAS[ATNO][  2].a[ 14] =         0.418397300000;     BAS[ATNO][  2].d[ 14] =        -0.000001260894;
  BAS[ATNO][  2].a[ 15] =         0.177959400000;     BAS[ATNO][  2].d[ 15] =         0.000000552874;
  BAS[ATNO][  2].a[ 16] =    455476.770000000019;     BAS[ATNO][  2].d[ 16] =         0.000013807064;
  BAS[ATNO][  2].a[ 17] =     64817.743000000002;     BAS[ATNO][  2].d[ 17] =         0.000043727647;
  BAS[ATNO][  2].a[ 18] =     19256.987000000001;     BAS[ATNO][  2].d[ 18] =         0.000094069954;
  BAS[ATNO][  2].a[ 19] =      6877.007300000000;     BAS[ATNO][  2].d[ 19] =         0.000259323292;
[...]
  BAS[ATNO][  6].a[ 12] =      1462.496200000000;     BAS[ATNO][  6].d[ 12] =        -0.000190746181;
  BAS[ATNO][  6].a[ 13] =       354.067310000000;     BAS[ATNO][  6].d[ 13] =        -0.001235974631;
  BAS[ATNO][  6].a[ 14] =       126.697790000000;     BAS[ATNO][  6].d[ 14] =        -0.005172631998;
  BAS[ATNO][  6].a[ 15] =        49.989095000000;     BAS[ATNO][  6].d[ 15] =        -0.019073483155;
  BAS[ATNO][  6].a[ 16] =        20.509295000000;     BAS[ATNO][  6].d[ 16] =        -0.051688235794;
  BAS[ATNO][  6].a[ 17] =         8.580464100000;     BAS[ATNO][  6].d[ 17] =        -0.092696304857;
  BAS[ATNO][  6].a[ 18] =         3.630104900000;     BAS[ATNO][  6].d[ 18] =        -0.076622606797;
  BAS[ATNO][  6].a[ 19] =         1.546528000000;     BAS[ATNO][  6].d[ 19] =         0.112512266935;
  BAS[ATNO][  6].a[ 20] =         0.661936900000;     BAS[ATNO][  6].d[ 20] =         0.310570320666;
  BAS[ATNO][  6].a[ 21] =         0.284242800000;     BAS[ATNO][  6].d[ 21] =         0.284888930812;
  BAS[ATNO][  6].a[ 22] =         0.122346300000;     BAS[ATNO][  6].d[ 22] =         0.101904441464;
  BAS[ATNO][  6].a[ 23] =         0.048938500000;     BAS[ATNO][  6].d[ 23] =         0.004699136887;
  BAS[ATNO][  6].a[ 24] =      1462.496200000000;     BAS[ATNO][  6].d[ 24] =        -0.000189131330;
  BAS[ATNO][  6].a[ 25] =       354.067310000000;     BAS[ATNO][  6].d[ 25] =        -0.001150395687;
  BAS[ATNO][  6].a[ 26] =       126.697790000000;     BAS[ATNO][  6].d[ 26] =        -0.005236027262;
  BAS[ATNO][  6].a[ 27] =        49.989095000000;     BAS[ATNO][  6].d[ 27] =        -0.017817209174;
  BAS[ATNO][  6].a[ 28] =        20.509295000000;     BAS[ATNO][  6].d[ 28] =        -0.054073916415;
  BAS[ATNO][  6].a[ 29] =         8.580464100000;     BAS[ATNO][  6].d[ 29] =        -0.080855437335;
  BAS[ATNO][  6].a[ 30] =         3.630104900000;     BAS[ATNO][  6].d[ 30] =        -0.098667270960;
  BAS[ATNO][  6].a[ 31] =         1.546528000000;     BAS[ATNO][  6].d[ 31] =         0.253058938015;
  BAS[ATNO][  6].a[ 32] =         0.661936900000;     BAS[ATNO][  6].d[ 32] =         0.413561521264;
  BAS[ATNO][  6].a[ 33] =         0.284242800000;     BAS[ATNO][  6].d[ 33] =        -0.286930492172;
  BAS[ATNO][  6].a[ 34] =         0.122346300000;     BAS[ATNO][  6].d[ 34] =        -0.339914847419;
  BAS[ATNO][  6].a[ 35] =         0.048938500000;     BAS[ATNO][  6].d[ 35] =        -0.034985922948;
  BAS[ATNO][  6].a[ 36] =      1462.496200000000;     BAS[ATNO][  6].d[ 36] =        -0.000208925577;
  BAS[ATNO][  6].a[ 37] =       354.067310000000;     BAS[ATNO][  6].d[ 37] =        -0.001223483457;
  BAS[ATNO][  6].a[ 38] =       126.697790000000;     BAS[ATNO][  6].d[ 38] =        -0.005918802136;
  BAS[ATNO][  6].a[ 39] =        49.989095000000;     BAS[ATNO][  6].d[ 39] =        -0.019240866881;
  BAS[ATNO][  6].a[ 40] =        20.509295000000;     BAS[ATNO][  6].d[ 40] =        -0.064857105566;
  BAS[ATNO][  6].a[ 41] =         8.580464100000;     BAS[ATNO][  6].d[ 41] =        -0.076529410108;
  BAS[ATNO][  6].a[ 42] =         3.630104900000;     BAS[ATNO][  6].d[ 42] =        -0.104236549839;
  BAS[ATNO][  6].a[ 43] =         1.546528000000;     BAS[ATNO][  6].d[ 43] =         0.615498402711;
  BAS[ATNO][  6].a[ 44] =         0.661936900000;     BAS[ATNO][  6].d[ 44] =        -0.299506158867;
  BAS[ATNO][  6].a[ 45] =         0.284242800000;     BAS[ATNO][  6].d[ 45] =        -0.458627124478;
  BAS[ATNO][  6].a[ 46] =         0.122346300000;     BAS[ATNO][  6].d[ 46] =         0.454123601418;
  BAS[ATNO][  6].a[ 47] =         0.048938500000;     BAS[ATNO][  6].d[ 47] =         0.048519614761;

  // Basis function   8 L = p
  InitBFNGauss(BAS[ATNO][  7]);
  BAS[ATNO][  7].l  = 1;
  BAS[ATNO][  7].ng = 47;
  BAS[ATNO][  7].a[  0] =      1462.496200000000;     BAS[ATNO][  7].d[  0] =         0.000028775530;
  BAS[ATNO][  7].a[  1] =       354.067310000000;     BAS[ATNO][  7].d[  1] =         0.000185690566;
  BAS[ATNO][  7].a[  2] =       126.697790000000;     BAS[ATNO][  7].d[  2] =         0.000770627967;
  BAS[ATNO][  7].a[  3] =        49.989095000000;     BAS[ATNO][  7].d[  3] =         0.002781855011;
  BAS[ATNO][  7].a[  4] =        20.509295000000;     BAS[ATNO][  7].d[  4] =         0.007297649425;
  BAS[ATNO][  7].a[  5] =         8.580464100000;     BAS[ATNO][  7].d[  5] =         0.012454731961;
  BAS[ATNO][  7].a[  6] =         3.630104900000;     BAS[ATNO][  7].d[  6] =         0.010295537675;
  BAS[ATNO][  7].a[  7] =         1.546528000000;     BAS[ATNO][  7].d[  7] =         0.002181607301;
  BAS[ATNO][  7].a[  8] =         0.661936900000;     BAS[ATNO][  7].d[  8] =         0.000105129912;
  BAS[ATNO][  7].a[  9] =         0.284242800000;     BAS[ATNO][  7].d[  9] =         0.000008686902;
  BAS[ATNO][  7].a[ 10] =         0.122346300000;     BAS[ATNO][  7].d[ 10] =         0.000014242510;
  BAS[ATNO][  7].a[ 11] =      1462.496200000000;     BAS[ATNO][  7].d[ 11] =         0.000188172427;
  BAS[ATNO][  7].a[ 12] =       354.067310000000;     BAS[ATNO][  7].d[ 12] =         0.001219297520;
  BAS[ATNO][  7].a[ 13] =       126.697790000000;     BAS[ATNO][  7].d[ 13] =         0.005102837235;
  BAS[ATNO][  7].a[ 14] =        49.989095000000;     BAS[ATNO][  7].d[ 14] =         0.018816123029;
  BAS[ATNO][  7].a[ 15] =        20.509295000000;     BAS[ATNO][  7].d[ 15] =         0.050990802044;
  BAS[ATNO][  7].a[ 16] =         8.580464100000;     BAS[ATNO][  7].d[ 16] =         0.091445545752;
  BAS[ATNO][  7].a[ 17] =         3.630104900000;     BAS[ATNO][  7].d[ 17] =         0.075588731463;
  BAS[ATNO][  7].a[ 18] =         1.546528000000;     BAS[ATNO][  7].d[ 18] =        -0.110994129373;
  BAS[ATNO][  7].a[ 19] =         0.661936900000;     BAS[ATNO][  7].d[ 19] =        -0.306379768984;
  BAS[ATNO][  7].a[ 20] =         0.284242800000;     BAS[ATNO][  7].d[ 20] =        -0.281044900302;
  BAS[ATNO][  7].a[ 21] =         0.122346300000;     BAS[ATNO][  7].d[ 21] =        -0.100529436191;
  BAS[ATNO][  7].a[ 22] =         0.048938500000;     BAS[ATNO][  7].d[ 22] =        -0.004635731034;
  BAS[ATNO][  7].a[ 23] =      1462.496200000000;     BAS[ATNO][  7].d[ 23] =        -0.000120705756;
  BAS[ATNO][  7].a[ 24] =       354.067310000000;     BAS[ATNO][  7].d[ 24] =        -0.000734195548;
  BAS[ATNO][  7].a[ 25] =       126.697790000000;     BAS[ATNO][  7].d[ 25] =        -0.003341691863;
  BAS[ATNO][  7].a[ 26] =        49.989095000000;     BAS[ATNO][  7].d[ 26] =        -0.011371144560;
  BAS[ATNO][  7].a[ 27] =        20.509295000000;     BAS[ATNO][  7].d[ 27] =        -0.034510585496;
  BAS[ATNO][  7].a[ 28] =         8.580464100000;     BAS[ATNO][  7].d[ 28] =        -0.051602855275;
  BAS[ATNO][  7].a[ 29] =         3.630104900000;     BAS[ATNO][  7].d[ 29] =        -0.062970569099;
  BAS[ATNO][  7].a[ 30] =         1.546528000000;     BAS[ATNO][  7].d[ 30] =         0.161505078508;
  BAS[ATNO][  7].a[ 31] =         0.661936900000;     BAS[ATNO][  7].d[ 31] =         0.263939643797;
  BAS[ATNO][  7].a[ 32] =         0.284242800000;     BAS[ATNO][  7].d[ 32] =        -0.183122287748;
  BAS[ATNO][  7].a[ 33] =         0.122346300000;     BAS[ATNO][  7].d[ 33] =        -0.216937502974;
  BAS[ATNO][  7].a[ 34] =         0.048938500000;     BAS[ATNO][  7].d[ 34] =        -0.022328412016;
  BAS[ATNO][  7].a[ 35] =      1462.496200000000;     BAS[ATNO][  7].d[ 35] =        -0.000318920725;
  BAS[ATNO][  7].a[ 36] =       354.067310000000;     BAS[ATNO][  7].d[ 36] =        -0.001867623087;
  BAS[ATNO][  7].a[ 37] =       126.697790000000;     BAS[ATNO][  7].d[ 37] =        -0.009034933373;
  BAS[ATNO][  7].a[ 38] =        49.989095000000;     BAS[ATNO][  7].d[ 38] =        -0.029370799415;
  BAS[ATNO][  7].a[ 39] =        20.509295000000;     BAS[ATNO][  7].d[ 39] =        -0.099003077666;
  BAS[ATNO][  7].a[ 40] =         8.580464100000;     BAS[ATNO][  7].d[ 40] =        -0.116820617672;
  BAS[ATNO][  7].a[ 41] =         3.630104900000;     BAS[ATNO][  7].d[ 41] =        -0.159115013679;
  BAS[ATNO][  7].a[ 42] =         1.546528000000;     BAS[ATNO][  7].d[ 42] =         0.939546031772;
  BAS[ATNO][  7].a[ 43] =         0.661936900000;     BAS[ATNO][  7].d[ 43] =        -0.457190175987;
  BAS[ATNO][  7].a[ 44] =         0.284242800000;     BAS[ATNO][  7].d[ 44] =        -0.700085155329;
  BAS[ATNO][  7].a[ 45] =         0.122346300000;     BAS[ATNO][  7].d[ 45] =         0.693210617228;
  BAS[ATNO][  7].a[ 46] =         0.048938500000;     BAS[ATNO][  7].d[ 46] =         0.074064223906;

  // Basis function   9 L = p
  InitBFNGauss(BAS[ATNO][  8]);
  BAS[ATNO][  8].l  = 1;
  BAS[ATNO][  8].ng = 47;
  BAS[ATNO][  8].a[  0] =      1462.496200000000;     BAS[ATNO][  8].d[  0] =         0.000012986308;
  BAS[ATNO][  8].a[  1] =       354.067310000000;     BAS[ATNO][  8].d[  1] =         0.000083801582;
  BAS[ATNO][  8].a[  2] =       126.697790000000;     BAS[ATNO][  8].d[  2] =         0.000347782033;
  BAS[ATNO][  8].a[  3] =        49.989095000000;     BAS[ATNO][  8].d[  3] =         0.001255442615;
  BAS[ATNO][  8].a[  4] =        20.509295000000;     BAS[ATNO][  8].d[  4] =         0.003293406753;
  BAS[ATNO][  8].a[  5] =         8.580464100000;     BAS[ATNO][  8].d[  5] =         0.005620782249;
  BAS[ATNO][  8].a[  6] =         3.630104900000;     BAS[ATNO][  8].d[  6] =         0.004646344504;
  BAS[ATNO][  8].a[  7] =         1.546528000000;     BAS[ATNO][  8].d[  7] =         0.000984552669;
  BAS[ATNO][  8].a[  8] =         0.661936900000;     BAS[ATNO][  8].d[  8] =         0.000047444806;
  BAS[ATNO][  8].a[  9] =         0.284242800000;     BAS[ATNO][  8].d[  9] =         0.000003920372;
  BAS[ATNO][  8].a[ 10] =         0.122346300000;     BAS[ATNO][  8].d[ 10] =         0.000006427601;
  BAS[ATNO][  8].a[ 11] =      1462.496200000000;     BAS[ATNO][  8].d[ 11] =        -0.000057975343;
  BAS[ATNO][  8].a[ 12] =       354.067310000000;     BAS[ATNO][  8].d[ 12] =        -0.000375661796;
  BAS[ATNO][  8].a[ 13] =       126.697790000000;     BAS[ATNO][  8].d[ 13] =        -0.001572168375;
  BAS[ATNO][  8].a[ 14] =        49.989095000000;     BAS[ATNO][  8].d[ 14] =        -0.005797189329;
  BAS[ATNO][  8].a[ 15] =        20.509295000000;     BAS[ATNO][  8].d[ 15] =        -0.015710108454;
  BAS[ATNO][  8].a[ 16] =         8.580464100000;     BAS[ATNO][  8].d[ 16] =        -0.028174089910;
  BAS[ATNO][  8].a[ 17] =         3.630104900000;     BAS[ATNO][  8].d[ 17] =        -0.023288654455;
  BAS[ATNO][  8].a[ 18] =         1.546528000000;     BAS[ATNO][  8].d[ 18] =         0.034196948082;
  BAS[ATNO][  8].a[ 19] =         0.661936900000;     BAS[ATNO][  8].d[ 19] =         0.094394659542;
  BAS[ATNO][  8].a[ 20] =         0.284242800000;     BAS[ATNO][  8].d[ 20] =         0.086589064833;
  BAS[ATNO][  8].a[ 21] =         0.122346300000;     BAS[ATNO][  8].d[ 21] =         0.030972808468;
  BAS[ATNO][  8].a[ 22] =         0.048938500000;     BAS[ATNO][  8].d[ 22] =         0.001428254399;
  BAS[ATNO][  8].a[ 23] =      1462.496200000000;     BAS[ATNO][  8].d[ 23] =         0.000246917924;
  BAS[ATNO][  8].a[ 24] =       354.067310000000;     BAS[ATNO][  8].d[ 24] =         0.001501883977;
  BAS[ATNO][  8].a[ 25] =       126.697790000000;     BAS[ATNO][  8].d[ 25] =         0.006835826613;
  BAS[ATNO][  8].a[ 26] =        49.989095000000;     BAS[ATNO][  8].d[ 26] =         0.023261023393;
  BAS[ATNO][  8].a[ 27] =        20.509295000000;     BAS[ATNO][  8].d[ 27] =         0.070595491271;
  BAS[ATNO][  8].a[ 28] =         8.580464100000;     BAS[ATNO][  8].d[ 28] =         0.105559754110;
  BAS[ATNO][  8].a[ 29] =         3.630104900000;     BAS[ATNO][  8].d[ 29] =         0.128813759526;
  BAS[ATNO][  8].a[ 30] =         1.546528000000;     BAS[ATNO][  8].d[ 30] =        -0.330377772390;
  BAS[ATNO][  8].a[ 31] =         0.661936900000;     BAS[ATNO][  8].d[ 31] =        -0.539919811617;
  BAS[ATNO][  8].a[ 32] =         0.284242800000;     BAS[ATNO][  8].d[ 32] =         0.374598334989;
  BAS[ATNO][  8].a[ 33] =         0.122346300000;     BAS[ATNO][  8].d[ 33] =         0.443771363989;
  BAS[ATNO][  8].a[ 34] =         0.048938500000;     BAS[ATNO][  8].d[ 34] =         0.045675412136;
  BAS[ATNO][  8].a[ 35] =      1462.496200000000;     BAS[ATNO][  8].d[ 35] =        -0.000322801418;
  BAS[ATNO][  8].a[ 36] =       354.067310000000;     BAS[ATNO][  8].d[ 36] =        -0.001890348707;
  BAS[ATNO][  8].a[ 37] =       126.697790000000;     BAS[ATNO][  8].d[ 37] =        -0.009144872295;
  BAS[ATNO][  8].a[ 38] =        49.989095000000;     BAS[ATNO][  8].d[ 38] =        -0.029728189326;
  BAS[ATNO][  8].a[ 39] =        20.509295000000;     BAS[ATNO][  8].d[ 39] =        -0.100207767421;
  BAS[ATNO][  8].a[ 40] =         8.580464100000;     BAS[ATNO][  8].d[ 40] =        -0.118242114909;
  BAS[ATNO][  8].a[ 41] =         3.630104900000;     BAS[ATNO][  8].d[ 41] =        -0.161051157801;
  BAS[ATNO][  8].a[ 42] =         1.546528000000;     BAS[ATNO][  8].d[ 42] =         0.950978620594;
  BAS[ATNO][  8].a[ 43] =         0.661936900000;     BAS[ATNO][  8].d[ 43] =        -0.462753359821;
  BAS[ATNO][  8].a[ 44] =         0.284242800000;     BAS[ATNO][  8].d[ 44] =        -0.708603935091;
  BAS[ATNO][  8].a[ 45] =         0.122346300000;     BAS[ATNO][  8].d[ 45] =         0.701645746200;
  BAS[ATNO][  8].a[ 46] =         0.048938500000;     BAS[ATNO][  8].d[ 46] =         0.074965452573;

  // Basis function  10 L = d
  InitBFNGauss(BAS[ATNO][  9]);
  BAS[ATNO][  9].l  = 2;
  BAS[ATNO][  9].ng = 10;
  BAS[ATNO][  9].a[  0] =         4.328841700000;     BAS[ATNO][  9].d[  0] =         0.023693642929;
  BAS[ATNO][  9].a[  1] =         1.774230200000;     BAS[ATNO][  9].d[  1] =         0.164624076198;
  BAS[ATNO][  9].a[  2] =         0.727190600000;     BAS[ATNO][  9].d[  2] =         0.511726920906;
  BAS[ATNO][  9].a[  3] =         0.298048200000;     BAS[ATNO][  9].d[  3] =         0.259233194284;
  BAS[ATNO][  9].a[  4] =         0.119219300000;     BAS[ATNO][  9].d[  4] =         0.024470602911;
  BAS[ATNO][  9].a[  5] =         4.328841700000;     BAS[ATNO][  9].d[  5] =        -0.069730185861;
  BAS[ATNO][  9].a[  6] =         1.774230200000;     BAS[ATNO][  9].d[  6] =         0.387087972154;
  BAS[ATNO][  9].a[  7] =         0.727190600000;     BAS[ATNO][  9].d[  7] =         0.171236132997;
  BAS[ATNO][  9].a[  8] =         0.298048200000;     BAS[ATNO][  9].d[  8] =        -0.503964166531;
  BAS[ATNO][  9].a[  9] =         0.119219300000;     BAS[ATNO][  9].d[  9] =        -0.036206852902;

  // Basis function  11 L = d
  InitBFNGauss(BAS[ATNO][ 10]);
  BAS[ATNO][ 10].l  = 2;
  BAS[ATNO][ 10].ng = 10;
  BAS[ATNO][ 10].a[  0] =         4.328841700000;     BAS[ATNO][ 10].d[  0] =         0.014705376330;
  BAS[ATNO][ 10].a[  1] =         1.774230200000;     BAS[ATNO][ 10].d[  1] =         0.102173355134;
  BAS[ATNO][ 10].a[  2] =         0.727190600000;     BAS[ATNO][ 10].d[  2] =         0.317601517523;
  BAS[ATNO][ 10].a[  3] =         0.298048200000;     BAS[ATNO][ 10].d[  3] =         0.160892172238;
  BAS[ATNO][ 10].a[  4] =         0.119219300000;     BAS[ATNO][ 10].d[  4] =         0.015187593816;
  BAS[ATNO][ 10].a[  5] =         4.328841700000;     BAS[ATNO][ 10].d[  5] =         0.112350891457;
  BAS[ATNO][ 10].a[  6] =         1.774230200000;     BAS[ATNO][ 10].d[  6] =        -0.623685111499;
  BAS[ATNO][ 10].a[  7] =         0.727190600000;     BAS[ATNO][ 10].d[  7] =        -0.275899625882;
  BAS[ATNO][ 10].a[  8] =         0.298048200000;     BAS[ATNO][ 10].d[  8] =         0.811998744485;
  BAS[ATNO][ 10].a[  9] =         0.119219300000;     BAS[ATNO][ 10].d[  9] =         0.058337320489;

  // Basis function  12 L = f
  InitBFNGauss(BAS[ATNO][ 11]);
  BAS[ATNO][ 11].l  = 3;
  BAS[ATNO][ 11].ng = 4;
  BAS[ATNO][ 11].a[  0] =         1.631174000000;     BAS[ATNO][ 11].d[  0] =         0.245409970118;
  BAS[ATNO][ 11].a[  1] =         0.820328800000;     BAS[ATNO][ 11].d[  1] =         0.580760500278;
  BAS[ATNO][ 11].a[  2] =         0.412549100000;     BAS[ATNO][ 11].d[  2] =         0.264213740127;
  BAS[ATNO][ 11].a[  3] =         0.165019600000;     BAS[ATNO][ 11].d[  3] =         0.038934170019;

-------
TIMINGS
-------

Total SCF time: 0 days 0 hours 0 min 7 sec 

Total time                  ....       7.341 sec
Sum of individual times     ....       7.073 sec  ( 96.3%)

Fock matrix formation       ....       6.601 sec  ( 89.9%)
  XC integration            ....       0.022 sec  (  0.3% of F)
    Basis function eval.    ....       0.009 sec  ( 39.2% of XC)
    Density eval.           ....       0.001 sec  (  3.8% of XC)
    XC-Functional eval.     ....       0.001 sec  (  5.9% of XC)
    XC-Potential eval.      ....       0.001 sec  (  3.7% of XC)
Diagonalization             ....       0.000 sec  (  0.0%)
Density matrix formation    ....       0.000 sec  (  0.0%)
Population analysis         ....       0.001 sec  (  0.0%)
Initial guess               ....       0.089 sec  (  1.2%)
Orbital Transformation      ....       0.000 sec  (  0.0%)
Orbital Orthonormalization  ....       0.000 sec  (  0.0%)
DIIS solution               ....       0.000 sec  (  0.0%)
SOSCF solution              ....       0.001 sec  (  0.0%)
Grid generation             ....       0.381 sec  (  5.2%)

-------------------------   --------------------
FINAL SINGLE POINT ENERGY      -314.009319883752
-------------------------   --------------------


                            ***************************************
                            *     ORCA property calculations      *
                            ***************************************

                                    ---------------------
                                    Active property flags
                                    ---------------------
   (+) Dipole Moment


------------------------------------------------------------------------------
                       ORCA ELECTRIC PROPERTIES CALCULATION
------------------------------------------------------------------------------

Dipole Moment Calculation                       ... on
Quadrupole Moment Calculation                   ... off
Polarizability Calculation                      ... off
GBWName                                         ... Ar_ano-rcc-tzp_137.035989_.gbw
Electron density file                           ... Ar_ano-rcc-tzp_137.035989_.scfp
The origin for moment calculation is the CENTER OF MASS  = ( 0.000000,  0.000000  0.000000)

-------------
DIPOLE MOMENT
-------------
                                X             Y             Z
Electronic contribution:     -0.00000       0.00000      -0.00000
Nuclear contribution   :      0.00000       0.00000       0.00000
                        -----------------------------------------
Total Dipole Moment    :     -0.00000       0.00000      -0.00000
                        -----------------------------------------
Magnitude (a.u.)       :      0.00000
Magnitude (Debye)      :      0.00000



--------------------
Rotational spectrum 
--------------------
 
Rotational constants in cm-1:     0.000000     0.000000     0.000000 
Rotational constants in MHz :     0.000000     0.000000     0.000000 

 Dipole components along the rotational axes: 
x,y,z [a.u.] :    -0.000000     0.000000    -0.000000 
x,y,z [Debye]:    -0.000000     0.000000    -0.000000 

 

Timings for individual modules:

Sum of individual times         ...        8.384 sec (=   0.140 min)
GTO integral calculation        ...        0.398 sec (=   0.007 min)   4.7 %
Relativistic integrals          ...        0.374 sec (=   0.006 min)   4.5 %
SCF iterations                  ...        7.611 sec (=   0.127 min)  90.8 %
                             ****ORCA TERMINATED NORMALLY****
TOTAL RUN TIME: 0 days 0 hours 0 minutes 8 seconds 772 msec
