
                                 *****************
                                 * O   R   C   A *
                                 *****************

           --- An Ab Initio, DFT and Semiempirical electronic structure package ---

                  #######################################################
                  #                        -***-                        #
                  #          Department of theory and spectroscopy      #
                  #               Directorship: Frank Neese             #
                  #        Max Planck Institute fuer Kohlenforschung    #
                  #                Kaiser Wilhelm Platz 1               #
                  #                 D-45470 Muelheim/Ruhr               #
                  #                      Germany                        #
                  #                                                     #
                  #                  All rights reserved                #
                  #                        -***-                        #
                  #######################################################


                         Program Version 4.2.1 -  RELEASE  -


 With contributions from (in alphabetic order):
   Daniel Aravena         : Magnetic Suceptibility
   Michael Atanasov       : Ab Initio Ligand Field Theory (pilot matlab implementation)
   Alexander A. Auer      : GIAO ZORA, VPT2
   Ute Becker             : Parallelization
   Giovanni Bistoni       : ED, misc. LED, open-shell LED, HFLD
   Martin Brehm           : Molecular dynamics
   Dmytro Bykov           : SCF Hessian
   Vijay G. Chilkuri      : MRCI spin determinant printing, contributions to CSF-ICE
   Dipayan Datta          : RHF DLPNO-CCSD density
   Achintya Kumar Dutta   : EOM-CC, STEOM-CC
   Dmitry Ganyushin       : Spin-Orbit,Spin-Spin,Magnetic field MRCI
   Miquel Garcia          : C-PCM Hessian, Gaussian charge scheme
   Yang Guo               : DLPNO-NEVPT2, CIM, IAO-localization
   Andreas Hansen         : Spin unrestricted coupled pair/coupled cluster methods
   Benjamin Helmich-Paris : CASSCF linear response (MC-RPA)
   Lee Huntington         : MR-EOM, pCC
   Robert Izsak           : Overlap fitted RIJCOSX, COSX-SCS-MP3, EOM
   Christian Kollmar      : KDIIS, OOCD, Brueckner-CCSD(T), CCSD density
   Simone Kossmann        : Meta GGA functionals, TD-DFT gradient, OOMP2, MP2 Hessian
   Martin Krupicka        : AUTO-CI
   Lucas Lang             : DCDCAS
   Dagmar Lenk            : GEPOL surface, SMD
   Dimitrios Liakos       : Extrapolation schemes; Compound Job, initial MDCI parallelization
   Dimitrios Manganas     : Further ROCIS development; embedding schemes
   Dimitrios Pantazis     : SARC Basis sets
   Taras Petrenko         : DFT Hessian,TD-DFT gradient, ASA, ECA, R-Raman, ABS, FL, XAS/XES, NRVS
   Peter Pinski           : DLPNO-MP2, DLPNO-MP2 Gradient
   Christoph Reimann      : Effective Core Potentials
   Marius Retegan         : Local ZFS, SOC
   Christoph Riplinger    : Optimizer, TS searches, QM/MM, DLPNO-CCSD(T), (RO)-DLPNO pert. Triples
   Tobias Risthaus        : Range-separated hybrids, TD-DFT gradient, RPA, STAB
   Michael Roemelt        : Original ROCIS implementation
   Masaaki Saitow         : Open-shell DLPNO-CCSD energy and density
   Barbara Sandhoefer     : DKH picture change effects
   Avijit Sen             : IP-ROCIS
   Kantharuban Sivalingam : CASSCF convergence, NEVPT2, FIC-MRCI
   Bernardo de Souza      : ESD, SOC TD-DFT
   Georgi Stoychev        : AutoAux, RI-MP2 NMR
   Willem Van den Heuvel  : Paramagnetic NMR
   Boris Wezisla          : Elementary symmetry handling
   Frank Wennmohs         : Technical directorship


 We gratefully acknowledge several colleagues who have allowed us to
 interface, adapt or use parts of their codes:
   Stefan Grimme, W. Hujo, H. Kruse,             : VdW corrections, initial TS optimization,
                  C. Bannwarth                     DFT functionals, gCP, sTDA/sTD-DF
   Ed Valeev, F. Pavosevic, A. Kumar             : LibInt (2-el integral package), F12 methods
   Garnet Chan, S. Sharma, J. Yang, R. Olivares  : DMRG
   Ulf Ekstrom                                   : XCFun DFT Library
   Mihaly Kallay                                 : mrcc  (arbitrary order and MRCC methods)
   Andreas Klamt, Michael Diedenhofen            : otool_cosmo (COSMO solvation model)
   Jiri Pittner, Ondrej Demel                    : Mk-CCSD
   Frank Weinhold                                : gennbo (NPA and NBO analysis)
   Christopher J. Cramer and Donald G. Truhlar   : smd solvation model
   Lars Goerigk                                  : TD-DFT with DH, B97 family of functionals
   V. Asgeirsson, H. Jonsson                     : NEB implementation
   FAccTs GmbH                                   : IRC, NEB, NEB-TS, Multilevel, MM, QM/MM, CI optimization
   S Lehtola, MJT Oliveira, MAL Marques          : LibXC Library


 Your calculation uses the libint2 library for the computation of 2-el integrals
 For citations please refer to: http://libint.valeyev.net

 Your ORCA version has been built with support for libXC version: 4.2.3
 For citations please refer to: https://tddft.org/programs/libxc/

 This ORCA versions uses:
   CBLAS   interface :  Fast vector & matrix operations
   LAPACKE interface :  Fast linear algebra routines
   SCALAPACK package :  Parallel linear algebra routines


----- Orbital basis set information -----
Your calculation utilizes the basis: ANO-RCC-TZP
   H, He:       P.-O. Widmark, P.-A. Malmqvist, and B. O. Roos, Theor. Chim. Acta 77, 291 (1990).
   s block:     B. O. Roos, V. Veryazov and P.-O. Widmark, Theor. Chem. Acc. 111, 345 (2004).
   p block:     B. O. Roos, R. Lindh, P.-A. Malmqvist, V. Veryazov, and P.-O. Widmark, J. Phys. Chem. A 108, 2851 (2004).
   d block:     B. O. Roos, R. Lindh, P.-A. Malmqvist, V. Veryazov, and P.-O. Widmark, J. Phys. Chem. A 109, 6575 (2005).
   actinides:   B. O. Roos, R. Lindh, P.-A. Malmqvist, V. Veryazov, and P.-O. Widmark, Chem. Phys. Letters 409, 295 (2005).
   lanthanides: B. O. Roos, R. Lindh, P.-A. Malmqvist, V. Veryazov, P.-O. Widmark and A. C. Borin, J. Phys. Chem. A 112, 11431 (2008).

================================================================================
                                        WARNINGS
                       Please study these warnings very carefully!
================================================================================


INFO   : the flag for use of LIBINT has been found!

================================================================================
                                       INPUT FILE
================================================================================
NAME = Ar_ano-rcc-tzp_1096.287912_.inp
|  1> ! LDA ano-rcc-tzp nori grid5 finalgrid6 verytightscf
|  2> %Pal NProcs 18 End
|  3> 
|  4> % REL
|  5>   Method ZORA
|  6>   ModelPot 1, 0, 0, 0
|  7>   velit 1096.287912
|  8> END
|  9> 
| 10> *xyz 16 1
| 11> Ar 0.0 0.0 0.0
| 12> **                         ****END OF INPUT****
================================================================================

                       ****************************
                       * Single Point Calculation *
                       ****************************

---------------------------------
CARTESIAN COORDINATES (ANGSTROEM)
---------------------------------
  Ar     0.000000    0.000000    0.000000

----------------------------
CARTESIAN COORDINATES (A.U.)
----------------------------
  NO LB      ZA    FRAG     MASS         X           Y           Z
   0 Ar   18.0000    0    39.948    0.000000    0.000000    0.000000

--------------------------------
INTERNAL COORDINATES (ANGSTROEM)
--------------------------------
 Ar     0   0   0     0.000000000000     0.00000000     0.00000000

---------------------------
INTERNAL COORDINATES (A.U.)
---------------------------
 Ar     0   0   0     0.000000000000     0.00000000     0.00000000

---------------------
BASIS SET INFORMATION
---------------------
There are 1 groups of distinct atoms

 Group   1 Type Ar  : 85s48p10d4f contracted to 5s4p2d1f pattern {1717171717/12121212/55/4}

Atom   0Ar   basis set group =>   1


           ************************************************************
           *        Program running with 18 parallel MPI-processes    *
           *              working on a common directory               *
           ************************************************************


------------------------------------------------------------------------------
                       ORCA GTO INTEGRAL CALCULATION
                     -- ANO INTEGRAL GENERATION BRANCH --
------------------------------------------------------------------------------


Gathering ANO information                         ... done
Calculation Information:
Number of atoms                                   ... 1
Number of basis functions                         ... 34
Highest angular momentum                          ... 3
Number of primitive shells                        ... 38
Total number of shells                            ... 12
Maximum number of shells                          ... 12

Getting memory                                    ... done
Making prescreening integrals                     ... done
Gathering atom contracted prescreening            ... done
Making one-electron integrals                     ... done

Timings:

Total time                                        ...    0.2 sec
Prescreening matrix                               ...    0.1 sec
One-electron matrix                               ...    0.0 sec
Two-index integrals + Cholesky                    ...    0.0 sec


           ************************************************************
           *        Program running with 18 parallel MPI-processes    *
           *              working on a common directory               *
           ************************************************************
------------------------------------------------------------------------------
                          ORCA RELATIVISTIC HAMILTONIAN
------------------------------------------------------------------------------

Relativistic Method            ... ZORA(MP)
Treatment of potential         ... Van Wuellen
Nucleus model                  ... Point Nucleus
Speed of light used            ... 1096.28791200000001


            *************************************************
            *         ZERO ORDER REGULAR APPROXIMATION      *
            *                     ZORA(MP)                  *
            *            Programmed by FN according to      *
            *                   C. van Wuellen              *
            *       J. Chem. Phys. (1998) vol 109, 392-399  *
            *************************************************

Terms included in model potential: +V(e,N)
Basis function cutoff value   ... 1.000000e-12
Loading the fitted atomic densities  (DKH4)  ... done
Calculating the cutoffs                      ... done
Number of fit functions                      ... 15
Setting up the integration grid ... done


           ************************************************************
           *        Program running with 18 parallel MPI-processes    *
           *              working on a common directory               *
           ************************************************************
-------------------------------------------------------------------------------
                                 ORCA SCF
-------------------------------------------------------------------------------

------------
SCF SETTINGS
------------
Hamiltonian:
 Density Functional     Method          .... DFT(GTOs)
 Exchange Functional    Exchange        .... Slater
   X-Alpha parameter    XAlpha          ....  0.666667
 Correlation Functional Correlation     .... VWN-5
 Gradients option       PostSCFGGA      .... off
   Density functional embedding theory  .... OFF

Relativistic Settings:
 Scalar relativistic method             .... ZORA
 Speed of light used       Velit        ....       1096.28791
Orbital energies will be scaled


General Settings:
 Integral files         IntName         .... Ar_ano-rcc-tzp_1096.287912_
 Hartree-Fock type      HFTyp           .... RHF
 Total Charge           Charge          ....   16
 Multiplicity           Mult            ....    1
 Number of Electrons    NEL             ....    2
 Basis Dimension        Dim             ....   34
 Nuclear Repulsion      ENuc            ....      0.0000000000 Eh

Convergence Acceleration:
 DIIS                   CNVDIIS         .... on
   Start iteration      DIISMaxIt       ....    12
   Startup error        DIISStart       ....  0.200000
   # of expansion vecs  DIISMaxEq       ....     5
   Bias factor          DIISBfac        ....   1.050
   Max. coefficient     DIISMaxC        ....  10.000
 Newton-Raphson         CNVNR           .... off
 SOSCF                  CNVSOSCF        .... on
   Start iteration      SOSCFMaxIt      ....   150
   Startup grad/error   SOSCFStart      ....  0.003300
 Level Shifting         CNVShift        .... on
   Level shift para.    LevelShift      ....    0.2500
   Turn off err/grad.   ShiftErr        ....    0.0010
 Zerner damping         CNVZerner       .... off
 Static damping         CNVDamp         .... on
   Fraction old density DampFac         ....    0.7000
   Max. Damping (<1)    DampMax         ....    0.9800
   Min. Damping (>=0)   DampMin         ....    0.0000
   Turn off err/grad.   DampErr         ....    0.1000
 Fernandez-Rico         CNVRico         .... off

SCF Procedure:
 Maximum # iterations   MaxIter         ....   125
 SCF integral mode      SCFMode         .... Direct
   Integral package                     .... LIBINT
 Reset frequency        DirectResetFreq ....    20
 Integral Threshold     Thresh          ....  1.000e-12 Eh
 Primitive CutOff       TCut            ....  1.000e-14 Eh

Convergence Tolerance:
 Convergence Check Mode ConvCheckMode   .... Total+1el-Energy
 Convergence forced     ConvForced      .... 0
 Energy Change          TolE            ....  1.000e-09 Eh
 1-El. energy change                    ....  1.000e-06 Eh
 Orbital Gradient       TolG            ....  2.000e-06
 Orbital Rotation angle TolX            ....  2.000e-06
 DIIS Error             TolErr          ....  1.000e-08


Diagonalization of the overlap matrix:
Smallest eigenvalue                        ... 1.000e+00
Time for diagonalization                   ...    0.001 sec
Threshold for overlap eigenvalues          ... 1.000e-08
Number of eigenvalues below threshold      ... 0
Time for construction of square roots      ...    0.001 sec
Total time needed                          ...    0.002 sec

-------------------
DFT GRID GENERATION
-------------------

General Integration Accuracy     IntAcc      ...  5.010
Radial Grid Type                 RadialGrid  ... Gauss-Chebyshev
Angular Grid (max. acc.)         AngularGrid ... Lebedev-434
Angular grid pruning method      GridPruning ... 3 (G Style)
Weight generation scheme         WeightScheme... Becke
Basis function cutoff            BFCut       ...    1.0000e-12
Integration weight cutoff        WCut        ...    1.0000e-14
Grids for H and He will be reduced by one unit

# of grid points (after initial pruning)     ...  11992 (   0.0 sec)
# of grid points (after weights+screening)   ...  11992 (   0.0 sec)
Grid point division into batches done        ...    0.1 sec
Reduced shell lists constructed in    0.1 sec

Total number of grid points                  ...    11992
Total number of batches                      ...      188
Average number of points per batch           ...       63
Average number of grid points per atom       ...    11992
Average number of shells per batch           ...     6.67 (55.56%)
Average number of basis functions per batch  ...    16.33 (48.04%)
Average number of large shells per batch     ...     3.58 (53.75%)
Average number of large basis fcns per batch ...     9.08 (55.61%)
Maximum spatial batch extension              ...  18.71, 18.71, 18.71 au
Average spatial batch extension              ...   0.97,  0.98,  0.97 au

Time for grid setup =    0.160 sec

------------------------------
INITIAL GUESS: MODEL POTENTIAL
------------------------------
Loading ZORA relativistic densities                ... done
Calculating cut-offs                               ... done
Setting up the integral package                    ... done
Initializing the effective Hamiltonian             ... done
Starting the Coulomb interaction                   ... done (   0.0 sec)
Reading the grid                                   ... done
Mapping shells                                     ... done
Starting the XC term evaluation                    ... done (   0.0 sec)
  promolecular density results
     # of electrons  =     18.000000116
     EX              =    -28.047870263
     EC              =     -1.433252902
     EX+EC           =    -29.481123164
Transforming the Hamiltonian                       ... done (   0.0 sec)
Diagonalizing the Hamiltonian                      ... done (   0.0 sec)
Back transforming the eigenvectors                 ... done (   0.0 sec)
Now organizing SCF variables                       ... done
                      ------------------
                      INITIAL GUESS DONE (   0.2 sec)
                      ------------------
--------------
SCF ITERATIONS
--------------
ITER       Energy         Delta-E        Max-DP      RMS-DP      [F,P]     Damp
               ***  Starting incremental Fock matrix formation  ***
  0   -311.0840650937   0.000000000000 0.00521515  0.00017063  1.9370096 0.7000
                      *** Initiating the SOSCF procedure ***
                      *** Re-Reading the Fockian *** 
                      *** Removing any level shift *** 
ITER      Energy       Delta-E        Grad      Rot      Max-DP    RMS-DP
  1   -311.09069532  -0.0066302228  0.000342  0.000342  0.012166  0.000398
               *** Restarting incremental Fock matrix formation ***
  2   -311.10603744  -0.0153421225  0.005788  0.000052  0.000096  0.000003
  3   -311.10603815  -0.0000007146  0.000045  0.000000  0.000001  0.000000
                 **** Energy Check signals convergence ****
              ***Rediagonalizing the Fockian in SOSCF/NRSCF***

               *****************************************************
               *                     SUCCESS                       *
               *           SCF CONVERGED AFTER   4 CYCLES          *
               *****************************************************

Setting up the final grid:

General Integration Accuracy     IntAcc      ...  5.340
Radial Grid Type                 RadialGrid  ... Gauss-Chebyshev
Angular Grid (max. acc.)         AngularGrid ... Lebedev-590
Angular grid pruning method      GridPruning ... 3 (G Style)
Weight generation scheme         WeightScheme... Becke
Basis function cutoff            BFCut       ...    1.0000e-12
Integration weight cutoff        WCut        ...    1.0000e-14
Grids for H and He will be reduced by one unit

# of grid points (after initial pruning)     ...  18110 (   0.0 sec)
# of grid points (after weights+screening)   ...  18110 (   0.0 sec)
Grid point division into batches done        ...    0.2 sec
Reduced shell lists constructed in    0.2 sec

Total number of grid points                  ...    18110
Total number of batches                      ...      283
Average number of points per batch           ...       63
Average number of grid points per atom       ...    18110
Average number of shells per batch           ...     2.35 (19.61%)
Average number of basis functions per batch  ...     5.88 (17.30%)
Average number of large shells per batch     ...     1.18 (50.00%)
Average number of large basis fcns per batch ...     3.53 (60.00%)
Maximum spatial batch extension              ...  19.03, 19.03, 19.03 au
Average spatial batch extension              ...   0.84,  0.84,  0.80 au

Final grid set up in    0.3 sec
Final integration                            ... done (   0.0 sec)
Change in XC energy                          ...     0.000014067
Integrated number of electrons               ...     2.000000249
Previous integrated no of electrons          ...     2.000000961

----------------
TOTAL SCF ENERGY
----------------

Total Energy       :         -311.10602409 Eh           -8465.62530 eV

Components:
Nuclear Repulsion  :            0.00000000 Eh               0.00000 eV
Electronic Energy  :         -311.10602409 Eh           -8465.62530 eV
One Electron Energy:         -323.47598827 Eh           -8802.22914 eV
Two Electron Energy:           12.36996418 Eh             336.60384 eV

Virial components:
Potential Energy   :         -630.58449954 Eh          -17159.07658 eV
Kinetic Energy     :          319.47847545 Eh            8693.45128 eV
Virial Ratio       :            1.97379338


DFT components:
N(Alpha)           :        1.000000124502 electrons
N(Beta)            :        1.000000124502 electrons
N(Total)           :        2.000000249003 electrons
E(X)               :       -9.488101204213 Eh       
E(C)               :       -0.237086719164 Eh       
E(XC)              :       -9.725187923377 Eh       
DFET-embed. en.    :        0.000000000000 Eh       

---------------
SCF CONVERGENCE
---------------

  Last Energy change         ...   -4.3713e-11  Tolerance :   1.0000e-09
  Last MAX-Density change    ...    0.0000e+00  Tolerance :   1.0000e-08
  Last RMS-Density change    ...    0.0000e+00  Tolerance :   1.0000e-09
  Last Orbital Gradient      ...    1.1160e-10  Tolerance :   2.0000e-06
  Last Orbital Rotation      ...    0.0000e+00  Tolerance :   2.0000e-06

================================================================================
                                        WARNING
Number of found core electrons (2) does not match given number of chemical core electrons (10)
================================================================================
             **** THE GBW FILE WAS UPDATED (Ar_ano-rcc-tzp_1096.287912_.gbw) ****
             **** DENSITY FILE WAS UPDATED (Ar_ano-rcc-tzp_1096.287912_.scfp) ****
             **** ENERGY FILE WAS UPDATED (Ar_ano-rcc-tzp_1096.287912_.en.tmp) ****
             **** THE GBW FILE WAS UPDATED (Ar_ano-rcc-tzp_1096.287912_.gbw) ****
             **** DENSITY FILE WAS UPDATED (Ar_ano-rcc-tzp_1096.287912_.scfp) ****
----------------
ORBITAL ENERGIES
----------------

  NO   OCC          E(Eh)            E(eV) 
   0   2.0000    -146.096347     -3975.4837 
   1   0.0000     -33.851735      -921.1525 
   2   0.0000     -32.767014      -891.6358 
   3   0.0000     -32.767014      -891.6358 
   4   0.0000     -32.767014      -891.6358 
   5   0.0000     -14.282870      -388.6567 
   6   0.0000     -13.463936      -366.3723 
   7   0.0000     -13.463936      -366.3723 
   8   0.0000     -13.463936      -366.3723 
   9   0.0000     -10.759929      -292.7925 
  10   0.0000     -10.759929      -292.7925 
  11   0.0000     -10.759929      -292.7925 
  12   0.0000     -10.759929      -292.7925 
  13   0.0000     -10.759929      -292.7925 
  14   0.0000      -7.847498      -213.5413 
  15   0.0000      -7.213063      -196.2774 
  16   0.0000      -7.213063      -196.2774 
  17   0.0000      -7.213063      -196.2774 
  18   0.0000      -7.115376      -193.6192 
  19   0.0000      -7.115376      -193.6192 
  20   0.0000      -7.115376      -193.6192 
  21   0.0000      -7.115376      -193.6192 
  22   0.0000      -7.115376      -193.6192 
  23   0.0000      -7.115376      -193.6192 
  24   0.0000      -7.115376      -193.6192 
  25   0.0000      -5.645759      -153.6289 
  26   0.0000      -5.645759      -153.6289 
  27   0.0000      -5.645759      -153.6289 
  28   0.0000      -5.645759      -153.6289 
  29   0.0000      -5.645759      -153.6289 
  30   0.0000      -4.872795      -132.5955 
  31   0.0000      -4.272610      -116.2636 
  32   0.0000      -4.272609      -116.2636 
  33   0.0000      -4.272609      -116.2636 

                    ********************************
                    * MULLIKEN POPULATION ANALYSIS *
                    ********************************

-----------------------
MULLIKEN ATOMIC CHARGES
-----------------------
   0 Ar:   16.000000
Sum of atomic charges:   16.0000000

--------------------------------
MULLIKEN REDUCED ORBITAL CHARGES
--------------------------------
  0 Ars       :     2.000000  s :     2.000000
      pz      :     0.000000  p :     0.000000
      px      :     0.000000
      py      :     0.000000
      dz2     :     0.000000  d :     0.000000
      dxz     :     0.000000
      dyz     :     0.000000
      dx2y2   :     0.000000
      dxy     :     0.000000
      f0      :     0.000000  f :     0.000000
      f+1     :     0.000000
      f-1     :     0.000000
      f+2     :     0.000000
      f-2     :     0.000000
      f+3     :     0.000000
      f-3     :     0.000000


                     *******************************
                     * LOEWDIN POPULATION ANALYSIS *
                     *******************************

----------------------
LOEWDIN ATOMIC CHARGES
----------------------
   0 Ar:   16.000000

-------------------------------
LOEWDIN REDUCED ORBITAL CHARGES
-------------------------------
  0 Ars       :     2.000000  s :     2.000000
      pz      :     0.000000  p :     0.000000
      px      :     0.000000
      py      :     0.000000
      dz2     :     0.000000  d :     0.000000
      dxz     :     0.000000
      dyz     :     0.000000
      dx2y2   :     0.000000
      dxy     :     0.000000
      f0      :     0.000000  f :     0.000000
      f+1     :     0.000000
      f-1     :     0.000000
      f+2     :     0.000000
      f-2     :     0.000000
      f+3     :     0.000000
      f-3     :     0.000000


                      *****************************
                      * MAYER POPULATION ANALYSIS *
                      *****************************

  NA   - Mulliken gross atomic population
  ZA   - Total nuclear charge
  QA   - Mulliken gross atomic charge
  VA   - Mayer's total valence
  BVA  - Mayer's bonded valence
  FA   - Mayer's free valence

  ATOM       NA         ZA         QA         VA         BVA        FA
  0 Ar     2.0000    18.0000    16.0000    -0.0000     0.0000    -0.0000

  Mayer bond orders larger than 0.100000


--------------------------
ATOM BASIS FOR ELEMENT Ar
--------------------------
 NewGTO Ar
 S 85
    1     455476.770000000019         0.000319857181
    2      64817.743000000002         0.001011611084
    3      19256.987000000001         0.002170200873
    4       6877.007300000000         0.005962897446
    5       2643.487700000000         0.015907979794
    6       1054.237500000000         0.044046501793
    7        429.371220000000         0.114459211205
    8        177.188590000000         0.254626425831
    9         73.763945000000         0.398474148019
   10         30.897007000000         0.278947501476
   11         12.999482000000         0.038335002132
   12          5.487679300000         0.003118582514
   13          2.322571600000        -0.001384657796
   14          0.984980700000         0.001002731162
   15          0.418397300000        -0.000643174331
   16          0.177959400000         0.000282017514
   17          0.071183800000        -0.000076279328
   18     455476.770000000019         0.000000373860
   19      64817.743000000002         0.000001184034
   20      19256.987000000001         0.000002547176
   21       6877.007300000000         0.000007021817
   22       2643.487700000000         0.000018916602
   23       1054.237500000000         0.000053331637
   24        429.371220000000         0.000145162710
   25        177.188590000000         0.000357687662
   26         73.763945000000         0.000713724383
   27         30.897007000000         0.000758904576
   28         12.999482000000        -0.000559213287
   29          5.487679300000        -0.002592346011
   30          2.322571600000        -0.001560367911
   31          0.984980700000        -0.000020320794
   32          0.418397300000        -0.000047917464
   33          0.177959400000         0.000018200496
   34          0.071183800000        -0.000005274277
   35     455476.770000000019         0.000000019247
   36      64817.743000000002         0.000000060902
   37      19256.987000000001         0.000000131498
   38       6877.007300000000         0.000000360362
   39       2643.487700000000         0.000000980112
   40       1054.237500000000         0.000002740426
   41        429.371220000000         0.000007574831
   42        177.188590000000         0.000018637749
   43         73.763945000000         0.000038716000
   44         30.897007000000         0.000042043448
   45         12.999482000000        -0.000032456531
   46          5.487679300000        -0.000219753233
   47          2.322571600000        -0.000232680706
   48          0.984980700000         0.000228327789
   49          0.418397300000         0.000453442931
   50          0.177959400000         0.000170392904
   51          0.071183800000         0.000003022896
   52     455476.770000000019         0.000000019395
   53      64817.743000000002         0.000000061354
   54      19256.987000000001         0.000000132569
   55       6877.007300000000         0.000000363116
   56       2643.487700000000         0.000000988388
   57       1054.237500000000         0.000002766430
   58        429.371220000000         0.000007660141
   59        177.188590000000         0.000018952500
   60         73.763945000000         0.000039859894
   61         30.897007000000         0.000044308258
   62         12.999482000000        -0.000048475661
   63          5.487679300000        -0.000233518631
   64          2.322571600000        -0.000374103601
   65          0.984980700000         0.001064328368
   66          0.418397300000         0.000001497532
   67          0.177959400000        -0.000664776099
   68          0.071183800000        -0.000025755487
   69     455476.770000000019         0.000000020155
   70      64817.743000000002         0.000000060925
   71      19256.987000000001         0.000000151034
   72       6877.007300000000         0.000000314463
   73       2643.487700000000         0.000001227092
   74       1054.237500000000         0.000002227302
   75        429.371220000000         0.000009778053
   76        177.188590000000         0.000014815951
   77         73.763945000000         0.000056241349
   78         30.897007000000         0.000012142041
   79         12.999482000000         0.000015160041
   80          5.487679300000        -0.000539616294
   81          2.322571600000         0.000284508008
   82          0.984980700000         0.001152377805
   83          0.418397300000        -0.001828341651
   84          0.177959400000         0.000857709766
   85          0.071183800000         0.000101447020
 S 84
    1     455476.770000000019        -0.000001338627
    2      64817.743000000002        -0.000004233670
    3      19256.987000000001        -0.000009082457
    4       6877.007300000000        -0.000024955183
    5       2643.487700000000        -0.000066576116
    6       1054.237500000000        -0.000184337990
    7        429.371220000000        -0.000479020581
    8        177.188590000000        -0.001065631130
    9         73.763945000000        -0.001667644884
   10         30.897007000000        -0.001167416697
   11         12.999482000000        -0.000160434925
   12          5.487679300000        -0.000013051507
   13          2.322571600000         0.000005794899
   14          0.984980700000        -0.000004196507
   15          0.418397300000         0.000002691734
   16          0.177959400000        -0.000001180265
   17     455476.770000000019         0.000090486486
   18      64817.743000000002         0.000286575141
   19      19256.987000000001         0.000616500358
   20       6877.007300000000         0.001699510802
   21       2643.487700000000         0.004578440243
   22       1054.237500000000         0.012908011474
   23        429.371220000000         0.035134153853
   24        177.188590000000         0.086572187153
   25         73.763945000000         0.172744792388
   26         30.897007000000         0.183679886060
   27         12.999482000000        -0.135348021618
   28          5.487679300000        -0.627433059721
   29          2.322571600000        -0.377660392700
   30          0.984980700000        -0.004918300883
   31          0.418397300000        -0.011597603438
   32          0.177959400000         0.004405119028
   33          0.071183800000        -0.001276548512
   34     455476.770000000019         0.000002790557
   35      64817.743000000002         0.000008830169
   36      19256.987000000001         0.000019065751
   37       6877.007300000000         0.000052248382
   38       2643.487700000000         0.000142105097
   39       1054.237500000000         0.000397330561
   40        429.371220000000         0.001098264287
   41        177.188590000000         0.002702261327
   42         73.763945000000         0.005613379116
   43         30.897007000000         0.006095821189
   44         12.999482000000        -0.004705827358
   45          5.487679300000        -0.031861716526
   46          2.322571600000        -0.033736053020
   47          0.984980700000         0.033104929556
   48          0.418397300000         0.065744061926
   49          0.177959400000         0.024705030887
   50          0.071183800000         0.000438285439
   51     455476.770000000019         0.000002940555
   52      64817.743000000002         0.000009302282
   53      19256.987000000001         0.000020099819
   54       6877.007300000000         0.000055054864
   55       2643.487700000000         0.000149857171
   56       1054.237500000000         0.000419439873
   57        429.371220000000         0.001161413102
   58        177.188590000000         0.002873535050
   59         73.763945000000         0.006043466628
   60         30.897007000000         0.006717917352
   61         12.999482000000        -0.007349769655
   62          5.487679300000        -0.035405564373
   63          2.322571600000        -0.056720738144
   64          0.984980700000         0.161371049366
   65          0.418397300000         0.000227052326
   66          0.177959400000        -0.100791841993
   67          0.071183800000        -0.003904988389
   68     455476.770000000019         0.000003527201
   69      64817.743000000002         0.000010662377
   70      19256.987000000001         0.000026432079
   71       6877.007300000000         0.000055033560
   72       2643.487700000000         0.000214750738
   73       1054.237500000000         0.000389795276
   74        429.371220000000         0.001711236143
   75        177.188590000000         0.002592907803
   76         73.763945000000         0.009842678065
   77         30.897007000000         0.002124952532
   78         12.999482000000         0.002653126385
   79          5.487679300000        -0.094437092206
   80          2.322571600000         0.049791137307
   81          0.984980700000         0.201675172098
   82          0.418397300000        -0.319974157419
   83          0.177959400000         0.150105949543
   84          0.071183800000         0.017754025751
 S 82
    1     455476.770000000019         0.000000114340
    2      64817.743000000002         0.000000361624
    3      19256.987000000001         0.000000775789
    4       6877.007300000000         0.000002131578
    5       2643.487700000000         0.000005686682
    6       1054.237500000000         0.000015745459
    7        429.371220000000         0.000040916140
    8        177.188590000000         0.000091022210
    9         73.763945000000         0.000142443965
   10         30.897007000000         0.000099716351
   11         12.999482000000         0.000013703749
   12          5.487679300000         0.000001114811
   13          2.322571600000        -0.000000494979
   14          0.984980700000         0.000000358450
   15     455476.770000000019         0.000013417789
   16      64817.743000000002         0.000042494795
   17      19256.987000000001         0.000091417757
   18       6877.007300000000         0.000252011962
   19       2643.487700000000         0.000678914019
   20       1054.237500000000         0.001914064503
   21        429.371220000000         0.005209868064
   22        177.188590000000         0.012837356919
   23         73.763945000000         0.025615461833
   24         30.897007000000         0.027236972217
   25         12.999482000000        -0.020070081616
   26          5.487679300000        -0.093038912329
   27          2.322571600000        -0.056001371975
   28          0.984980700000        -0.000729310255
   29          0.418397300000        -0.001719750646
   30          0.177959400000         0.000653213083
   31          0.071183800000        -0.000189292998
   32     455476.770000000019        -0.000022209016
   33      64817.743000000002        -0.000070276056
   34      19256.987000000001        -0.000151737282
   35       6877.007300000000        -0.000415825605
   36       2643.487700000000        -0.001130962065
   37       1054.237500000000        -0.003162207423
   38        429.371220000000        -0.008740680499
   39        177.188590000000        -0.021506301500
   40         73.763945000000        -0.044674814561
   41         30.897007000000        -0.048514393130
   42         12.999482000000         0.037451944766
   43          5.487679300000         0.253575653458
   44          2.322571600000         0.268492806491
   45          0.984980700000        -0.263469927556
   46          0.418397300000        -0.523232747061
   47          0.177959400000        -0.196618231345
   48          0.071183800000        -0.003488152196
   49     455476.770000000019        -0.000018180000
   50      64817.743000000002        -0.000057511422
   51      19256.987000000001        -0.000124267273
   52       6877.007300000000        -0.000340377092
   53       2643.487700000000        -0.000926493036
   54       1054.237500000000        -0.002593190025
   55        429.371220000000        -0.007180444835
   56        177.188590000000        -0.017765651065
   57         73.763945000000        -0.037363775794
   58         30.897007000000        -0.041533572231
   59         12.999482000000         0.045440003631
   60          5.487679300000         0.218895155788
   61          2.322571600000         0.350676370568
   62          0.984980700000        -0.997677670609
   63          0.418397300000        -0.001403752637
   64          0.177959400000         0.623146286346
   65          0.071183800000         0.024142618732
   66     455476.770000000019        -0.000014842206
   67      64817.743000000002        -0.000044866517
   68      19256.987000000001        -0.000111224289
   69       6877.007300000000        -0.000231577264
   70       2643.487700000000        -0.000903655674
   71       1054.237500000000        -0.001640230511
   72        429.371220000000        -0.007200758716
   73        177.188590000000        -0.010910769699
   74         73.763945000000        -0.041417281971
   75         30.897007000000        -0.008941647549
   76         12.999482000000        -0.011164165168
   77          5.487679300000         0.397384497463
   78          2.322571600000        -0.209517527646
   79          0.984980700000        -0.848634631193
   80          0.418397300000         1.346428260094
   81          0.177959400000        -0.631635048604
   82          0.071183800000        -0.074707664501
 S 80
    1     455476.770000000019         0.000000005887
    2      64817.743000000002         0.000000018619
    3      19256.987000000001         0.000000039943
    4       6877.007300000000         0.000000109749
    5       2643.487700000000         0.000000292790
    6       1054.237500000000         0.000000810687
    7        429.371220000000         0.000002106650
    8        177.188590000000         0.000004686463
    9         73.763945000000         0.000007334016
   10         30.897007000000         0.000005134098
   11         12.999482000000         0.000000705565
   12          5.487679300000         0.000000057398
   13     455476.770000000019         0.000002812611
   14      64817.743000000002         0.000008907676
   15      19256.987000000001         0.000019162811
   16       6877.007300000000         0.000052826253
   17       2643.487700000000         0.000142312624
   18       1054.237500000000         0.000401222445
   19        429.371220000000         0.001092082319
   20        177.188590000000         0.002690941563
   21         73.763945000000         0.005369462837
   22         30.897007000000         0.005709360661
   23         12.999482000000        -0.004207051119
   24          5.487679300000        -0.019502634205
   25          2.322571600000        -0.011738897685
   26          0.984980700000        -0.000152876584
   27          0.418397300000        -0.000360490755
   28          0.177959400000         0.000136925244
   29          0.071183800000        -0.000039679227
   30     455476.770000000019         0.000017930546
   31      64817.743000000002         0.000056737679
   32      19256.987000000001         0.000122505754
   33       6877.007300000000         0.000335718609
   34       2643.487700000000         0.000913087136
   35       1054.237500000000         0.002553021899
   36        429.371220000000         0.007056826368
   37        177.188590000000         0.017363205934
   38         73.763945000000         0.036068405592
   39         30.897007000000         0.039168306028
   40         12.999482000000        -0.030236990289
   41          5.487679300000        -0.204725405289
   42          2.322571600000        -0.216768833586
   43          0.984980700000         0.212713590460
   44          0.418397300000         0.422434231132
   45          0.177959400000         0.158740583137
   46          0.071183800000         0.002816174827
   47     455476.770000000019        -0.000018509544
   48      64817.743000000002        -0.000058553917
   49      19256.987000000001        -0.000126519833
   50       6877.007300000000        -0.000346547018
   51       2643.487700000000        -0.000943287332
   52       1054.237500000000        -0.002640196101
   53        429.371220000000        -0.007310602877
   54        177.188590000000        -0.018087684366
   55         73.763945000000        -0.038041059165
   56         30.897007000000        -0.042286440409
   57         12.999482000000         0.046263682667
   58          5.487679300000         0.222863010907
   59          2.322571600000         0.357032989229
   60          0.984980700000        -1.015762312263
   61          0.418397300000        -0.001429198094
   62          0.177959400000         0.634441895758
   63          0.071183800000         0.024580245654
   64     455476.770000000019        -0.000025954488
   65      64817.743000000002        -0.000078457842
   66      19256.987000000001        -0.000194497330
   67       6877.007300000000        -0.000404957944
   68       2643.487700000000        -0.001580217923
   69       1054.237500000000        -0.002868262466
   70        429.371220000000        -0.012591928883
   71        177.188590000000        -0.019079605572
   72         73.763945000000        -0.072426183089
   73         30.897007000000        -0.015636212027
   74         12.999482000000        -0.019522716896
   75          5.487679300000         0.694904180094
   76          2.322571600000        -0.366382198333
   77          0.984980700000        -1.484002914943
   78          0.418397300000         2.354492014935
   79          0.177959400000        -1.104536886493
   80          0.071183800000        -0.130640899879
 S 79
    1     455476.770000000019        -0.000000003612
    2      64817.743000000002        -0.000000011424
    3      19256.987000000001        -0.000000024507
    4       6877.007300000000        -0.000000067337
    5       2643.487700000000        -0.000000179643
    6       1054.237500000000        -0.000000497401
    7        429.371220000000        -0.000001292545
    8        177.188590000000        -0.000002875402
    9         73.763945000000        -0.000004499820
   10         30.897007000000        -0.000003150050
   11         12.999482000000        -0.000000432903
   12     455476.770000000019         0.000001359761
   13      64817.743000000002         0.000004306429
   14      19256.987000000001         0.000009264289
   15       6877.007300000000         0.000025538929
   16       2643.487700000000         0.000068801245
   17       1054.237500000000         0.000193971574
   18        429.371220000000         0.000527968783
   19        177.188590000000         0.001300939606
   20         73.763945000000         0.002595874606
   21         30.897007000000         0.002760198703
   22         12.999482000000        -0.002033904973
   23          5.487679300000        -0.009428576828
   24          2.322571600000        -0.005675187133
   25          0.984980700000        -0.000073908407
   26          0.418397300000        -0.000174279779
   27          0.177959400000         0.000066196708
   28          0.071183800000        -0.000019182980
   29     455476.770000000019        -0.000003640833
   30      64817.743000000002        -0.000011520698
   31      19256.987000000001        -0.000024875035
   32       6877.007300000000        -0.000068168326
   33       2643.487700000000        -0.000185404145
   34       1054.237500000000        -0.000518396134
   35        429.371220000000        -0.001432902518
   36        177.188590000000        -0.003525633225
   37         73.763945000000        -0.007323760924
   38         30.897007000000        -0.007953201825
   39         12.999482000000         0.006139680541
   40          5.487679300000         0.041569897502
   41          2.322571600000         0.044015339381
   42          0.984980700000        -0.043191914263
   43          0.418397300000        -0.085776104166
   44          0.177959400000        -0.032232588628
   45          0.071183800000        -0.000571829855
   46     455476.770000000019         0.000021994926
   47      64817.743000000002         0.000069579731
   48      19256.987000000001         0.000150343760
   49       6877.007300000000         0.000411802484
   50       2643.487700000000         0.001120910140
   51       1054.237500000000         0.003137350074
   52        429.371220000000         0.008687203373
   53        177.188590000000         0.021493629907
   54         73.763945000000         0.045204263323
   55         30.897007000000         0.050249057971
   56         12.999482000000        -0.054975222548
   57          5.487679300000        -0.264828541873
   58          2.322571600000        -0.424262983585
   59          0.984980700000         1.207032297336
   60          0.418397300000         0.001698318827
   61          0.177959400000        -0.753908517493
   62          0.071183800000        -0.029208752897
   63     455476.770000000019        -0.000034581128
   64      64817.743000000002        -0.000104535318
   65      19256.987000000001        -0.000259143507
   66       6877.007300000000        -0.000539556104
   67       2643.487700000000        -0.002105443886
   68       1054.237500000000        -0.003821603074
   69        429.371220000000        -0.016777179458
   70        177.188590000000        -0.025421201916
   71         73.763945000000        -0.096498882926
   72         30.897007000000        -0.020833308197
   73         12.999482000000        -0.026011592656
   74          5.487679300000         0.925873410135
   75          2.322571600000        -0.488158720440
   76          0.984980700000        -1.977249351591
   77          0.418397300000         3.137067833883
   78          0.177959400000        -1.471658054466
   79          0.071183800000        -0.174062754174
 P 48
    1       1462.496200000000         0.000947123386
    2        354.067310000000         0.006111855288
    3        126.697790000000         0.025364598268
    4         49.989095000000         0.091562515009
    5         20.509295000000         0.240196247627
    6          8.580464100000         0.409937461799
    7          3.630104900000         0.338869322552
    8          1.546528000000         0.071805845547
    9          0.661936900000         0.003460266286
   10          0.284242800000         0.000285922369
   11          0.122346300000         0.000468780728
   12          0.048938500000        -0.000084156796
   13       1462.496200000000         0.000028293879
   14        354.067310000000         0.000183335345
   15        126.697790000000         0.000767270013
   16         49.989095000000         0.002829219569
   17         20.509295000000         0.007667051005
   18          8.580464100000         0.013749884986
   19          3.630104900000         0.011365631375
   20          1.546528000000        -0.016689238393
   21          0.661936900000        -0.046067706753
   22          0.284242800000        -0.042258319127
   23          0.122346300000        -0.015115751937
   24          0.048938500000        -0.000697035247
   25       1462.496200000000         0.000033126157
   26        354.067310000000         0.000201490616
   27        126.697790000000         0.000917084765
   28         49.989095000000         0.003120665778
   29         20.509295000000         0.009470990590
   30          8.580464100000         0.014161746308
   31          3.630104900000         0.017281470564
   32          1.546528000000        -0.044323011528
   33          0.661936900000        -0.072434873150
   34          0.284242800000         0.050255579242
   35          0.122346300000         0.059535734319
   36          0.048938500000         0.006127748256
   37       1462.496200000000         0.000050130914
   38        354.067310000000         0.000293570298
   39        126.697790000000         0.001420194526
   40         49.989095000000         0.004616774339
   41         20.509295000000         0.015562220897
   42          8.580464100000         0.018362946894
   43          3.630104900000         0.025011171867
   44          1.546528000000        -0.147686549082
   45          0.661936900000         0.071865387200
   46          0.284242800000         0.110045870195
   47          0.122346300000        -0.108965266611
   48          0.048938500000        -0.011642100833
 P 48
    1       1462.496200000000        -0.000164400306
    2        354.067310000000        -0.001060886989
    3        126.697790000000        -0.004402750231
    4         49.989095000000        -0.015893288744
    5         20.509295000000        -0.041692916782
    6          8.580464100000        -0.071156350899
    7          3.630104900000        -0.058820446218
    8          1.546528000000        -0.012463954672
    9          0.661936900000        -0.000600628010
   10          0.284242800000        -0.000049629991
   11          0.122346300000        -0.000081370280
   12          0.048938500000         0.000014607815
   13       1462.496200000000         0.000190960909
   14        354.067310000000         0.001237365995
   15        126.697790000000         0.005178454946
   16         49.989095000000         0.019094954604
   17         20.509295000000         0.051746422403
   18          8.580464100000         0.092800655171
   19          3.630104900000         0.076708862587
   20          1.546528000000        -0.112638924522
   21          0.661936900000        -0.310919936656
   22          0.284242800000        -0.285209636685
   23          0.122346300000        -0.102019157584
   24          0.048938500000        -0.004704426811
   25       1462.496200000000         0.000189143154
   26        354.067310000000         0.001150467608
   27        126.697790000000         0.005236354611
   28         49.989095000000         0.017818323080
   29         20.509295000000         0.054077297037
   30          8.580464100000         0.080860492298
   31          3.630104900000         0.098673439493
   32          1.546528000000        -0.253074758889
   33          0.661936900000        -0.413587376523
   34          0.284242800000         0.286948430646
   35          0.122346300000         0.339936098397
   36          0.048938500000         0.034988110217
   37       1462.496200000000         0.000208576337
   38        354.067310000000         0.001221438283
   39        126.697790000000         0.005908908272
   40         49.989095000000         0.019208703867
   41         20.509295000000         0.064748690491
   42          8.580464100000         0.076401483621
   43          3.630104900000         0.104062308124
   44          1.546528000000        -0.614469536180
   45          0.661936900000         0.299005504664
   46          0.284242800000         0.457860483823
   47          0.122346300000        -0.453364488847
   48          0.048938500000        -0.048438509420
 P 47
    1       1462.496200000000        -0.000028391212
    2        354.067310000000        -0.000183210530
    3        126.697790000000        -0.000760335656
    4         49.989095000000        -0.002744701264
    5         20.509295000000        -0.007200183879
    6          8.580464100000        -0.012288389735
    7          3.630104900000        -0.010158033097
    8          1.546528000000        -0.002152470310
    9          0.661936900000        -0.000103725823
   10          0.284242800000        -0.000008570882
   11          0.122346300000        -0.000014052290
   12       1462.496200000000        -0.000188000207
   13        354.067310000000        -0.001218181588
   14        126.697790000000        -0.005098166989
   15         49.989095000000        -0.018798902034
   16         20.509295000000        -0.050944133964
   17          8.580464100000        -0.091361852461
   18          3.630104900000        -0.075519550732
   19          1.546528000000         0.110892544720
   20          0.661936900000         0.306099362420
   21          0.284242800000         0.280787680855
   22          0.122346300000         0.100437429092
   23          0.048938500000         0.004631488295
   24       1462.496200000000         0.000121070123
   25        354.067310000000         0.000736411824
   26        126.697790000000         0.003351779246
   27         49.989095000000         0.011405470012
   28         20.509295000000         0.034614760713
   29          8.580464100000         0.051758625992
   30          3.630104900000         0.063160654912
   31          1.546528000000        -0.161992605055
   32          0.661936900000        -0.264736383964
   33          0.284242800000         0.183675068983
   34          0.122346300000         0.217592360349
   35          0.048938500000         0.022395813572
   36       1462.496200000000         0.000318957474
   37        354.067310000000         0.001867838290
   38        126.697790000000         0.009035974454
   39         49.989095000000         0.029374183766
   40         20.509295000000         0.099014485635
   41          8.580464100000         0.116834078729
   42          3.630104900000         0.159133348253
   43          1.546528000000        -0.939654294190
   44          0.661936900000         0.457242857295
   45          0.284242800000         0.700165825045
   46          0.122346300000        -0.693290494802
   47          0.048938500000        -0.074072758210
 P 47
    1       1462.496200000000        -0.000012797165
    2        354.067310000000        -0.000082581023
    3        126.697790000000        -0.000342716636
    4         49.989095000000        -0.001237157270
    5         20.509295000000        -0.003245438746
    6          8.580464100000        -0.005538916345
    7          3.630104900000        -0.004578671150
    8          1.546528000000        -0.000970212797
    9          0.661936900000        -0.000046753779
   10          0.284242800000        -0.000003863272
   11          0.122346300000        -0.000006333984
   12       1462.496200000000         0.000057928364
   13        354.067310000000         0.000375357389
   14        126.697790000000         0.001570894412
   15         49.989095000000         0.005792491736
   16         20.509295000000         0.015697378201
   17          8.580464100000         0.028151259815
   18          3.630104900000         0.023269783137
   19          1.546528000000        -0.034169237530
   20          0.661936900000        -0.094318169439
   21          0.284242800000        -0.086518899778
   22          0.122346300000        -0.030947710509
   23          0.048938500000        -0.001427097052
   24       1462.496200000000        -0.000246770421
   25        354.067310000000        -0.001500986787
   26        126.697790000000        -0.006831743049
   27         49.989095000000        -0.023247127799
   28         20.509295000000        -0.070553319165
   29          8.580464100000        -0.105496695166
   30          3.630104900000        -0.128736809180
   31          1.546528000000         0.330180412388
   32          0.661936900000         0.539597276071
   33          0.284242800000        -0.374374558650
   34          0.122346300000        -0.443506265290
   35          0.048938500000        -0.045648126707
   36       1462.496200000000         0.000323084306
   37        354.067310000000         0.001892005324
   38        126.697790000000         0.009152886450
   39         49.989095000000         0.029754241774
   40         20.509295000000         0.100295584998
   41          8.580464100000         0.118345736977
   42          3.630104900000         0.161192295787
   43          1.546528000000        -0.951812015457
   44          0.661936900000         0.463158896039
   45          0.284242800000         0.709224923688
   46          0.122346300000        -0.702260636954
   47          0.048938500000        -0.075031148922
 D 10
    1          4.328841700000         0.023696691361
    2          1.774230200000         0.164645256783
    3          0.727190600000         0.511792759851
    4          0.298048200000         0.259266547308
    5          0.119219300000         0.024473751307
    6          4.328841700000        -0.069706890079
    7          1.774230200000         0.386958652016
    8          0.727190600000         0.171178925639
    9          0.298048200000        -0.503795799854
   10          0.119219300000        -0.036194756749
 D 10
    1          4.328841700000        -0.014700463490
    2          1.774230200000        -0.102139220588
    3          0.727190600000        -0.317495411742
    4          0.298048200000        -0.160838420638
    5          0.119219300000        -0.015182519874
    6          4.328841700000        -0.112365346558
    7          1.774230200000         0.623765355018
    8          0.727190600000         0.275935123213
    9          0.298048200000        -0.812103216495
   10          0.119219300000        -0.058344826187
 F 4
    1          1.631174000000         0.245409970118
    2          0.820328800000         0.580760500278
    3          0.412549100000         0.264213740127
    4          0.165019600000         0.038934170019
 end
  // -----------------------------------------------
  // The basis set
  // -----------------------------------------------
  BAS[ATNO] = new BFNGauss[NSH];
  // Basis function   1 L = s
  InitBFNGauss(BAS[ATNO][  0]);
  BAS[ATNO][  0].l  = 0;
  BAS[ATNO][  0].ng = 85;
  BAS[ATNO][  0].a[  0] =    455476.770000000019;     BAS[ATNO][  0].d[  0] =         0.000319857181;
  BAS[ATNO][  0].a[  1] =     64817.743000000002;     BAS[ATNO][  0].d[  1] =         0.001011611084;
  BAS[ATNO][  0].a[  2] =     19256.987000000001;     BAS[ATNO][  0].d[  2] =         0.002170200873;
  BAS[ATNO][  0].a[  3] =      6877.007300000000;     BAS[ATNO][  0].d[  3] =         0.005962897446;
  BAS[ATNO][  0].a[  4] =      2643.487700000000;     BAS[ATNO][  0].d[  4] =         0.015907979794;
  BAS[ATNO][  0].a[  5] =      1054.237500000000;     BAS[ATNO][  0].d[  5] =         0.044046501793;
  BAS[ATNO][  0].a[  6] =       429.371220000000;     BAS[ATNO][  0].d[  6] =         0.114459211205;
  BAS[ATNO][  0].a[  7] =       177.188590000000;     BAS[ATNO][  0].d[  7] =         0.254626425831;
  BAS[ATNO][  0].a[  8] =        73.763945000000;     BAS[ATNO][  0].d[  8] =         0.398474148019;
  BAS[ATNO][  0].a[  9] =        30.897007000000;     BAS[ATNO][  0].d[  9] =         0.278947501476;
  BAS[ATNO][  0].a[ 10] =        12.999482000000;     BAS[ATNO][  0].d[ 10] =         0.038335002132;
  BAS[ATNO][  0].a[ 11] =         5.487679300000;     BAS[ATNO][  0].d[ 11] =         0.003118582514;
  BAS[ATNO][  0].a[ 12] =         2.322571600000;     BAS[ATNO][  0].d[ 12] =        -0.001384657796;
  BAS[ATNO][  0].a[ 13] =         0.984980700000;     BAS[ATNO][  0].d[ 13] =         0.001002731162;
  BAS[ATNO][  0].a[ 14] =         0.418397300000;     BAS[ATNO][  0].d[ 14] =        -0.000643174331;
  BAS[ATNO][  0].a[ 15] =         0.177959400000;     BAS[ATNO][  0].d[ 15] =         0.000282017514;
  BAS[ATNO][  0].a[ 16] =         0.071183800000;     BAS[ATNO][  0].d[ 16] =        -0.000076279328;
  BAS[ATNO][  0].a[ 17] =    455476.770000000019;     BAS[ATNO][  0].d[ 17] =         0.000000373860;
  BAS[ATNO][  0].a[ 18] =     64817.743000000002;     BAS[ATNO][  0].d[ 18] =         0.000001184034;
  BAS[ATNO][  0].a[ 19] =     19256.987000000001;     BAS[ATNO][  0].d[ 19] =         0.000002547176;
  BAS[ATNO][  0].a[ 20] =      6877.007300000000;     BAS[ATNO][  0].d[ 20] =         0.000007021817;
  BAS[ATNO][  0].a[ 21] =      2643.487700000000;     BAS[ATNO][  0].d[ 21] =         0.000018916602;
  BAS[ATNO][  0].a[ 22] =      1054.237500000000;     BAS[ATNO][  0].d[ 22] =         0.000053331637;
  BAS[ATNO][  0].a[ 23] =       429.371220000000;     BAS[ATNO][  0].d[ 23] =         0.000145162710;
  BAS[ATNO][  0].a[ 24] =       177.188590000000;     BAS[ATNO][  0].d[ 24] =         0.000357687662;
  BAS[ATNO][  0].a[ 25] =        73.763945000000;     BAS[ATNO][  0].d[ 25] =         0.000713724383;
  BAS[ATNO][  0].a[ 26] =        30.897007000000;     BAS[ATNO][  0].d[ 26] =         0.000758904576;
  BAS[ATNO][  0].a[ 27] =        12.999482000000;     BAS[ATNO][  0].d[ 27] =        -0.000559213287;
  BAS[ATNO][  0].a[ 28] =         5.487679300000;     BAS[ATNO][  0].d[ 28] =        -0.002592346011;
  BAS[ATNO][  0].a[ 29] =         2.322571600000;     BAS[ATNO][  0].d[ 29] =        -0.001560367911;
  BAS[ATNO][  0].a[ 30] =         0.984980700000;     BAS[ATNO][  0].d[ 30] =        -0.000020320794;
  BAS[ATNO][  0].a[ 31] =         0.418397300000;     BAS[ATNO][  0].d[ 31] =        -0.000047917464;
  BAS[ATNO][  0].a[ 32] =         0.177959400000;     BAS[ATNO][  0].d[ 32] =         0.000018200496;
  BAS[ATNO][  0].a[ 33] =         0.071183800000;     BAS[ATNO][  0].d[ 33] =        -0.000005274277;
  BAS[ATNO][  0].a[ 34] =    455476.770000000019;     BAS[ATNO][  0].d[ 34] =         0.000000019247;
  BAS[ATNO][  0].a[ 35] =     64817.743000000002;     BAS[ATNO][  0].d[ 35] =         0.000000060902;
  BAS[ATNO][  0].a[ 36] =     19256.987000000001;     BAS[ATNO][  0].d[ 36] =         0.000000131498;
  BAS[ATNO][  0].a[ 37] =      6877.007300000000;     BAS[ATNO][  0].d[ 37] =         0.000000360362;
  BAS[ATNO][  0].a[ 38] =      2643.487700000000;     BAS[ATNO][  0].d[ 38] =         0.000000980112;
  BAS[ATNO][  0].a[ 39] =      1054.237500000000;     BAS[ATNO][  0].d[ 39] =         0.000002740426;
  BAS[ATNO][  0].a[ 40] =       429.371220000000;     BAS[ATNO][  0].d[ 40] =         0.000007574831;
  BAS[ATNO][  0].a[ 41] =       177.188590000000;     BAS[ATNO][  0].d[ 41] =         0.000018637749;
  BAS[ATNO][  0].a[ 42] =        73.763945000000;     BAS[ATNO][  0].d[ 42] =         0.000038716000;
  BAS[ATNO][  0].a[ 43] =        30.897007000000;     BAS[ATNO][  0].d[ 43] =         0.000042043448;
  BAS[ATNO][  0].a[ 44] =        12.999482000000;     BAS[ATNO][  0].d[ 44] =        -0.000032456531;
  BAS[ATNO][  0].a[ 45] =         5.487679300000;     BAS[ATNO][  0].d[ 45] =        -0.000219753233;
  BAS[ATNO][  0].a[ 46] =         2.322571600000;     BAS[ATNO][  0].d[ 46] =        -0.000232680706;
  BAS[ATNO][  0].a[ 47] =         0.984980700000;     BAS[ATNO][  0].d[ 47] =         0.000228327789;
  BAS[ATNO][  0].a[ 48] =         0.418397300000;     BAS[ATNO][  0].d[ 48] =         0.000453442931;
  BAS[ATNO][  0].a[ 49] =         0.177959400000;     BAS[ATNO][  0].d[ 49] =         0.000170392904;
  BAS[ATNO][  0].a[ 50] =         0.071183800000;     BAS[ATNO][  0].d[ 50] =         0.000003022896;
  BAS[ATNO][  0].a[ 51] =    455476.770000000019;     BAS[ATNO][  0].d[ 51] =         0.000000019395;
  BAS[ATNO][  0].a[ 52] =     64817.743000000002;     BAS[ATNO][  0].d[ 52] =         0.000000061354;
  BAS[ATNO][  0].a[ 53] =     19256.987000000001;     BAS[ATNO][  0].d[ 53] =         0.000000132569;
  BAS[ATNO][  0].a[ 54] =      6877.007300000000;     BAS[ATNO][  0].d[ 54] =         0.000000363116;
  BAS[ATNO][  0].a[ 55] =      2643.487700000000;     BAS[ATNO][  0].d[ 55] =         0.000000988388;
  BAS[ATNO][  0].a[ 56] =      1054.237500000000;     BAS[ATNO][  0].d[ 56] =         0.000002766430;
  BAS[ATNO][  0].a[ 57] =       429.371220000000;     BAS[ATNO][  0].d[ 57] =         0.000007660141;
  BAS[ATNO][  0].a[ 58] =       177.188590000000;     BAS[ATNO][  0].d[ 58] =         0.000018952500;
  BAS[ATNO][  0].a[ 59] =        73.763945000000;     BAS[ATNO][  0].d[ 59] =         0.000039859894;
  BAS[ATNO][  0].a[ 60] =        30.897007000000;     BAS[ATNO][  0].d[ 60] =         0.000044308258;
  BAS[ATNO][  0].a[ 61] =        12.999482000000;     BAS[ATNO][  0].d[ 61] =        -0.000048475661;
  BAS[ATNO][  0].a[ 62] =         5.487679300000;     BAS[ATNO][  0].d[ 62] =        -0.000233518631;
  BAS[ATNO][  0].a[ 63] =         2.322571600000;     BAS[ATNO][  0].d[ 63] =        -0.000374103601;
  BAS[ATNO][  0].a[ 64] =         0.984980700000;     BAS[ATNO][  0].d[ 64] =         0.001064328368;
  BAS[ATNO][  0].a[ 65] =         0.418397300000;     BAS[ATNO][  0].d[ 65] =         0.000001497532;
  BAS[ATNO][  0].a[ 66] =         0.177959400000;     BAS[ATNO][  0].d[ 66] =        -0.000664776099;
  BAS[ATNO][  0].a[ 67] =         0.071183800000;     BAS[ATNO][  0].d[ 67] =        -0.000025755487;
  BAS[ATNO][  0].a[ 68] =    455476.770000000019;     BAS[ATNO][  0].d[ 68] =         0.000000020155;
  BAS[ATNO][  0].a[ 69] =     64817.743000000002;     BAS[ATNO][  0].d[ 69] =         0.000000060925;
  BAS[ATNO][  0].a[ 70] =     19256.987000000001;     BAS[ATNO][  0].d[ 70] =         0.000000151034;
  BAS[ATNO][  0].a[ 71] =      6877.007300000000;     BAS[ATNO][  0].d[ 71] =         0.000000314463;
  BAS[ATNO][  0].a[ 72] =      2643.487700000000;     BAS[ATNO][  0].d[ 72] =         0.000001227092;
  BAS[ATNO][  0].a[ 73] =      1054.237500000000;     BAS[ATNO][  0].d[ 73] =         0.000002227302;
  BAS[ATNO][  0].a[ 74] =       429.371220000000;     BAS[ATNO][  0].d[ 74] =         0.000009778053;
  BAS[ATNO][  0].a[ 75] =       177.188590000000;     BAS[ATNO][  0].d[ 75] =         0.000014815951;
  BAS[ATNO][  0].a[ 76] =        73.763945000000;     BAS[ATNO][  0].d[ 76] =         0.000056241349;
  BAS[ATNO][  0].a[ 77] =        30.897007000000;     BAS[ATNO][  0].d[ 77] =         0.000012142041;
  BAS[ATNO][  0].a[ 78] =        12.999482000000;     BAS[ATNO][  0].d[ 78] =         0.000015160041;
  BAS[ATNO][  0].a[ 79] =         5.487679300000;     BAS[ATNO][  0].d[ 79] =        -0.000539616294;
  BAS[ATNO][  0].a[ 80] =         2.322571600000;     BAS[ATNO][  0].d[ 80] =         0.000284508008;
  BAS[ATNO][  0].a[ 81] =         0.984980700000;     BAS[ATNO][  0].d[ 81] =         0.001152377805;
  BAS[ATNO][  0].a[ 82] =         0.418397300000;     BAS[ATNO][  0].d[ 82] =        -0.001828341651;
  BAS[ATNO][  0].a[ 83] =         0.177959400000;     BAS[ATNO][  0].d[ 83] =         0.000857709766;
  BAS[ATNO][  0].a[ 84] =         0.071183800000;     BAS[ATNO][  0].d[ 84] =         0.000101447020;

  // Basis function   2 L = s
  InitBFNGauss(BAS[ATNO][  1]);
  BAS[ATNO][  1].l  = 0;
  BAS[ATNO][  1].ng = 84;
  BAS[ATNO][  1].a[  0] =    455476.770000000019;     BAS[ATNO][  1].d[  0] =         0.000001338627;
  BAS[ATNO][  1].a[  1] =     64817.743000000002;     BAS[ATNO][  1].d[  1] =         0.000004233670;
  BAS[ATNO][  1].a[  2] =     19256.987000000001;     BAS[ATNO][  1].d[  2] =         0.000009082457;
  BAS[ATNO][  1].a[  3] =      6877.007300000000;     BAS[ATNO][  1].d[  3] =         0.000024955183;
  BAS[ATNO][  1].a[  4] =      2643.487700000000;     BAS[ATNO][  1].d[  4] =         0.000066576116;
  BAS[ATNO][  1].a[  5] =      1054.237500000000;     BAS[ATNO][  1].d[  5] =         0.000184337990;
  BAS[ATNO][  1].a[  6] =       429.371220000000;     BAS[ATNO][  1].d[  6] =         0.000479020581;
  BAS[ATNO][  1].a[  7] =       177.188590000000;     BAS[ATNO][  1].d[  7] =         0.001065631130;
  BAS[ATNO][  1].a[  8] =        73.763945000000;     BAS[ATNO][  1].d[  8] =         0.001667644884;
  BAS[ATNO][  1].a[  9] =        30.897007000000;     BAS[ATNO][  1].d[  9] =         0.001167416697;
  BAS[ATNO][  1].a[ 10] =        12.999482000000;     BAS[ATNO][  1].d[ 10] =         0.000160434925;
  BAS[ATNO][  1].a[ 11] =         5.487679300000;     BAS[ATNO][  1].d[ 11] =         0.000013051507;
  BAS[ATNO][  1].a[ 12] =         2.322571600000;     BAS[ATNO][  1].d[ 12] =        -0.000005794899;
  BAS[ATNO][  1].a[ 13] =         0.984980700000;     BAS[ATNO][  1].d[ 13] =         0.000004196507;
  BAS[ATNO][  1].a[ 14] =         0.418397300000;     BAS[ATNO][  1].d[ 14] =        -0.000002691734;
  BAS[ATNO][  1].a[ 15] =         0.177959400000;     BAS[ATNO][  1].d[ 15] =         0.000001180265;
  BAS[ATNO][  1].a[ 16] =    455476.770000000019;     BAS[ATNO][  1].d[ 16] =        -0.000090486486;
  BAS[ATNO][  1].a[ 17] =     64817.743000000002;     BAS[ATNO][  1].d[ 17] =        -0.000286575141;
  BAS[ATNO][  1].a[ 18] =     19256.987000000001;     BAS[ATNO][  1].d[ 18] =        -0.000616500358;
  BAS[ATNO][  1].a[ 19] =      6877.007300000000;     BAS[ATNO][  1].d[ 19] =        -0.001699510802;
  BAS[ATNO][  1].a[ 20] =      2643.487700000000;     BAS[ATNO][  1].d[ 20] =        -0.004578440243;
  BAS[ATNO][  1].a[ 21] =      1054.237500000000;     BAS[ATNO][  1].d[ 21] =        -0.012908011474;
  BAS[ATNO][  1].a[ 22] =       429.371220000000;     BAS[ATNO][  1].d[ 22] =        -0.035134153853;
  BAS[ATNO][  1].a[ 23] =       177.188590000000;     BAS[ATNO][  1].d[ 23] =        -0.086572187153;
  BAS[ATNO][  1].a[ 24] =        73.763945000000;     BAS[ATNO][  1].d[ 24] =        -0.172744792388;
  BAS[ATNO][  1].a[ 25] =        30.897007000000;     BAS[ATNO][  1].d[ 25] =        -0.183679886060;
  BAS[ATNO][  1].a[ 26] =        12.999482000000;     BAS[ATNO][  1].d[ 26] =         0.135348021618;
  BAS[ATNO][  1].a[ 27] =         5.487679300000;     BAS[ATNO][  1].d[ 27] =         0.627433059721;
  BAS[ATNO][  1].a[ 28] =         2.322571600000;     BAS[ATNO][  1].d[ 28] =         0.377660392700;
  BAS[ATNO][  1].a[ 29] =         0.984980700000;     BAS[ATNO][  1].d[ 29] =         0.004918300883;
  BAS[ATNO][  1].a[ 30] =         0.418397300000;     BAS[ATNO][  1].d[ 30] =         0.011597603438;
  BAS[ATNO][  1].a[ 31] =         0.177959400000;     BAS[ATNO][  1].d[ 31] =        -0.004405119028;
  BAS[ATNO][  1].a[ 32] =         0.071183800000;     BAS[ATNO][  1].d[ 32] =         0.001276548512;
  BAS[ATNO][  1].a[ 33] =    455476.770000000019;     BAS[ATNO][  1].d[ 33] =        -0.000002790557;
  BAS[ATNO][  1].a[ 34] =     64817.743000000002;     BAS[ATNO][  1].d[ 34] =        -0.000008830169;
  BAS[ATNO][  1].a[ 35] =     19256.987000000001;     BAS[ATNO][  1].d[ 35] =        -0.000019065751;
  BAS[ATNO][  1].a[ 36] =      6877.007300000000;     BAS[ATNO][  1].d[ 36] =        -0.000052248382;
  BAS[ATNO][  1].a[ 37] =      2643.487700000000;     BAS[ATNO][  1].d[ 37] =        -0.000142105097;
  BAS[ATNO][  1].a[ 38] =      1054.237500000000;     BAS[ATNO][  1].d[ 38] =        -0.000397330561;
  BAS[ATNO][  1].a[ 39] =       429.371220000000;     BAS[ATNO][  1].d[ 39] =        -0.001098264287;
  BAS[ATNO][  1].a[ 40] =       177.188590000000;     BAS[ATNO][  1].d[ 40] =        -0.002702261327;
  BAS[ATNO][  1].a[ 41] =        73.763945000000;     BAS[ATNO][  1].d[ 41] =        -0.005613379116;
  BAS[ATNO][  1].a[ 42] =        30.897007000000;     BAS[ATNO][  1].d[ 42] =        -0.006095821189;
  BAS[ATNO][  1].a[ 43] =        12.999482000000;     BAS[ATNO][  1].d[ 43] =         0.004705827358;
  BAS[ATNO][  1].a[ 44] =         5.487679300000;     BAS[ATNO][  1].d[ 44] =         0.031861716526;
  BAS[ATNO][  1].a[ 45] =         2.322571600000;     BAS[ATNO][  1].d[ 45] =         0.033736053020;
  BAS[ATNO][  1].a[ 46] =         0.984980700000;     BAS[ATNO][  1].d[ 46] =        -0.033104929556;
  BAS[ATNO][  1].a[ 47] =         0.418397300000;     BAS[ATNO][  1].d[ 47] =        -0.065744061926;
  BAS[ATNO][  1].a[ 48] =         0.177959400000;     BAS[ATNO][  1].d[ 48] =        -0.024705030887;
  BAS[ATNO][  1].a[ 49] =         0.071183800000;     BAS[ATNO][  1].d[ 49] =        -0.000438285439;
  BAS[ATNO][  1].a[ 50] =    455476.770000000019;     BAS[ATNO][  1].d[ 50] =        -0.000002940555;
  BAS[ATNO][  1].a[ 51] =     64817.743000000002;     BAS[ATNO][  1].d[ 51] =        -0.000009302282;
  BAS[ATNO][  1].a[ 52] =     19256.987000000001;     BAS[ATNO][  1].d[ 52] =        -0.000020099819;
  BAS[ATNO][  1].a[ 53] =      6877.007300000000;     BAS[ATNO][  1].d[ 53] =        -0.000055054864;
  BAS[ATNO][  1].a[ 54] =      2643.487700000000;     BAS[ATNO][  1].d[ 54] =        -0.000149857171;
  BAS[ATNO][  1].a[ 55] =      1054.237500000000;     BAS[ATNO][  1].d[ 55] =        -0.000419439873;
  BAS[ATNO][  1].a[ 56] =       429.371220000000;     BAS[ATNO][  1].d[ 56] =        -0.001161413102;
  BAS[ATNO][  1].a[ 57] =       177.188590000000;     BAS[ATNO][  1].d[ 57] =        -0.002873535050;
  BAS[ATNO][  1].a[ 58] =        73.763945000000;     BAS[ATNO][  1].d[ 58] =        -0.006043466628;
  BAS[ATNO][  1].a[ 59] =        30.897007000000;     BAS[ATNO][  1].d[ 59] =        -0.006717917352;
  BAS[ATNO][  1].a[ 60] =        12.999482000000;     BAS[ATNO][  1].d[ 60] =         0.007349769655;
  BAS[ATNO][  1].a[ 61] =         5.487679300000;     BAS[ATNO][  1].d[ 61] =         0.035405564373;
  BAS[ATNO][  1].a[ 62] =         2.322571600000;     BAS[ATNO][  1].d[ 62] =         0.056720738144;
  BAS[ATNO][  1].a[ 63] =         0.984980700000;     BAS[ATNO][  1].d[ 63] =        -0.161371049366;
  BAS[ATNO][  1].a[ 64] =         0.418397300000;     BAS[ATNO][  1].d[ 64] =        -0.000227052326;
  BAS[ATNO][  1].a[ 65] =         0.177959400000;     BAS[ATNO][  1].d[ 65] =         0.100791841993;
  BAS[ATNO][  1].a[ 66] =         0.071183800000;     BAS[ATNO][  1].d[ 66] =         0.003904988389;
  BAS[ATNO][  1].a[ 67] =    455476.770000000019;     BAS[ATNO][  1].d[ 67] =        -0.000003527201;
  BAS[ATNO][  1].a[ 68] =     64817.743000000002;     BAS[ATNO][  1].d[ 68] =        -0.000010662377;
  BAS[ATNO][  1].a[ 69] =     19256.987000000001;     BAS[ATNO][  1].d[ 69] =        -0.000026432079;
  BAS[ATNO][  1].a[ 70] =      6877.007300000000;     BAS[ATNO][  1].d[ 70] =        -0.000055033560;
  BAS[ATNO][  1].a[ 71] =      2643.487700000000;     BAS[ATNO][  1].d[ 71] =        -0.000214750738;
  BAS[ATNO][  1].a[ 72] =      1054.237500000000;     BAS[ATNO][  1].d[ 72] =        -0.000389795276;
  BAS[ATNO][  1].a[ 73] =       429.371220000000;     BAS[ATNO][  1].d[ 73] =        -0.001711236143;
  BAS[ATNO][  1].a[ 74] =       177.188590000000;     BAS[ATNO][  1].d[ 74] =        -0.002592907803;
  BAS[ATNO][  1].a[ 75] =        73.763945000000;     BAS[ATNO][  1].d[ 75] =        -0.009842678065;
  BAS[ATNO][  1].a[ 76] =        30.897007000000;     BAS[ATNO][  1].d[ 76] =        -0.002124952532;
  BAS[ATNO][  1].a[ 77] =        12.999482000000;     BAS[ATNO][  1].d[ 77] =        -0.002653126385;
  BAS[ATNO][  1].a[ 78] =         5.487679300000;     BAS[ATNO][  1].d[ 78] =         0.094437092206;
  BAS[ATNO][  1].a[ 79] =         2.322571600000;     BAS[ATNO][  1].d[ 79] =        -0.049791137307;
  BAS[ATNO][  1].a[ 80] =         0.984980700000;     BAS[ATNO][  1].d[ 80] =        -0.201675172098;
  BAS[ATNO][  1].a[ 81] =         0.418397300000;     BAS[ATNO][  1].d[ 81] =         0.319974157419;
  BAS[ATNO][  1].a[ 82] =         0.177959400000;     BAS[ATNO][  1].d[ 82] =        -0.150105949543;
  BAS[ATNO][  1].a[ 83] =         0.071183800000;     BAS[ATNO][  1].d[ 83] =        -0.017754025751;

  // Basis function   3 L = s
  InitBFNGauss(BAS[ATNO][  2]);
  BAS[ATNO][  2].l  = 0;
  BAS[ATNO][  2].ng = 82;
  BAS[ATNO][  2].a[  0] =    455476.770000000019;     BAS[ATNO][  2].d[  0] =         0.000000114340;
  BAS[ATNO][  2].a[  1] =     64817.743000000002;     BAS[ATNO][  2].d[  1] =         0.000000361624;
  BAS[ATNO][  2].a[  2] =     19256.987000000001;     BAS[ATNO][  2].d[  2] =         0.000000775789;
  BAS[ATNO][  2].a[  3] =      6877.007300000000;     BAS[ATNO][  2].d[  3] =         0.000002131578;
  BAS[ATNO][  2].a[  4] =      2643.487700000000;     BAS[ATNO][  2].d[  4] =         0.000005686682;
  BAS[ATNO][  2].a[  5] =      1054.237500000000;     BAS[ATNO][  2].d[  5] =         0.000015745459;
  BAS[ATNO][  2].a[  6] =       429.371220000000;     BAS[ATNO][  2].d[  6] =         0.000040916140;
  BAS[ATNO][  2].a[  7] =       177.188590000000;     BAS[ATNO][  2].d[  7] =         0.000091022210;
  BAS[ATNO][  2].a[  8] =        73.763945000000;     BAS[ATNO][  2].d[  8] =         0.000142443965;
  BAS[ATNO][  2].a[  9] =        30.897007000000;     BAS[ATNO][  2].d[  9] =         0.000099716351;
  BAS[ATNO][  2].a[ 10] =        12.999482000000;     BAS[ATNO][  2].d[ 10] =         0.000013703749;
  BAS[ATNO][  2].a[ 11] =         5.487679300000;     BAS[ATNO][  2].d[ 11] =         0.000001114811;
  BAS[ATNO][  2].a[ 12] =         2.322571600000;     BAS[ATNO][  2].d[ 12] =        -0.000000494979;
  BAS[ATNO][  2].a[ 13] =         0.984980700000;     BAS[ATNO][  2].d[ 13] =         0.000000358450;
  BAS[ATNO][  2].a[ 14] =    455476.770000000019;     BAS[ATNO][  2].d[ 14] =         0.000013417789;
  BAS[ATNO][  2].a[ 15] =     64817.743000000002;     BAS[ATNO][  2].d[ 15] =         0.000042494795;
  BAS[ATNO][  2].a[ 16] =     19256.987000000001;     BAS[ATNO][  2].d[ 16] =         0.000091417757;
  BAS[ATNO][  2].a[ 17] =      6877.007300000000;     BAS[ATNO][  2].d[ 17] =         0.000252011962;
  BAS[ATNO][  2].a[ 18] =      2643.487700000000;     BAS[ATNO][  2].d[ 18] =         0.000678914019;
  BAS[ATNO][  2].a[ 19] =      1054.237500000000;     BAS[ATNO][  2].d[ 19] =         0.001914064503;
  BAS[ATNO][  2].a[ 20] =       429.371220000000;     BAS[ATNO][  2].d[ 20] =         0.005209868064;
  BAS[ATNO][  2].a[ 21] =       177.188590000000;     BAS[ATNO][  2].d[ 21] =         0.012837356919;
  BAS[ATNO][  2].a[ 22] =        73.763945000000;     BAS[ATNO][  2].d[ 22] =         0.025615461833;
  BAS[ATNO][  2].a[ 23] =        30.897007000000;     BAS[ATNO][  2].d[ 23] =         0.027236972217;
[...]
  BAS[ATNO][  6].a[ 12] =      1462.496200000000;     BAS[ATNO][  6].d[ 12] =        -0.000190960909;
  BAS[ATNO][  6].a[ 13] =       354.067310000000;     BAS[ATNO][  6].d[ 13] =        -0.001237365995;
  BAS[ATNO][  6].a[ 14] =       126.697790000000;     BAS[ATNO][  6].d[ 14] =        -0.005178454946;
  BAS[ATNO][  6].a[ 15] =        49.989095000000;     BAS[ATNO][  6].d[ 15] =        -0.019094954604;
  BAS[ATNO][  6].a[ 16] =        20.509295000000;     BAS[ATNO][  6].d[ 16] =        -0.051746422403;
  BAS[ATNO][  6].a[ 17] =         8.580464100000;     BAS[ATNO][  6].d[ 17] =        -0.092800655171;
  BAS[ATNO][  6].a[ 18] =         3.630104900000;     BAS[ATNO][  6].d[ 18] =        -0.076708862587;
  BAS[ATNO][  6].a[ 19] =         1.546528000000;     BAS[ATNO][  6].d[ 19] =         0.112638924522;
  BAS[ATNO][  6].a[ 20] =         0.661936900000;     BAS[ATNO][  6].d[ 20] =         0.310919936656;
  BAS[ATNO][  6].a[ 21] =         0.284242800000;     BAS[ATNO][  6].d[ 21] =         0.285209636685;
  BAS[ATNO][  6].a[ 22] =         0.122346300000;     BAS[ATNO][  6].d[ 22] =         0.102019157584;
  BAS[ATNO][  6].a[ 23] =         0.048938500000;     BAS[ATNO][  6].d[ 23] =         0.004704426811;
  BAS[ATNO][  6].a[ 24] =      1462.496200000000;     BAS[ATNO][  6].d[ 24] =        -0.000189143154;
  BAS[ATNO][  6].a[ 25] =       354.067310000000;     BAS[ATNO][  6].d[ 25] =        -0.001150467608;
  BAS[ATNO][  6].a[ 26] =       126.697790000000;     BAS[ATNO][  6].d[ 26] =        -0.005236354611;
  BAS[ATNO][  6].a[ 27] =        49.989095000000;     BAS[ATNO][  6].d[ 27] =        -0.017818323080;
  BAS[ATNO][  6].a[ 28] =        20.509295000000;     BAS[ATNO][  6].d[ 28] =        -0.054077297037;
  BAS[ATNO][  6].a[ 29] =         8.580464100000;     BAS[ATNO][  6].d[ 29] =        -0.080860492298;
  BAS[ATNO][  6].a[ 30] =         3.630104900000;     BAS[ATNO][  6].d[ 30] =        -0.098673439493;
  BAS[ATNO][  6].a[ 31] =         1.546528000000;     BAS[ATNO][  6].d[ 31] =         0.253074758889;
  BAS[ATNO][  6].a[ 32] =         0.661936900000;     BAS[ATNO][  6].d[ 32] =         0.413587376523;
  BAS[ATNO][  6].a[ 33] =         0.284242800000;     BAS[ATNO][  6].d[ 33] =        -0.286948430646;
  BAS[ATNO][  6].a[ 34] =         0.122346300000;     BAS[ATNO][  6].d[ 34] =        -0.339936098397;
  BAS[ATNO][  6].a[ 35] =         0.048938500000;     BAS[ATNO][  6].d[ 35] =        -0.034988110217;
  BAS[ATNO][  6].a[ 36] =      1462.496200000000;     BAS[ATNO][  6].d[ 36] =        -0.000208576337;
  BAS[ATNO][  6].a[ 37] =       354.067310000000;     BAS[ATNO][  6].d[ 37] =        -0.001221438283;
  BAS[ATNO][  6].a[ 38] =       126.697790000000;     BAS[ATNO][  6].d[ 38] =        -0.005908908272;
  BAS[ATNO][  6].a[ 39] =        49.989095000000;     BAS[ATNO][  6].d[ 39] =        -0.019208703867;
  BAS[ATNO][  6].a[ 40] =        20.509295000000;     BAS[ATNO][  6].d[ 40] =        -0.064748690491;
  BAS[ATNO][  6].a[ 41] =         8.580464100000;     BAS[ATNO][  6].d[ 41] =        -0.076401483621;
  BAS[ATNO][  6].a[ 42] =         3.630104900000;     BAS[ATNO][  6].d[ 42] =        -0.104062308124;
  BAS[ATNO][  6].a[ 43] =         1.546528000000;     BAS[ATNO][  6].d[ 43] =         0.614469536180;
  BAS[ATNO][  6].a[ 44] =         0.661936900000;     BAS[ATNO][  6].d[ 44] =        -0.299005504664;
  BAS[ATNO][  6].a[ 45] =         0.284242800000;     BAS[ATNO][  6].d[ 45] =        -0.457860483823;
  BAS[ATNO][  6].a[ 46] =         0.122346300000;     BAS[ATNO][  6].d[ 46] =         0.453364488847;
  BAS[ATNO][  6].a[ 47] =         0.048938500000;     BAS[ATNO][  6].d[ 47] =         0.048438509420;

  // Basis function   8 L = p
  InitBFNGauss(BAS[ATNO][  7]);
  BAS[ATNO][  7].l  = 1;
  BAS[ATNO][  7].ng = 47;
  BAS[ATNO][  7].a[  0] =      1462.496200000000;     BAS[ATNO][  7].d[  0] =         0.000028391212;
  BAS[ATNO][  7].a[  1] =       354.067310000000;     BAS[ATNO][  7].d[  1] =         0.000183210530;
  BAS[ATNO][  7].a[  2] =       126.697790000000;     BAS[ATNO][  7].d[  2] =         0.000760335656;
  BAS[ATNO][  7].a[  3] =        49.989095000000;     BAS[ATNO][  7].d[  3] =         0.002744701264;
  BAS[ATNO][  7].a[  4] =        20.509295000000;     BAS[ATNO][  7].d[  4] =         0.007200183879;
  BAS[ATNO][  7].a[  5] =         8.580464100000;     BAS[ATNO][  7].d[  5] =         0.012288389735;
  BAS[ATNO][  7].a[  6] =         3.630104900000;     BAS[ATNO][  7].d[  6] =         0.010158033097;
  BAS[ATNO][  7].a[  7] =         1.546528000000;     BAS[ATNO][  7].d[  7] =         0.002152470310;
  BAS[ATNO][  7].a[  8] =         0.661936900000;     BAS[ATNO][  7].d[  8] =         0.000103725823;
  BAS[ATNO][  7].a[  9] =         0.284242800000;     BAS[ATNO][  7].d[  9] =         0.000008570882;
  BAS[ATNO][  7].a[ 10] =         0.122346300000;     BAS[ATNO][  7].d[ 10] =         0.000014052290;
  BAS[ATNO][  7].a[ 11] =      1462.496200000000;     BAS[ATNO][  7].d[ 11] =         0.000188000207;
  BAS[ATNO][  7].a[ 12] =       354.067310000000;     BAS[ATNO][  7].d[ 12] =         0.001218181588;
  BAS[ATNO][  7].a[ 13] =       126.697790000000;     BAS[ATNO][  7].d[ 13] =         0.005098166989;
  BAS[ATNO][  7].a[ 14] =        49.989095000000;     BAS[ATNO][  7].d[ 14] =         0.018798902034;
  BAS[ATNO][  7].a[ 15] =        20.509295000000;     BAS[ATNO][  7].d[ 15] =         0.050944133964;
  BAS[ATNO][  7].a[ 16] =         8.580464100000;     BAS[ATNO][  7].d[ 16] =         0.091361852461;
  BAS[ATNO][  7].a[ 17] =         3.630104900000;     BAS[ATNO][  7].d[ 17] =         0.075519550732;
  BAS[ATNO][  7].a[ 18] =         1.546528000000;     BAS[ATNO][  7].d[ 18] =        -0.110892544720;
  BAS[ATNO][  7].a[ 19] =         0.661936900000;     BAS[ATNO][  7].d[ 19] =        -0.306099362420;
  BAS[ATNO][  7].a[ 20] =         0.284242800000;     BAS[ATNO][  7].d[ 20] =        -0.280787680855;
  BAS[ATNO][  7].a[ 21] =         0.122346300000;     BAS[ATNO][  7].d[ 21] =        -0.100437429092;
  BAS[ATNO][  7].a[ 22] =         0.048938500000;     BAS[ATNO][  7].d[ 22] =        -0.004631488295;
  BAS[ATNO][  7].a[ 23] =      1462.496200000000;     BAS[ATNO][  7].d[ 23] =        -0.000121070123;
  BAS[ATNO][  7].a[ 24] =       354.067310000000;     BAS[ATNO][  7].d[ 24] =        -0.000736411824;
  BAS[ATNO][  7].a[ 25] =       126.697790000000;     BAS[ATNO][  7].d[ 25] =        -0.003351779246;
  BAS[ATNO][  7].a[ 26] =        49.989095000000;     BAS[ATNO][  7].d[ 26] =        -0.011405470012;
  BAS[ATNO][  7].a[ 27] =        20.509295000000;     BAS[ATNO][  7].d[ 27] =        -0.034614760713;
  BAS[ATNO][  7].a[ 28] =         8.580464100000;     BAS[ATNO][  7].d[ 28] =        -0.051758625992;
  BAS[ATNO][  7].a[ 29] =         3.630104900000;     BAS[ATNO][  7].d[ 29] =        -0.063160654912;
  BAS[ATNO][  7].a[ 30] =         1.546528000000;     BAS[ATNO][  7].d[ 30] =         0.161992605055;
  BAS[ATNO][  7].a[ 31] =         0.661936900000;     BAS[ATNO][  7].d[ 31] =         0.264736383964;
  BAS[ATNO][  7].a[ 32] =         0.284242800000;     BAS[ATNO][  7].d[ 32] =        -0.183675068983;
  BAS[ATNO][  7].a[ 33] =         0.122346300000;     BAS[ATNO][  7].d[ 33] =        -0.217592360349;
  BAS[ATNO][  7].a[ 34] =         0.048938500000;     BAS[ATNO][  7].d[ 34] =        -0.022395813572;
  BAS[ATNO][  7].a[ 35] =      1462.496200000000;     BAS[ATNO][  7].d[ 35] =        -0.000318957474;
  BAS[ATNO][  7].a[ 36] =       354.067310000000;     BAS[ATNO][  7].d[ 36] =        -0.001867838290;
  BAS[ATNO][  7].a[ 37] =       126.697790000000;     BAS[ATNO][  7].d[ 37] =        -0.009035974454;
  BAS[ATNO][  7].a[ 38] =        49.989095000000;     BAS[ATNO][  7].d[ 38] =        -0.029374183766;
  BAS[ATNO][  7].a[ 39] =        20.509295000000;     BAS[ATNO][  7].d[ 39] =        -0.099014485635;
  BAS[ATNO][  7].a[ 40] =         8.580464100000;     BAS[ATNO][  7].d[ 40] =        -0.116834078729;
  BAS[ATNO][  7].a[ 41] =         3.630104900000;     BAS[ATNO][  7].d[ 41] =        -0.159133348253;
  BAS[ATNO][  7].a[ 42] =         1.546528000000;     BAS[ATNO][  7].d[ 42] =         0.939654294190;
  BAS[ATNO][  7].a[ 43] =         0.661936900000;     BAS[ATNO][  7].d[ 43] =        -0.457242857295;
  BAS[ATNO][  7].a[ 44] =         0.284242800000;     BAS[ATNO][  7].d[ 44] =        -0.700165825045;
  BAS[ATNO][  7].a[ 45] =         0.122346300000;     BAS[ATNO][  7].d[ 45] =         0.693290494802;
  BAS[ATNO][  7].a[ 46] =         0.048938500000;     BAS[ATNO][  7].d[ 46] =         0.074072758210;

  // Basis function   9 L = p
  InitBFNGauss(BAS[ATNO][  8]);
  BAS[ATNO][  8].l  = 1;
  BAS[ATNO][  8].ng = 47;
  BAS[ATNO][  8].a[  0] =      1462.496200000000;     BAS[ATNO][  8].d[  0] =         0.000012797165;
  BAS[ATNO][  8].a[  1] =       354.067310000000;     BAS[ATNO][  8].d[  1] =         0.000082581023;
  BAS[ATNO][  8].a[  2] =       126.697790000000;     BAS[ATNO][  8].d[  2] =         0.000342716636;
  BAS[ATNO][  8].a[  3] =        49.989095000000;     BAS[ATNO][  8].d[  3] =         0.001237157270;
  BAS[ATNO][  8].a[  4] =        20.509295000000;     BAS[ATNO][  8].d[  4] =         0.003245438746;
  BAS[ATNO][  8].a[  5] =         8.580464100000;     BAS[ATNO][  8].d[  5] =         0.005538916345;
  BAS[ATNO][  8].a[  6] =         3.630104900000;     BAS[ATNO][  8].d[  6] =         0.004578671150;
  BAS[ATNO][  8].a[  7] =         1.546528000000;     BAS[ATNO][  8].d[  7] =         0.000970212797;
  BAS[ATNO][  8].a[  8] =         0.661936900000;     BAS[ATNO][  8].d[  8] =         0.000046753779;
  BAS[ATNO][  8].a[  9] =         0.284242800000;     BAS[ATNO][  8].d[  9] =         0.000003863272;
  BAS[ATNO][  8].a[ 10] =         0.122346300000;     BAS[ATNO][  8].d[ 10] =         0.000006333984;
  BAS[ATNO][  8].a[ 11] =      1462.496200000000;     BAS[ATNO][  8].d[ 11] =        -0.000057928364;
  BAS[ATNO][  8].a[ 12] =       354.067310000000;     BAS[ATNO][  8].d[ 12] =        -0.000375357389;
  BAS[ATNO][  8].a[ 13] =       126.697790000000;     BAS[ATNO][  8].d[ 13] =        -0.001570894412;
  BAS[ATNO][  8].a[ 14] =        49.989095000000;     BAS[ATNO][  8].d[ 14] =        -0.005792491736;
  BAS[ATNO][  8].a[ 15] =        20.509295000000;     BAS[ATNO][  8].d[ 15] =        -0.015697378201;
  BAS[ATNO][  8].a[ 16] =         8.580464100000;     BAS[ATNO][  8].d[ 16] =        -0.028151259815;
  BAS[ATNO][  8].a[ 17] =         3.630104900000;     BAS[ATNO][  8].d[ 17] =        -0.023269783137;
  BAS[ATNO][  8].a[ 18] =         1.546528000000;     BAS[ATNO][  8].d[ 18] =         0.034169237530;
  BAS[ATNO][  8].a[ 19] =         0.661936900000;     BAS[ATNO][  8].d[ 19] =         0.094318169439;
  BAS[ATNO][  8].a[ 20] =         0.284242800000;     BAS[ATNO][  8].d[ 20] =         0.086518899778;
  BAS[ATNO][  8].a[ 21] =         0.122346300000;     BAS[ATNO][  8].d[ 21] =         0.030947710509;
  BAS[ATNO][  8].a[ 22] =         0.048938500000;     BAS[ATNO][  8].d[ 22] =         0.001427097052;
  BAS[ATNO][  8].a[ 23] =      1462.496200000000;     BAS[ATNO][  8].d[ 23] =         0.000246770421;
  BAS[ATNO][  8].a[ 24] =       354.067310000000;     BAS[ATNO][  8].d[ 24] =         0.001500986787;
  BAS[ATNO][  8].a[ 25] =       126.697790000000;     BAS[ATNO][  8].d[ 25] =         0.006831743049;
  BAS[ATNO][  8].a[ 26] =        49.989095000000;     BAS[ATNO][  8].d[ 26] =         0.023247127799;
  BAS[ATNO][  8].a[ 27] =        20.509295000000;     BAS[ATNO][  8].d[ 27] =         0.070553319165;
  BAS[ATNO][  8].a[ 28] =         8.580464100000;     BAS[ATNO][  8].d[ 28] =         0.105496695166;
  BAS[ATNO][  8].a[ 29] =         3.630104900000;     BAS[ATNO][  8].d[ 29] =         0.128736809180;
  BAS[ATNO][  8].a[ 30] =         1.546528000000;     BAS[ATNO][  8].d[ 30] =        -0.330180412388;
  BAS[ATNO][  8].a[ 31] =         0.661936900000;     BAS[ATNO][  8].d[ 31] =        -0.539597276071;
  BAS[ATNO][  8].a[ 32] =         0.284242800000;     BAS[ATNO][  8].d[ 32] =         0.374374558650;
  BAS[ATNO][  8].a[ 33] =         0.122346300000;     BAS[ATNO][  8].d[ 33] =         0.443506265290;
  BAS[ATNO][  8].a[ 34] =         0.048938500000;     BAS[ATNO][  8].d[ 34] =         0.045648126707;
  BAS[ATNO][  8].a[ 35] =      1462.496200000000;     BAS[ATNO][  8].d[ 35] =        -0.000323084306;
  BAS[ATNO][  8].a[ 36] =       354.067310000000;     BAS[ATNO][  8].d[ 36] =        -0.001892005324;
  BAS[ATNO][  8].a[ 37] =       126.697790000000;     BAS[ATNO][  8].d[ 37] =        -0.009152886450;
  BAS[ATNO][  8].a[ 38] =        49.989095000000;     BAS[ATNO][  8].d[ 38] =        -0.029754241774;
  BAS[ATNO][  8].a[ 39] =        20.509295000000;     BAS[ATNO][  8].d[ 39] =        -0.100295584998;
  BAS[ATNO][  8].a[ 40] =         8.580464100000;     BAS[ATNO][  8].d[ 40] =        -0.118345736977;
  BAS[ATNO][  8].a[ 41] =         3.630104900000;     BAS[ATNO][  8].d[ 41] =        -0.161192295787;
  BAS[ATNO][  8].a[ 42] =         1.546528000000;     BAS[ATNO][  8].d[ 42] =         0.951812015457;
  BAS[ATNO][  8].a[ 43] =         0.661936900000;     BAS[ATNO][  8].d[ 43] =        -0.463158896039;
  BAS[ATNO][  8].a[ 44] =         0.284242800000;     BAS[ATNO][  8].d[ 44] =        -0.709224923688;
  BAS[ATNO][  8].a[ 45] =         0.122346300000;     BAS[ATNO][  8].d[ 45] =         0.702260636954;
  BAS[ATNO][  8].a[ 46] =         0.048938500000;     BAS[ATNO][  8].d[ 46] =         0.075031148922;

  // Basis function  10 L = d
  InitBFNGauss(BAS[ATNO][  9]);
  BAS[ATNO][  9].l  = 2;
  BAS[ATNO][  9].ng = 10;
  BAS[ATNO][  9].a[  0] =         4.328841700000;     BAS[ATNO][  9].d[  0] =         0.023696691361;
  BAS[ATNO][  9].a[  1] =         1.774230200000;     BAS[ATNO][  9].d[  1] =         0.164645256783;
  BAS[ATNO][  9].a[  2] =         0.727190600000;     BAS[ATNO][  9].d[  2] =         0.511792759851;
  BAS[ATNO][  9].a[  3] =         0.298048200000;     BAS[ATNO][  9].d[  3] =         0.259266547308;
  BAS[ATNO][  9].a[  4] =         0.119219300000;     BAS[ATNO][  9].d[  4] =         0.024473751307;
  BAS[ATNO][  9].a[  5] =         4.328841700000;     BAS[ATNO][  9].d[  5] =        -0.069706890079;
  BAS[ATNO][  9].a[  6] =         1.774230200000;     BAS[ATNO][  9].d[  6] =         0.386958652016;
  BAS[ATNO][  9].a[  7] =         0.727190600000;     BAS[ATNO][  9].d[  7] =         0.171178925639;
  BAS[ATNO][  9].a[  8] =         0.298048200000;     BAS[ATNO][  9].d[  8] =        -0.503795799854;
  BAS[ATNO][  9].a[  9] =         0.119219300000;     BAS[ATNO][  9].d[  9] =        -0.036194756749;

  // Basis function  11 L = d
  InitBFNGauss(BAS[ATNO][ 10]);
  BAS[ATNO][ 10].l  = 2;
  BAS[ATNO][ 10].ng = 10;
  BAS[ATNO][ 10].a[  0] =         4.328841700000;     BAS[ATNO][ 10].d[  0] =         0.014700463490;
  BAS[ATNO][ 10].a[  1] =         1.774230200000;     BAS[ATNO][ 10].d[  1] =         0.102139220588;
  BAS[ATNO][ 10].a[  2] =         0.727190600000;     BAS[ATNO][ 10].d[  2] =         0.317495411742;
  BAS[ATNO][ 10].a[  3] =         0.298048200000;     BAS[ATNO][ 10].d[  3] =         0.160838420638;
  BAS[ATNO][ 10].a[  4] =         0.119219300000;     BAS[ATNO][ 10].d[  4] =         0.015182519874;
  BAS[ATNO][ 10].a[  5] =         4.328841700000;     BAS[ATNO][ 10].d[  5] =         0.112365346558;
  BAS[ATNO][ 10].a[  6] =         1.774230200000;     BAS[ATNO][ 10].d[  6] =        -0.623765355018;
  BAS[ATNO][ 10].a[  7] =         0.727190600000;     BAS[ATNO][ 10].d[  7] =        -0.275935123213;
  BAS[ATNO][ 10].a[  8] =         0.298048200000;     BAS[ATNO][ 10].d[  8] =         0.812103216495;
  BAS[ATNO][ 10].a[  9] =         0.119219300000;     BAS[ATNO][ 10].d[  9] =         0.058344826187;

  // Basis function  12 L = f
  InitBFNGauss(BAS[ATNO][ 11]);
  BAS[ATNO][ 11].l  = 3;
  BAS[ATNO][ 11].ng = 4;
  BAS[ATNO][ 11].a[  0] =         1.631174000000;     BAS[ATNO][ 11].d[  0] =         0.245409970118;
  BAS[ATNO][ 11].a[  1] =         0.820328800000;     BAS[ATNO][ 11].d[  1] =         0.580760500278;
  BAS[ATNO][ 11].a[  2] =         0.412549100000;     BAS[ATNO][ 11].d[  2] =         0.264213740127;
  BAS[ATNO][ 11].a[  3] =         0.165019600000;     BAS[ATNO][ 11].d[  3] =         0.038934170019;

-------
TIMINGS
-------

Total SCF time: 0 days 0 hours 0 min 7 sec 

Total time                  ....       7.303 sec
Sum of individual times     ....       7.038 sec  ( 96.4%)

Fock matrix formation       ....       6.521 sec  ( 89.3%)
  XC integration            ....       0.023 sec  (  0.4% of F)
    Basis function eval.    ....       0.009 sec  ( 38.5% of XC)
    Density eval.           ....       0.001 sec  (  3.8% of XC)
    XC-Functional eval.     ....       0.001 sec  (  5.2% of XC)
    XC-Potential eval.      ....       0.001 sec  (  3.7% of XC)
Diagonalization             ....       0.000 sec  (  0.0%)
Density matrix formation    ....       0.000 sec  (  0.0%)
Population analysis         ....       0.001 sec  (  0.0%)
Initial guess               ....       0.076 sec  (  1.0%)
Orbital Transformation      ....       0.000 sec  (  0.0%)
Orbital Orthonormalization  ....       0.000 sec  (  0.0%)
DIIS solution               ....       0.000 sec  (  0.0%)
SOSCF solution              ....       0.001 sec  (  0.0%)
Grid generation             ....       0.439 sec  (  6.0%)

-------------------------   --------------------
FINAL SINGLE POINT ENERGY      -311.106024086856
-------------------------   --------------------


                            ***************************************
                            *     ORCA property calculations      *
                            ***************************************

                                    ---------------------
                                    Active property flags
                                    ---------------------
   (+) Dipole Moment


------------------------------------------------------------------------------
                       ORCA ELECTRIC PROPERTIES CALCULATION
------------------------------------------------------------------------------

Dipole Moment Calculation                       ... on
Quadrupole Moment Calculation                   ... off
Polarizability Calculation                      ... off
GBWName                                         ... Ar_ano-rcc-tzp_1096.287912_.gbw
Electron density file                           ... Ar_ano-rcc-tzp_1096.287912_.scfp
The origin for moment calculation is the CENTER OF MASS  = ( 0.000000,  0.000000  0.000000)

-------------
DIPOLE MOMENT
-------------
                                X             Y             Z
Electronic contribution:     -0.00000       0.00000      -0.00000
Nuclear contribution   :      0.00000       0.00000       0.00000
                        -----------------------------------------
Total Dipole Moment    :     -0.00000       0.00000      -0.00000
                        -----------------------------------------
Magnitude (a.u.)       :      0.00000
Magnitude (Debye)      :      0.00000



--------------------
Rotational spectrum 
--------------------
 
Rotational constants in cm-1:     0.000000     0.000000     0.000000 
Rotational constants in MHz :     0.000000     0.000000     0.000000 

 Dipole components along the rotational axes: 
x,y,z [a.u.] :    -0.000000     0.000000    -0.000000 
x,y,z [Debye]:    -0.000000     0.000000    -0.000000 

 

Timings for individual modules:

Sum of individual times         ...        8.352 sec (=   0.139 min)
GTO integral calculation        ...        0.403 sec (=   0.007 min)   4.8 %
Relativistic integrals          ...        0.389 sec (=   0.006 min)   4.7 %
SCF iterations                  ...        7.560 sec (=   0.126 min)  90.5 %
                             ****ORCA TERMINATED NORMALLY****
TOTAL RUN TIME: 0 days 0 hours 0 minutes 8 seconds 766 msec
