
                                 *****************
                                 * O   R   C   A *
                                 *****************

           --- An Ab Initio, DFT and Semiempirical electronic structure package ---

                  #######################################################
                  #                        -***-                        #
                  #          Department of theory and spectroscopy      #
                  #               Directorship: Frank Neese             #
                  #        Max Planck Institute fuer Kohlenforschung    #
                  #                Kaiser Wilhelm Platz 1               #
                  #                 D-45470 Muelheim/Ruhr               #
                  #                      Germany                        #
                  #                                                     #
                  #                  All rights reserved                #
                  #                        -***-                        #
                  #######################################################


                         Program Version 4.2.1 -  RELEASE  -


 With contributions from (in alphabetic order):
   Daniel Aravena         : Magnetic Suceptibility
   Michael Atanasov       : Ab Initio Ligand Field Theory (pilot matlab implementation)
   Alexander A. Auer      : GIAO ZORA, VPT2
   Ute Becker             : Parallelization
   Giovanni Bistoni       : ED, misc. LED, open-shell LED, HFLD
   Martin Brehm           : Molecular dynamics
   Dmytro Bykov           : SCF Hessian
   Vijay G. Chilkuri      : MRCI spin determinant printing, contributions to CSF-ICE
   Dipayan Datta          : RHF DLPNO-CCSD density
   Achintya Kumar Dutta   : EOM-CC, STEOM-CC
   Dmitry Ganyushin       : Spin-Orbit,Spin-Spin,Magnetic field MRCI
   Miquel Garcia          : C-PCM Hessian, Gaussian charge scheme
   Yang Guo               : DLPNO-NEVPT2, CIM, IAO-localization
   Andreas Hansen         : Spin unrestricted coupled pair/coupled cluster methods
   Benjamin Helmich-Paris : CASSCF linear response (MC-RPA)
   Lee Huntington         : MR-EOM, pCC
   Robert Izsak           : Overlap fitted RIJCOSX, COSX-SCS-MP3, EOM
   Christian Kollmar      : KDIIS, OOCD, Brueckner-CCSD(T), CCSD density
   Simone Kossmann        : Meta GGA functionals, TD-DFT gradient, OOMP2, MP2 Hessian
   Martin Krupicka        : AUTO-CI
   Lucas Lang             : DCDCAS
   Dagmar Lenk            : GEPOL surface, SMD
   Dimitrios Liakos       : Extrapolation schemes; Compound Job, initial MDCI parallelization
   Dimitrios Manganas     : Further ROCIS development; embedding schemes
   Dimitrios Pantazis     : SARC Basis sets
   Taras Petrenko         : DFT Hessian,TD-DFT gradient, ASA, ECA, R-Raman, ABS, FL, XAS/XES, NRVS
   Peter Pinski           : DLPNO-MP2, DLPNO-MP2 Gradient
   Christoph Reimann      : Effective Core Potentials
   Marius Retegan         : Local ZFS, SOC
   Christoph Riplinger    : Optimizer, TS searches, QM/MM, DLPNO-CCSD(T), (RO)-DLPNO pert. Triples
   Tobias Risthaus        : Range-separated hybrids, TD-DFT gradient, RPA, STAB
   Michael Roemelt        : Original ROCIS implementation
   Masaaki Saitow         : Open-shell DLPNO-CCSD energy and density
   Barbara Sandhoefer     : DKH picture change effects
   Avijit Sen             : IP-ROCIS
   Kantharuban Sivalingam : CASSCF convergence, NEVPT2, FIC-MRCI
   Bernardo de Souza      : ESD, SOC TD-DFT
   Georgi Stoychev        : AutoAux, RI-MP2 NMR
   Willem Van den Heuvel  : Paramagnetic NMR
   Boris Wezisla          : Elementary symmetry handling
   Frank Wennmohs         : Technical directorship


 We gratefully acknowledge several colleagues who have allowed us to
 interface, adapt or use parts of their codes:
   Stefan Grimme, W. Hujo, H. Kruse,             : VdW corrections, initial TS optimization,
                  C. Bannwarth                     DFT functionals, gCP, sTDA/sTD-DF
   Ed Valeev, F. Pavosevic, A. Kumar             : LibInt (2-el integral package), F12 methods
   Garnet Chan, S. Sharma, J. Yang, R. Olivares  : DMRG
   Ulf Ekstrom                                   : XCFun DFT Library
   Mihaly Kallay                                 : mrcc  (arbitrary order and MRCC methods)
   Andreas Klamt, Michael Diedenhofen            : otool_cosmo (COSMO solvation model)
   Jiri Pittner, Ondrej Demel                    : Mk-CCSD
   Frank Weinhold                                : gennbo (NPA and NBO analysis)
   Christopher J. Cramer and Donald G. Truhlar   : smd solvation model
   Lars Goerigk                                  : TD-DFT with DH, B97 family of functionals
   V. Asgeirsson, H. Jonsson                     : NEB implementation
   FAccTs GmbH                                   : IRC, NEB, NEB-TS, Multilevel, MM, QM/MM, CI optimization
   S Lehtola, MJT Oliveira, MAL Marques          : LibXC Library


 Your calculation uses the libint2 library for the computation of 2-el integrals
 For citations please refer to: http://libint.valeyev.net

 Your ORCA version has been built with support for libXC version: 4.2.3
 For citations please refer to: https://tddft.org/programs/libxc/

 This ORCA versions uses:
   CBLAS   interface :  Fast vector & matrix operations
   LAPACKE interface :  Fast linear algebra routines
   SCALAPACK package :  Parallel linear algebra routines


----- Orbital basis set information -----
Your calculation utilizes the basis: ANO-RCC-TZP
   H, He:       P.-O. Widmark, P.-A. Malmqvist, and B. O. Roos, Theor. Chim. Acta 77, 291 (1990).
   s block:     B. O. Roos, V. Veryazov and P.-O. Widmark, Theor. Chem. Acc. 111, 345 (2004).
   p block:     B. O. Roos, R. Lindh, P.-A. Malmqvist, V. Veryazov, and P.-O. Widmark, J. Phys. Chem. A 108, 2851 (2004).
   d block:     B. O. Roos, R. Lindh, P.-A. Malmqvist, V. Veryazov, and P.-O. Widmark, J. Phys. Chem. A 109, 6575 (2005).
   actinides:   B. O. Roos, R. Lindh, P.-A. Malmqvist, V. Veryazov, and P.-O. Widmark, Chem. Phys. Letters 409, 295 (2005).
   lanthanides: B. O. Roos, R. Lindh, P.-A. Malmqvist, V. Veryazov, P.-O. Widmark and A. C. Borin, J. Phys. Chem. A 112, 11431 (2008).

================================================================================
                                        WARNINGS
                       Please study these warnings very carefully!
================================================================================


INFO   : the flag for use of LIBINT has been found!

================================================================================
                                       INPUT FILE
================================================================================
NAME = Ar_ano-rcc-tzp_2192.575824_.inp
|  1> ! LDA ano-rcc-tzp nori grid5 finalgrid6 verytightscf
|  2> %Pal NProcs 18 End
|  3> 
|  4> % REL
|  5>   Method ZORA
|  6>   ModelPot 1, 0, 0, 0
|  7>   velit 2192.575824
|  8> END
|  9> 
| 10> *xyz 16 1
| 11> Ar 0.0 0.0 0.0
| 12> **                         ****END OF INPUT****
================================================================================

                       ****************************
                       * Single Point Calculation *
                       ****************************

---------------------------------
CARTESIAN COORDINATES (ANGSTROEM)
---------------------------------
  Ar     0.000000    0.000000    0.000000

----------------------------
CARTESIAN COORDINATES (A.U.)
----------------------------
  NO LB      ZA    FRAG     MASS         X           Y           Z
   0 Ar   18.0000    0    39.948    0.000000    0.000000    0.000000

--------------------------------
INTERNAL COORDINATES (ANGSTROEM)
--------------------------------
 Ar     0   0   0     0.000000000000     0.00000000     0.00000000

---------------------------
INTERNAL COORDINATES (A.U.)
---------------------------
 Ar     0   0   0     0.000000000000     0.00000000     0.00000000

---------------------
BASIS SET INFORMATION
---------------------
There are 1 groups of distinct atoms

 Group   1 Type Ar  : 85s48p10d4f contracted to 5s4p2d1f pattern {1717171717/12121212/55/4}

Atom   0Ar   basis set group =>   1


           ************************************************************
           *        Program running with 18 parallel MPI-processes    *
           *              working on a common directory               *
           ************************************************************


------------------------------------------------------------------------------
                       ORCA GTO INTEGRAL CALCULATION
                     -- ANO INTEGRAL GENERATION BRANCH --
------------------------------------------------------------------------------


Gathering ANO information                         ... done
Calculation Information:
Number of atoms                                   ... 1
Number of basis functions                         ... 34
Highest angular momentum                          ... 3
Number of primitive shells                        ... 38
Total number of shells                            ... 12
Maximum number of shells                          ... 12

Getting memory                                    ... done
Making prescreening integrals                     ... done
Gathering atom contracted prescreening            ... done
Making one-electron integrals                     ... done

Timings:

Total time                                        ...    0.2 sec
Prescreening matrix                               ...    0.2 sec
One-electron matrix                               ...    0.0 sec
Two-index integrals + Cholesky                    ...    0.0 sec


           ************************************************************
           *        Program running with 18 parallel MPI-processes    *
           *              working on a common directory               *
           ************************************************************
------------------------------------------------------------------------------
                          ORCA RELATIVISTIC HAMILTONIAN
------------------------------------------------------------------------------

Relativistic Method            ... ZORA(MP)
Treatment of potential         ... Van Wuellen
Nucleus model                  ... Point Nucleus
Speed of light used            ... 2192.57582400000001


            *************************************************
            *         ZERO ORDER REGULAR APPROXIMATION      *
            *                     ZORA(MP)                  *
            *            Programmed by FN according to      *
            *                   C. van Wuellen              *
            *       J. Chem. Phys. (1998) vol 109, 392-399  *
            *************************************************

Terms included in model potential: +V(e,N)
Basis function cutoff value   ... 1.000000e-12
Loading the fitted atomic densities  (DKH4)  ... done
Calculating the cutoffs                      ... done
Number of fit functions                      ... 15
Setting up the integration grid ... done


           ************************************************************
           *        Program running with 18 parallel MPI-processes    *
           *              working on a common directory               *
           ************************************************************
-------------------------------------------------------------------------------
                                 ORCA SCF
-------------------------------------------------------------------------------

------------
SCF SETTINGS
------------
Hamiltonian:
 Density Functional     Method          .... DFT(GTOs)
 Exchange Functional    Exchange        .... Slater
   X-Alpha parameter    XAlpha          ....  0.666667
 Correlation Functional Correlation     .... VWN-5
 Gradients option       PostSCFGGA      .... off
   Density functional embedding theory  .... OFF

Relativistic Settings:
 Scalar relativistic method             .... ZORA
 Speed of light used       Velit        ....       2192.57582
Orbital energies will be scaled


General Settings:
 Integral files         IntName         .... Ar_ano-rcc-tzp_2192.575824_
 Hartree-Fock type      HFTyp           .... RHF
 Total Charge           Charge          ....   16
 Multiplicity           Mult            ....    1
 Number of Electrons    NEL             ....    2
 Basis Dimension        Dim             ....   34
 Nuclear Repulsion      ENuc            ....      0.0000000000 Eh

Convergence Acceleration:
 DIIS                   CNVDIIS         .... on
   Start iteration      DIISMaxIt       ....    12
   Startup error        DIISStart       ....  0.200000
   # of expansion vecs  DIISMaxEq       ....     5
   Bias factor          DIISBfac        ....   1.050
   Max. coefficient     DIISMaxC        ....  10.000
 Newton-Raphson         CNVNR           .... off
 SOSCF                  CNVSOSCF        .... on
   Start iteration      SOSCFMaxIt      ....   150
   Startup grad/error   SOSCFStart      ....  0.003300
 Level Shifting         CNVShift        .... on
   Level shift para.    LevelShift      ....    0.2500
   Turn off err/grad.   ShiftErr        ....    0.0010
 Zerner damping         CNVZerner       .... off
 Static damping         CNVDamp         .... on
   Fraction old density DampFac         ....    0.7000
   Max. Damping (<1)    DampMax         ....    0.9800
   Min. Damping (>=0)   DampMin         ....    0.0000
   Turn off err/grad.   DampErr         ....    0.1000
 Fernandez-Rico         CNVRico         .... off

SCF Procedure:
 Maximum # iterations   MaxIter         ....   125
 SCF integral mode      SCFMode         .... Direct
   Integral package                     .... LIBINT
 Reset frequency        DirectResetFreq ....    20
 Integral Threshold     Thresh          ....  1.000e-12 Eh
 Primitive CutOff       TCut            ....  1.000e-14 Eh

Convergence Tolerance:
 Convergence Check Mode ConvCheckMode   .... Total+1el-Energy
 Convergence forced     ConvForced      .... 0
 Energy Change          TolE            ....  1.000e-09 Eh
 1-El. energy change                    ....  1.000e-06 Eh
 Orbital Gradient       TolG            ....  2.000e-06
 Orbital Rotation angle TolX            ....  2.000e-06
 DIIS Error             TolErr          ....  1.000e-08


Diagonalization of the overlap matrix:
Smallest eigenvalue                        ... 1.000e+00
Time for diagonalization                   ...    0.001 sec
Threshold for overlap eigenvalues          ... 1.000e-08
Number of eigenvalues below threshold      ... 0
Time for construction of square roots      ...    0.001 sec
Total time needed                          ...    0.002 sec

-------------------
DFT GRID GENERATION
-------------------

General Integration Accuracy     IntAcc      ...  5.010
Radial Grid Type                 RadialGrid  ... Gauss-Chebyshev
Angular Grid (max. acc.)         AngularGrid ... Lebedev-434
Angular grid pruning method      GridPruning ... 3 (G Style)
Weight generation scheme         WeightScheme... Becke
Basis function cutoff            BFCut       ...    1.0000e-12
Integration weight cutoff        WCut        ...    1.0000e-14
Grids for H and He will be reduced by one unit

# of grid points (after initial pruning)     ...  11992 (   0.0 sec)
# of grid points (after weights+screening)   ...  11992 (   0.0 sec)
Grid point division into batches done        ...    0.1 sec
Reduced shell lists constructed in    0.1 sec

Total number of grid points                  ...    11992
Total number of batches                      ...      188
Average number of points per batch           ...       63
Average number of grid points per atom       ...    11992
Average number of shells per batch           ...     6.67 (55.56%)
Average number of basis functions per batch  ...    16.33 (48.04%)
Average number of large shells per batch     ...     3.58 (53.75%)
Average number of large basis fcns per batch ...     9.08 (55.61%)
Maximum spatial batch extension              ...  18.71, 18.71, 18.71 au
Average spatial batch extension              ...   0.97,  0.98,  0.97 au

Time for grid setup =    0.159 sec

------------------------------
INITIAL GUESS: MODEL POTENTIAL
------------------------------
Loading ZORA relativistic densities                ... done
Calculating cut-offs                               ... done
Setting up the integral package                    ... done
Initializing the effective Hamiltonian             ... done
Starting the Coulomb interaction                   ... done (   0.0 sec)
Reading the grid                                   ... done
Mapping shells                                     ... done
Starting the XC term evaluation                    ... done (   0.0 sec)
  promolecular density results
     # of electrons  =     18.000000116
     EX              =    -28.047870263
     EC              =     -1.433252902
     EX+EC           =    -29.481123164
Transforming the Hamiltonian                       ... done (   0.0 sec)
Diagonalizing the Hamiltonian                      ... done (   0.0 sec)
Back transforming the eigenvectors                 ... done (   0.0 sec)
Now organizing SCF variables                       ... done
                      ------------------
                      INITIAL GUESS DONE (   0.2 sec)
                      ------------------
--------------
SCF ITERATIONS
--------------
ITER       Energy         Delta-E        Max-DP      RMS-DP      [F,P]     Damp
               ***  Starting incremental Fock matrix formation  ***
  0   -311.0485956465   0.000000000000 0.00521867  0.00017075  1.9380541 0.7000
                      *** Initiating the SOSCF procedure ***
                      *** Re-Reading the Fockian *** 
                      *** Removing any level shift *** 
ITER      Energy       Delta-E        Grad      Rot      Max-DP    RMS-DP
  1   -311.05523475  -0.0066391084  0.000343  0.000343  0.012174  0.000398
               *** Restarting incremental Fock matrix formation ***
  2   -311.07059735  -0.0153625921  0.005795  0.000052  0.000096  0.000003
  3   -311.07059806  -0.0000007165  0.000045  0.000000  0.000001  0.000000
                 **** Energy Check signals convergence ****
              ***Rediagonalizing the Fockian in SOSCF/NRSCF***

               *****************************************************
               *                     SUCCESS                       *
               *           SCF CONVERGED AFTER   4 CYCLES          *
               *****************************************************

Setting up the final grid:

General Integration Accuracy     IntAcc      ...  5.340
Radial Grid Type                 RadialGrid  ... Gauss-Chebyshev
Angular Grid (max. acc.)         AngularGrid ... Lebedev-590
Angular grid pruning method      GridPruning ... 3 (G Style)
Weight generation scheme         WeightScheme... Becke
Basis function cutoff            BFCut       ...    1.0000e-12
Integration weight cutoff        WCut        ...    1.0000e-14
Grids for H and He will be reduced by one unit

# of grid points (after initial pruning)     ...  18110 (   0.0 sec)
# of grid points (after weights+screening)   ...  18110 (   0.0 sec)
Grid point division into batches done        ...    0.2 sec
Reduced shell lists constructed in    0.2 sec

Total number of grid points                  ...    18110
Total number of batches                      ...      283
Average number of points per batch           ...       63
Average number of grid points per atom       ...    18110
Average number of shells per batch           ...     2.35 (19.61%)
Average number of basis functions per batch  ...     5.88 (17.30%)
Average number of large shells per batch     ...     1.18 (50.00%)
Average number of large basis fcns per batch ...     3.53 (60.00%)
Maximum spatial batch extension              ...  19.03, 19.03, 19.03 au
Average spatial batch extension              ...   0.84,  0.84,  0.80 au

Final grid set up in    0.3 sec
Final integration                            ... done (   0.0 sec)
Change in XC energy                          ...     0.000014066
Integrated number of electrons               ...     2.000000249
Previous integrated no of electrons          ...     2.000000961

----------------
TOTAL SCF ENERGY
----------------

Total Energy       :         -311.07058400 Eh           -8464.66093 eV

Components:
Nuclear Repulsion  :            0.00000000 Eh               0.00000 eV
Electronic Energy  :         -311.07058400 Eh           -8464.66093 eV
One Electron Energy:         -323.44009576 Eh           -8801.25245 eV
Two Electron Energy:           12.36951176 Eh             336.59153 eV

Virial components:
Potential Energy   :         -630.56876789 Eh          -17158.64850 eV
Kinetic Energy     :          319.49818389 Eh            8693.98758 eV
Virial Ratio       :            1.97362239


DFT components:
N(Alpha)           :        1.000000124500 electrons
N(Beta)            :        1.000000124500 electrons
N(Total)           :        2.000000248999 electrons
E(X)               :       -9.487792556238 Eh       
E(C)               :       -0.237084215853 Eh       
E(XC)              :       -9.724876772092 Eh       
DFET-embed. en.    :        0.000000000000 Eh       

---------------
SCF CONVERGENCE
---------------

  Last Energy change         ...   -4.3769e-11  Tolerance :   1.0000e-09
  Last MAX-Density change    ...    0.0000e+00  Tolerance :   1.0000e-08
  Last RMS-Density change    ...    0.0000e+00  Tolerance :   1.0000e-09
  Last Orbital Gradient      ...    1.1208e-10  Tolerance :   2.0000e-06
  Last Orbital Rotation      ...    0.0000e+00  Tolerance :   2.0000e-06

================================================================================
                                        WARNING
Number of found core electrons (2) does not match given number of chemical core electrons (10)
================================================================================
             **** THE GBW FILE WAS UPDATED (Ar_ano-rcc-tzp_2192.575824_.gbw) ****
             **** DENSITY FILE WAS UPDATED (Ar_ano-rcc-tzp_2192.575824_.scfp) ****
             **** ENERGY FILE WAS UPDATED (Ar_ano-rcc-tzp_2192.575824_.en.tmp) ****
             **** THE GBW FILE WAS UPDATED (Ar_ano-rcc-tzp_2192.575824_.gbw) ****
             **** DENSITY FILE WAS UPDATED (Ar_ano-rcc-tzp_2192.575824_.scfp) ****
----------------
ORBITAL ENERGIES
----------------

  NO   OCC          E(Eh)            E(eV) 
   0   2.0000    -146.078957     -3975.0105 
   1   0.0000     -33.849514      -921.0921 
   2   0.0000     -32.766133      -891.6118 
   3   0.0000     -32.766133      -891.6118 
   4   0.0000     -32.766133      -891.6118 
   5   0.0000     -14.282256      -388.6399 
   6   0.0000     -13.463625      -366.3639 
   7   0.0000     -13.463625      -366.3639 
   8   0.0000     -13.463625      -366.3639 
   9   0.0000     -10.759768      -292.7882 
  10   0.0000     -10.759768      -292.7882 
  11   0.0000     -10.759768      -292.7882 
  12   0.0000     -10.759768      -292.7882 
  13   0.0000     -10.759768      -292.7882 
  14   0.0000      -7.847278      -213.5353 
  15   0.0000      -7.212962      -196.2747 
  16   0.0000      -7.212961      -196.2747 
  17   0.0000      -7.212961      -196.2747 
  18   0.0000      -7.115270      -193.6163 
  19   0.0000      -7.115270      -193.6163 
  20   0.0000      -7.115270      -193.6163 
  21   0.0000      -7.115270      -193.6163 
  22   0.0000      -7.115270      -193.6163 
  23   0.0000      -7.115270      -193.6163 
  24   0.0000      -7.115270      -193.6163 
  25   0.0000      -5.645707      -153.6275 
  26   0.0000      -5.645707      -153.6275 
  27   0.0000      -5.645707      -153.6275 
  28   0.0000      -5.645707      -153.6275 
  29   0.0000      -5.645707      -153.6275 
  30   0.0000      -4.872710      -132.5932 
  31   0.0000      -4.272570      -116.2625 
  32   0.0000      -4.272569      -116.2625 
  33   0.0000      -4.272569      -116.2625 

                    ********************************
                    * MULLIKEN POPULATION ANALYSIS *
                    ********************************

-----------------------
MULLIKEN ATOMIC CHARGES
-----------------------
   0 Ar:   16.000000
Sum of atomic charges:   16.0000000

--------------------------------
MULLIKEN REDUCED ORBITAL CHARGES
--------------------------------
  0 Ars       :     2.000000  s :     2.000000
      pz      :     0.000000  p :     0.000000
      px      :     0.000000
      py      :     0.000000
      dz2     :     0.000000  d :     0.000000
      dxz     :     0.000000
      dyz     :     0.000000
      dx2y2   :     0.000000
      dxy     :     0.000000
      f0      :     0.000000  f :     0.000000
      f+1     :     0.000000
      f-1     :     0.000000
      f+2     :     0.000000
      f-2     :     0.000000
      f+3     :     0.000000
      f-3     :     0.000000


                     *******************************
                     * LOEWDIN POPULATION ANALYSIS *
                     *******************************

----------------------
LOEWDIN ATOMIC CHARGES
----------------------
   0 Ar:   16.000000

-------------------------------
LOEWDIN REDUCED ORBITAL CHARGES
-------------------------------
  0 Ars       :     2.000000  s :     2.000000
      pz      :     0.000000  p :     0.000000
      px      :     0.000000
      py      :     0.000000
      dz2     :     0.000000  d :     0.000000
      dxz     :     0.000000
      dyz     :     0.000000
      dx2y2   :     0.000000
      dxy     :     0.000000
      f0      :     0.000000  f :     0.000000
      f+1     :     0.000000
      f-1     :     0.000000
      f+2     :     0.000000
      f-2     :     0.000000
      f+3     :     0.000000
      f-3     :     0.000000


                      *****************************
                      * MAYER POPULATION ANALYSIS *
                      *****************************

  NA   - Mulliken gross atomic population
  ZA   - Total nuclear charge
  QA   - Mulliken gross atomic charge
  VA   - Mayer's total valence
  BVA  - Mayer's bonded valence
  FA   - Mayer's free valence

  ATOM       NA         ZA         QA         VA         BVA        FA
  0 Ar     2.0000    18.0000    16.0000    -0.0000     0.0000    -0.0000

  Mayer bond orders larger than 0.100000


--------------------------
ATOM BASIS FOR ELEMENT Ar
--------------------------
 NewGTO Ar
 S 85
    1     455476.770000000019         0.000319857257
    2      64817.743000000002         0.001011611326
    3      19256.987000000001         0.002170201392
    4       6877.007300000000         0.005962898871
    5       2643.487700000000         0.015907983596
    6       1054.237500000000         0.044046512321
    7        429.371220000000         0.114459238564
    8        177.188590000000         0.254626486693
    9         73.763945000000         0.398474243264
   10         30.897007000000         0.278947568151
   11         12.999482000000         0.038335011295
   12          5.487679300000         0.003118583260
   13          2.322571600000        -0.001384658127
   14          0.984980700000         0.001002731402
   15          0.418397300000        -0.000643174485
   16          0.177959400000         0.000282017582
   17          0.071183800000        -0.000076279346
   18     455476.770000000019         0.000000369120
   19      64817.743000000002         0.000001169023
   20      19256.987000000001         0.000002514883
   21       6877.007300000000         0.000006932794
   22       2643.487700000000         0.000018676776
   23       1054.237500000000         0.000052655496
   24        429.371220000000         0.000143322332
   25        177.188590000000         0.000353152883
   26         73.763945000000         0.000704675755
   27         30.897007000000         0.000749283152
   28         12.999482000000        -0.000552123558
   29          5.487679300000        -0.002559480139
   30          2.322571600000        -0.001540585501
   31          0.984980700000        -0.000020063166
   32          0.418397300000        -0.000047309964
   33          0.177959400000         0.000017969749
   34          0.071183800000        -0.000005207409
   35     455476.770000000019         0.000000018815
   36      64817.743000000002         0.000000059535
   37      19256.987000000001         0.000000128545
   38       6877.007300000000         0.000000352270
   39       2643.487700000000         0.000000958103
   40       1054.237500000000         0.000002678888
   41        429.371220000000         0.000007404733
   42        177.188590000000         0.000018219224
   43         73.763945000000         0.000037846603
   44         30.897007000000         0.000041099331
   45         12.999482000000        -0.000031727695
   46          5.487679300000        -0.000214818511
   47          2.322571600000        -0.000227455689
   48          0.984980700000         0.000223200520
   49          0.418397300000         0.000443260535
   50          0.177959400000         0.000166566605
   51          0.071183800000         0.000002955014
   52     455476.770000000019         0.000000018809
   53      64817.743000000002         0.000000059500
   54      19256.987000000001         0.000000128564
   55       6877.007300000000         0.000000352147
   56       2643.487700000000         0.000000958530
   57       1054.237500000000         0.000002682859
   58        429.371220000000         0.000007428734
   59        177.188590000000         0.000018379961
   60         73.763945000000         0.000038655760
   61         30.897007000000         0.000042969742
   62         12.999482000000        -0.000047011252
   63          5.487679300000        -0.000226464226
   64          2.322571600000        -0.000362802241
   65          0.984980700000         0.001032175888
   66          0.418397300000         0.000001452292
   67          0.177959400000        -0.000644693763
   68          0.071183800000        -0.000024977435
   69     455476.770000000019         0.000000019149
   70      64817.743000000002         0.000000057885
   71      19256.987000000001         0.000000143496
   72       6877.007300000000         0.000000298769
   73       2643.487700000000         0.000001165852
   74       1054.237500000000         0.000002116144
   75        429.371220000000         0.000009290062
   76        177.188590000000         0.000014076534
   77         73.763945000000         0.000053434522
   78         30.897007000000         0.000011536070
   79         12.999482000000         0.000014403452
   80          5.487679300000        -0.000512685757
   81          2.322571600000         0.000270309116
   82          0.984980700000         0.001094866284
   83          0.418397300000        -0.001737094918
   84          0.177959400000         0.000814904192
   85          0.071183800000         0.000096384121
 S 84
    1     455476.770000000019        -0.000001320772
    2      64817.743000000002        -0.000004177201
    3      19256.987000000001        -0.000008961314
    4       6877.007300000000        -0.000024622329
    5       2643.487700000000        -0.000065688117
    6       1054.237500000000        -0.000181879270
    7        429.371220000000        -0.000472631355
    8        177.188590000000        -0.001051417631
    9         73.763945000000        -0.001645401663
   10         30.897007000000        -0.001151845572
   11         12.999482000000        -0.000158295028
   12          5.487679300000        -0.000012877425
   13          2.322571600000         0.000005717606
   14          0.984980700000        -0.000004140533
   15          0.418397300000         0.000002655831
   16          0.177959400000        -0.000001164522
   17     455476.770000000019         0.000090487272
   18      64817.743000000002         0.000286577630
   19      19256.987000000001         0.000616505712
   20       6877.007300000000         0.001699525560
   21       2643.487700000000         0.004578480002
   22       1054.237500000000         0.012908123566
   23        429.371220000000         0.035134458954
   24        177.188590000000         0.086572938935
   25         73.763945000000         0.172746292483
   26         30.897007000000         0.183681481114
   27         12.999482000000        -0.135349196964
   28          5.487679300000        -0.627438508274
   29          2.322571600000        -0.377663672258
   30          0.984980700000        -0.004918343592
   31          0.418397300000        -0.011597704151
   32          0.177959400000         0.004405157282
   33          0.071183800000        -0.001276559598
   34     455476.770000000019         0.000002789771
   35      64817.743000000002         0.000008827682
   36      19256.987000000001         0.000019060381
   37       6877.007300000000         0.000052233666
   38       2643.487700000000         0.000142065073
   39       1054.237500000000         0.000397218652
   40        429.371220000000         0.001097954960
   41        177.188590000000         0.002701500233
   42         73.763945000000         0.005611798102
   43         30.897007000000         0.006094104295
   44         12.999482000000        -0.004704501958
   45          5.487679300000        -0.031852742644
   46          2.322571600000        -0.033726551229
   47          0.984980700000         0.033095605522
   48          0.418397300000         0.065725545050
   49          0.177959400000         0.024698072692
   50          0.071183800000         0.000438161995
   51     455476.770000000019         0.000002939488
   52      64817.743000000002         0.000009298907
   53      19256.987000000001         0.000020092527
   54       6877.007300000000         0.000055034893
   55       2643.487700000000         0.000149802810
   56       1054.237500000000         0.000419287719
   57        429.371220000000         0.001160991793
   58        177.188590000000         0.002872492659
   59         73.763945000000         0.006041274326
   60         30.897007000000         0.006715480389
   61         12.999482000000        -0.007347103484
   62          5.487679300000        -0.035392720801
   63          2.322571600000        -0.056700162370
   64          0.984980700000         0.161312511090
   65          0.418397300000         0.000226969962
   66          0.177959400000        -0.100755279173
   67          0.071183800000        -0.003903571832
   68     455476.770000000019         0.000003525448
   69      64817.743000000002         0.000010657078
   70      19256.987000000001         0.000026418943
   71       6877.007300000000         0.000055006209
   72       2643.487700000000         0.000214644011
   73       1054.237500000000         0.000389601556
   74        429.371220000000         0.001710385692
   75        177.188590000000         0.002591619178
   76         73.763945000000         0.009837786444
   77         30.897007000000         0.002123896472
   78         12.999482000000         0.002651807833
   79          5.487679300000        -0.094390158800
   80          2.322571600000         0.049766392077
   81          0.984980700000         0.201574943444
   82          0.418397300000        -0.319815136461
   83          0.177959400000         0.150031349794
   84          0.071183800000         0.017745202344
 S 82
    1     455476.770000000019         0.000000107968
    2      64817.743000000002         0.000000341470
    3      19256.987000000001         0.000000732554
    4       6877.007300000000         0.000002012783
    5       2643.487700000000         0.000005369757
    6       1054.237500000000         0.000014867947
    7        429.371220000000         0.000038635838
    8        177.188590000000         0.000085949441
    9         73.763945000000         0.000134505404
   10         30.897007000000         0.000094159048
   11         12.999482000000         0.000012940024
   12          5.487679300000         0.000001052681
   13          2.322571600000        -0.000000467393
   14          0.984980700000         0.000000338473
   15     455476.770000000019         0.000013413014
   16      64817.743000000002         0.000042479675
   17      19256.987000000001         0.000091385228
   18       6877.007300000000         0.000251922291
   19       2643.487700000000         0.000678672446
   20       1054.237500000000         0.001913383436
   21        429.371220000000         0.005208014276
   22        177.188590000000         0.012832789100
   23         73.763945000000         0.025606347278
   24         30.897007000000         0.027227280692
   25         12.999482000000        -0.020062940231
   26          5.487679300000        -0.093005806998
   27          2.322571600000        -0.055981445431
   28          0.984980700000        -0.000729050750
   29          0.418397300000        -0.001719138720
   30          0.177959400000         0.000652980655
   31          0.071183800000        -0.000189225644
   32     455476.770000000019        -0.000022209834
   33      64817.743000000002        -0.000070278645
   34      19256.987000000001        -0.000151742873
   35       6877.007300000000        -0.000415840927
   36       2643.487700000000        -0.001131003737
   37       1054.237500000000        -0.003162323938
   38        429.371220000000        -0.008741002559
   39        177.188590000000        -0.021507093924
   40         73.763945000000        -0.044676460654
   41         30.897007000000        -0.048516180697
   42         12.999482000000         0.037453324725
   43          5.487679300000         0.253584996735
   44          2.322571600000         0.268502699406
   45          0.984980700000        -0.263479635398
   46          0.418397300000        -0.523252026153
   47          0.177959400000        -0.196625475963
   48          0.071183800000        -0.003488280721
   49     455476.770000000019        -0.000018179738
   50      64817.743000000002        -0.000057510595
   51      19256.987000000001        -0.000124265487
   52       6877.007300000000        -0.000340372199
   53       2643.487700000000        -0.000926479717
   54       1054.237500000000        -0.002593152747
   55        429.371220000000        -0.007180341612
   56        177.188590000000        -0.017765395673
   57         73.763945000000        -0.037363238667
   58         30.897007000000        -0.041532975161
   59         12.999482000000         0.045439350403
   60          5.487679300000         0.218892009036
   61          2.322571600000         0.350671329381
   62          0.984980700000        -0.997663328382
   63          0.418397300000        -0.001403732458
   64          0.177959400000         0.623137328237
   65          0.071183800000         0.024142271667
   66     455476.770000000019        -0.000014840788
   67      64817.743000000002        -0.000044862228
   68      19256.987000000001        -0.000111213657
   69       6877.007300000000        -0.000231555127
   70       2643.487700000000        -0.000903569292
   71       1054.237500000000        -0.001640073719
   72        429.371220000000        -0.007200070385
   73        177.188590000000        -0.010909726723
   74         73.763945000000        -0.041413322836
   75         30.897007000000        -0.008940792804
   76         12.999482000000        -0.011163097970
   77          5.487679300000         0.397346510926
   78          2.322571600000        -0.209497499574
   79          0.984980700000        -0.848553509027
   80          0.418397300000         1.346299553142
   81          0.177959400000        -0.631574669730
   82          0.071183800000        -0.074700523091
 S 79
    1     455476.770000000019         0.000000002447
    2      64817.743000000002         0.000000007740
    3      19256.987000000001         0.000000016604
    4       6877.007300000000         0.000000045623
    5       2643.487700000000         0.000000121713
    6       1054.237500000000         0.000000337003
    7        429.371220000000         0.000000875735
    8        177.188590000000         0.000001948163
    9         73.763945000000         0.000003048752
   10         30.897007000000         0.000002134246
   11         12.999482000000         0.000000293304
   12     455476.770000000019         0.000002811119
   13      64817.743000000002         0.000008902952
   14      19256.987000000001         0.000019152650
   15       6877.007300000000         0.000052798243
   16       2643.487700000000         0.000142237166
   17       1054.237500000000         0.000401009704
   18        429.371220000000         0.001091503264
   19        177.188590000000         0.002689514744
   20         73.763945000000         0.005366615785
   21         30.897007000000         0.005706333385
   22         12.999482000000        -0.004204820413
   23          5.487679300000        -0.019492293318
   24          2.322571600000        -0.011732673367
   25          0.984980700000        -0.000152795524
   26          0.418397300000        -0.000360299612
   27          0.177959400000         0.000136852642
   28          0.071183800000        -0.000039658188
   29     455476.770000000019         0.000017929699
   30      64817.743000000002         0.000056735001
   31      19256.987000000001         0.000122499972
   32       6877.007300000000         0.000335702763
   33       2643.487700000000         0.000913044040
   34       1054.237500000000         0.002552901401
   35        429.371220000000         0.007056493298
   36        177.188590000000         0.017362386420
   37         73.763945000000         0.036066703224
   38         30.897007000000         0.039166457350
   39         12.999482000000        -0.030235563154
   40          5.487679300000        -0.204715742595
   41          2.322571600000        -0.216758602462
   42          0.984980700000         0.212703550737
   43          0.418397300000         0.422414292949
   44          0.177959400000         0.158733090849
   45          0.071183800000         0.002816041909
   46     455476.770000000019        -0.000018511087
   47      64817.743000000002        -0.000058558800
   48      19256.987000000001        -0.000126530386
   49       6877.007300000000        -0.000346575923
   50       2643.487700000000        -0.000943366009
   51       1054.237500000000        -0.002640416313
   52        429.371220000000        -0.007311212635
   53        177.188590000000        -0.018089193012
   54         73.763945000000        -0.038044232070
   55         30.897007000000        -0.042289967410
   56         12.999482000000         0.046267541399
   57          5.487679300000         0.222881599323
   58          2.322571600000         0.357062768409
   59          0.984980700000        -1.015847034318
   60          0.418397300000        -0.001429317299
   61          0.177959400000         0.634494812883
   62          0.071183800000         0.024582295827
   63     455476.770000000019        -0.000025954013
   64      64817.743000000002        -0.000078456407
   65      19256.987000000001        -0.000194493772
   66       6877.007300000000        -0.000404950535
   67       2643.487700000000        -0.001580189015
   68       1054.237500000000        -0.002868209995
   69        429.371220000000        -0.012591698531
   70        177.188590000000        -0.019079256535
   71         73.763945000000        -0.072424858147
   72         30.897007000000        -0.015635925983
   73         12.999482000000        -0.019522359753
   74          5.487679300000         0.694891467734
   75          2.322571600000        -0.366375495852
   76          0.984980700000        -1.483975767058
   77          0.418397300000         2.354448942594
   78          0.177959400000        -1.104516680441
   79          0.071183800000        -0.130638509975
 S 80
    1     455476.770000000019        -0.000000005706
    2      64817.743000000002        -0.000000018047
    3      19256.987000000001        -0.000000038715
    4       6877.007300000000        -0.000000106375
    5       2643.487700000000        -0.000000283791
    6       1054.237500000000        -0.000000785769
    7        429.371220000000        -0.000002041898
    8        177.188590000000        -0.000004542415
    9         73.763945000000        -0.000007108590
   10         30.897007000000        -0.000004976291
   11         12.999482000000        -0.000000683878
   12          5.487679300000        -0.000000055634
   13     455476.770000000019         0.000001358953
   14      64817.743000000002         0.000004303870
   15      19256.987000000001         0.000009258785
   16       6877.007300000000         0.000025523755
   17       2643.487700000000         0.000068760369
   18       1054.237500000000         0.000193856331
   19        429.371220000000         0.000527655106
   20        177.188590000000         0.001300166691
   21         73.763945000000         0.002594332343
   22         30.897007000000         0.002758558812
   23         12.999482000000        -0.002032696588
   24          5.487679300000        -0.009422975116
   25          2.322571600000        -0.005671815388
   26          0.984980700000        -0.000073864496
   27          0.418397300000        -0.000174176236
   28          0.177959400000         0.000066157379
   29          0.071183800000        -0.000019171583
   30     455476.770000000019        -0.000003640613
   31      64817.743000000002        -0.000011520003
   32      19256.987000000001        -0.000024873536
   33       6877.007300000000        -0.000068164217
   34       2643.487700000000        -0.000185392969
   35       1054.237500000000        -0.000518364885
   36        429.371220000000        -0.001432816143
   37        177.188590000000        -0.003525420701
   38         73.763945000000        -0.007323319450
   39         30.897007000000        -0.007952722408
   40         12.999482000000         0.006139310443
   41          5.487679300000         0.041567391680
   42          2.322571600000         0.044012686148
   43          0.984980700000        -0.043189310666
   44          0.418397300000        -0.085770933605
   45          0.177959400000        -0.032230645656
   46          0.071183800000        -0.000571795386
   47     455476.770000000019         0.000021993986
   48      64817.743000000002         0.000069576757
   49      19256.987000000001         0.000150337333
   50       6877.007300000000         0.000411784882
   51       2643.487700000000         0.001120862227
   52       1054.237500000000         0.003137215970
   53        429.371220000000         0.008686832046
   54        177.188590000000         0.021492711179
   55         73.763945000000         0.045202331102
   56         30.897007000000         0.050246910114
   57         12.999482000000        -0.054972872676
   58          5.487679300000        -0.264817221985
   59          2.322571600000        -0.424244848796
   60          0.984980700000         1.206980703687
   61          0.418397300000         0.001698246233
   62          0.177959400000        -0.753876292265
   63          0.071183800000        -0.029207504392
   64     455476.770000000019        -0.000034582273
   65      64817.743000000002        -0.000104538778
   66      19256.987000000001        -0.000259152084
   67       6877.007300000000        -0.000539573963
   68       2643.487700000000        -0.002105513573
   69       1054.237500000000        -0.003821729562
   70        429.371220000000        -0.016777734753
   71        177.188590000000        -0.025422043313
   72         73.763945000000        -0.096502076869
   73         30.897007000000        -0.020833997743
   74         12.999482000000        -0.026012453594
   75          5.487679300000         0.925904054911
   76          2.322571600000        -0.488174877633
   77          0.984980700000        -1.977314795056
   78          0.418397300000         3.137171665294
   79          0.177959400000        -1.471706763751
   80          0.071183800000        -0.174068515344
 P 48
    1       1462.496200000000         0.000947126666
    2        354.067310000000         0.006111876451
    3        126.697790000000         0.025364686099
    4         49.989095000000         0.091562832063
    5         20.509295000000         0.240197079355
    6          8.580464100000         0.409938881291
    7          3.630104900000         0.338870495956
    8          1.546528000000         0.071806094189
    9          0.661936900000         0.003460278268
   10          0.284242800000         0.000285923359
   11          0.122346300000         0.000468782352
   12          0.048938500000        -0.000084157087
   13       1462.496200000000         0.000028291436
   14        354.067310000000         0.000183319513
   15        126.697790000000         0.000767203756
   16         49.989095000000         0.002828975254
   17         20.509295000000         0.007666388923
   18          8.580464100000         0.013748697626
   19          3.630104900000         0.011364649905
   20          1.546528000000        -0.016687797208
   21          0.661936900000        -0.046063728615
   22          0.284242800000        -0.042254669945
   23          0.122346300000        -0.015114446629
   24          0.048938500000        -0.000696975055
   25       1462.496200000000         0.000033122645
   26        354.067310000000         0.000201469255
   27        126.697790000000         0.000916987542
   28         49.989095000000         0.003120334945
   29         20.509295000000         0.009469986538
   30          8.580464100000         0.014160244973
   31          3.630104900000         0.017279638496
   32          1.546528000000        -0.044318312694
   33          0.661936900000        -0.072427194081
   34          0.284242800000         0.050250251476
   35          0.122346300000         0.059529422733
   36          0.048938500000         0.006127098633
   37       1462.496200000000         0.000050123806
   38        354.067310000000         0.000293528671
   39        126.697790000000         0.001419993146
   40         49.989095000000         0.004616119694
   41         20.509295000000         0.015560014220
   42          8.580464100000         0.018360343082
   43          3.630104900000         0.025007625357
   44          1.546528000000        -0.147665607567
   45          0.661936900000         0.071855196901
   46          0.284242800000         0.110030266016
   47          0.122346300000        -0.108949815659
   48          0.048938500000        -0.011640450017
 P 48
    1       1462.496200000000        -0.000164382351
    2        354.067310000000        -0.001060771123
    3        126.697790000000        -0.004402269382
    4         49.989095000000        -0.015891552947
    5         20.509295000000        -0.041688363262
    6          8.580464100000        -0.071148579510
    7          3.630104900000        -0.058814022103
    8          1.546528000000        -0.012462593413
    9          0.661936900000        -0.000600562412
   10          0.284242800000        -0.000049624570
   11          0.122346300000        -0.000081361393
   12          0.048938500000         0.000014606219
   13       1462.496200000000         0.000190963645
   14        354.067310000000         0.001237383725
   15        126.697790000000         0.005178529147
   16         49.989095000000         0.019095228212
   17         20.509295000000         0.051747163867
   18          8.580464100000         0.092801984893
   19          3.630104900000         0.076709961734
   20          1.546528000000        -0.112640538504
   21          0.661936900000        -0.310924391769
   22          0.284242800000        -0.285213723400
   23          0.122346300000        -0.102020619398
   24          0.048938500000        -0.004704494220
   25       1462.496200000000         0.000189143185
   26        354.067310000000         0.001150467795
   27        126.697790000000         0.005236355465
   28         49.989095000000         0.017818325987
   29         20.509295000000         0.054077305860
   30          8.580464100000         0.080860505490
   31          3.630104900000         0.098673455590
   32          1.546528000000        -0.253074800176
   33          0.661936900000        -0.413587443996
   34          0.284242800000         0.286948477459
   35          0.122346300000         0.339936153854
   36          0.048938500000         0.034988115925
   37       1462.496200000000         0.000208571817
   38        354.067310000000         0.001221411812
   39        126.697790000000         0.005908780213
   40         49.989095000000         0.019208287571
   41         20.509295000000         0.064747287241
   42          8.580464100000         0.076399827828
   43          3.630104900000         0.104060052858
   44          1.546528000000        -0.614456219234
   45          0.661936900000         0.298999024538
   46          0.284242800000         0.457850560950
   47          0.122346300000        -0.453354663413
   48          0.048938500000        -0.048437459648
 P 47
    1       1462.496200000000        -0.000028386747
    2        354.067310000000        -0.000183181721
    3        126.697790000000        -0.000760216096
    4         49.989095000000        -0.002744269670
    5         20.509295000000        -0.007199051676
    6          8.580464100000        -0.012286457430
    7          3.630104900000        -0.010156435783
    8          1.546528000000        -0.002152131841
    9          0.661936900000        -0.000103709513
   10          0.284242800000        -0.000008569534
   11          0.122346300000        -0.000014050081
   12       1462.496200000000        -0.000187998143
   13        354.067310000000        -0.001218168215
   14        126.697790000000        -0.005098111024
   15         49.989095000000        -0.018798695669
   16         20.509295000000        -0.050943574724
   17          8.580464100000        -0.091360849535
   18          3.630104900000        -0.075518721715
   19          1.546528000000         0.110891327395
   20          0.661936900000         0.306096002210
   21          0.284242800000         0.280784598504
   22          0.122346300000         0.100436326539
   23          0.048938500000         0.004631437453
   24       1462.496200000000         0.000121075423
   25        354.067310000000         0.000736444059
   26        126.697790000000         0.003351925961
   27         49.989095000000         0.011405969258
   28         20.509295000000         0.034616275886
   29          8.580464100000         0.051760891594
   30          3.630104900000         0.063163419609
   31          1.546528000000        -0.161999695869
   32          0.661936900000        -0.264747972125
   33          0.284242800000         0.183683108891
   34          0.122346300000         0.217601884901
   35          0.048938500000         0.022396793892
   36       1462.496200000000         0.000318957108
   37        354.067310000000         0.001867836148
   38        126.697790000000         0.009035964091
   39         49.989095000000         0.029374150078
   40         20.509295000000         0.099014372079
   41          8.580464100000         0.116833944736
   42          3.630104900000         0.159133165749
   43          1.546528000000        -0.939653216535
   44          0.661936900000         0.457242332900
   45          0.284242800000         0.700165022050
   46          0.122346300000        -0.693289699692
   47          0.048938500000        -0.074072673259
 P 47
    1       1462.496200000000        -0.000012794992
    2        354.067310000000        -0.000082567006
    3        126.697790000000        -0.000342658462
    4         49.989095000000        -0.001236947269
    5         20.509295000000        -0.003244887851
    6          8.580464100000        -0.005537976145
    7          3.630104900000        -0.004577893946
    8          1.546528000000        -0.000970048109
    9          0.661936900000        -0.000046745843
   10          0.284242800000        -0.000003862617
   11          0.122346300000        -0.000006332909
   12       1462.496200000000         0.000057927235
   13        354.067310000000         0.000375350073
   14        126.697790000000         0.001570863794
   15         49.989095000000         0.005792378837
   16         20.509295000000         0.015697072251
   17          8.580464100000         0.028150711131
   18          3.630104900000         0.023269329596
   19          1.546528000000        -0.034168571552
   20          0.661936900000        -0.094316331124
   21          0.284242800000        -0.086517213475
   22          0.122346300000        -0.030947107320
   23          0.048938500000        -0.001427069237
   24       1462.496200000000        -0.000246768268
   25        354.067310000000        -0.001500973695
   26        126.697790000000        -0.006831683461
   27         49.989095000000        -0.023246925034
   28         20.509295000000        -0.070552703788
   29          8.580464100000        -0.105495775007
   30          3.630104900000        -0.128735686317
   31          1.546528000000         0.330177532501
   32          0.661936900000         0.539592569617
   33          0.284242800000        -0.374371293296
   34          0.122346300000        -0.443502396958
   35          0.048938500000        -0.045647728556
   36       1462.496200000000         0.000323088688
   37        354.067310000000         0.001892030986
   38        126.697790000000         0.009153010596
   39         49.989095000000         0.029754645348
   40         20.509295000000         0.100296945365
   41          8.580464100000         0.118347342168
   42          3.630104900000         0.161194482131
   43          1.546528000000        -0.951824925432
   44          0.661936900000         0.463165178130
   45          0.284242800000         0.709234543315
   46          0.122346300000        -0.702270162120
   47          0.048938500000        -0.075032166613
 D 10
    1          4.328841700000         0.023696761601
    2          1.774230200000         0.164645744817
    3          0.727190600000         0.511794276883
    4          0.298048200000         0.259267315814
    5          0.119219300000         0.024473823851
    6          4.328841700000        -0.069706353180
    7          1.774230200000         0.386955671571
    8          0.727190600000         0.171177607179
    9          0.298048200000        -0.503791919503
   10          0.119219300000        -0.036194477969
 D 10
    1          4.328841700000        -0.014700350263
    2          1.774230200000        -0.102138433888
    3          0.727190600000        -0.317492966319
    4          0.298048200000        -0.160837181824
    5          0.119219300000        -0.015182402935
    6          4.328841700000        -0.112365679626
    7          1.774230200000         0.623767203955
    8          0.727190600000         0.275935941128
    9          0.298048200000        -0.812105623694
   10          0.119219300000        -0.058344999130
 F 4
    1          1.631174000000         0.245409970118
    2          0.820328800000         0.580760500278
    3          0.412549100000         0.264213740127
    4          0.165019600000         0.038934170019
 end
  // -----------------------------------------------
  // The basis set
  // -----------------------------------------------
  BAS[ATNO] = new BFNGauss[NSH];
  // Basis function   1 L = s
  InitBFNGauss(BAS[ATNO][  0]);
  BAS[ATNO][  0].l  = 0;
  BAS[ATNO][  0].ng = 85;
  BAS[ATNO][  0].a[  0] =    455476.770000000019;     BAS[ATNO][  0].d[  0] =         0.000319857257;
  BAS[ATNO][  0].a[  1] =     64817.743000000002;     BAS[ATNO][  0].d[  1] =         0.001011611326;
  BAS[ATNO][  0].a[  2] =     19256.987000000001;     BAS[ATNO][  0].d[  2] =         0.002170201392;
  BAS[ATNO][  0].a[  3] =      6877.007300000000;     BAS[ATNO][  0].d[  3] =         0.005962898871;
  BAS[ATNO][  0].a[  4] =      2643.487700000000;     BAS[ATNO][  0].d[  4] =         0.015907983596;
  BAS[ATNO][  0].a[  5] =      1054.237500000000;     BAS[ATNO][  0].d[  5] =         0.044046512321;
  BAS[ATNO][  0].a[  6] =       429.371220000000;     BAS[ATNO][  0].d[  6] =         0.114459238564;
  BAS[ATNO][  0].a[  7] =       177.188590000000;     BAS[ATNO][  0].d[  7] =         0.254626486693;
  BAS[ATNO][  0].a[  8] =        73.763945000000;     BAS[ATNO][  0].d[  8] =         0.398474243264;
  BAS[ATNO][  0].a[  9] =        30.897007000000;     BAS[ATNO][  0].d[  9] =         0.278947568151;
  BAS[ATNO][  0].a[ 10] =        12.999482000000;     BAS[ATNO][  0].d[ 10] =         0.038335011295;
  BAS[ATNO][  0].a[ 11] =         5.487679300000;     BAS[ATNO][  0].d[ 11] =         0.003118583260;
  BAS[ATNO][  0].a[ 12] =         2.322571600000;     BAS[ATNO][  0].d[ 12] =        -0.001384658127;
  BAS[ATNO][  0].a[ 13] =         0.984980700000;     BAS[ATNO][  0].d[ 13] =         0.001002731402;
  BAS[ATNO][  0].a[ 14] =         0.418397300000;     BAS[ATNO][  0].d[ 14] =        -0.000643174485;
  BAS[ATNO][  0].a[ 15] =         0.177959400000;     BAS[ATNO][  0].d[ 15] =         0.000282017582;
  BAS[ATNO][  0].a[ 16] =         0.071183800000;     BAS[ATNO][  0].d[ 16] =        -0.000076279346;
  BAS[ATNO][  0].a[ 17] =    455476.770000000019;     BAS[ATNO][  0].d[ 17] =         0.000000369120;
  BAS[ATNO][  0].a[ 18] =     64817.743000000002;     BAS[ATNO][  0].d[ 18] =         0.000001169023;
  BAS[ATNO][  0].a[ 19] =     19256.987000000001;     BAS[ATNO][  0].d[ 19] =         0.000002514883;
  BAS[ATNO][  0].a[ 20] =      6877.007300000000;     BAS[ATNO][  0].d[ 20] =         0.000006932794;
  BAS[ATNO][  0].a[ 21] =      2643.487700000000;     BAS[ATNO][  0].d[ 21] =         0.000018676776;
  BAS[ATNO][  0].a[ 22] =      1054.237500000000;     BAS[ATNO][  0].d[ 22] =         0.000052655496;
  BAS[ATNO][  0].a[ 23] =       429.371220000000;     BAS[ATNO][  0].d[ 23] =         0.000143322332;
  BAS[ATNO][  0].a[ 24] =       177.188590000000;     BAS[ATNO][  0].d[ 24] =         0.000353152883;
  BAS[ATNO][  0].a[ 25] =        73.763945000000;     BAS[ATNO][  0].d[ 25] =         0.000704675755;
  BAS[ATNO][  0].a[ 26] =        30.897007000000;     BAS[ATNO][  0].d[ 26] =         0.000749283152;
  BAS[ATNO][  0].a[ 27] =        12.999482000000;     BAS[ATNO][  0].d[ 27] =        -0.000552123558;
  BAS[ATNO][  0].a[ 28] =         5.487679300000;     BAS[ATNO][  0].d[ 28] =        -0.002559480139;
  BAS[ATNO][  0].a[ 29] =         2.322571600000;     BAS[ATNO][  0].d[ 29] =        -0.001540585501;
  BAS[ATNO][  0].a[ 30] =         0.984980700000;     BAS[ATNO][  0].d[ 30] =        -0.000020063166;
  BAS[ATNO][  0].a[ 31] =         0.418397300000;     BAS[ATNO][  0].d[ 31] =        -0.000047309964;
  BAS[ATNO][  0].a[ 32] =         0.177959400000;     BAS[ATNO][  0].d[ 32] =         0.000017969749;
  BAS[ATNO][  0].a[ 33] =         0.071183800000;     BAS[ATNO][  0].d[ 33] =        -0.000005207409;
  BAS[ATNO][  0].a[ 34] =    455476.770000000019;     BAS[ATNO][  0].d[ 34] =         0.000000018815;
  BAS[ATNO][  0].a[ 35] =     64817.743000000002;     BAS[ATNO][  0].d[ 35] =         0.000000059535;
  BAS[ATNO][  0].a[ 36] =     19256.987000000001;     BAS[ATNO][  0].d[ 36] =         0.000000128545;
  BAS[ATNO][  0].a[ 37] =      6877.007300000000;     BAS[ATNO][  0].d[ 37] =         0.000000352270;
  BAS[ATNO][  0].a[ 38] =      2643.487700000000;     BAS[ATNO][  0].d[ 38] =         0.000000958103;
  BAS[ATNO][  0].a[ 39] =      1054.237500000000;     BAS[ATNO][  0].d[ 39] =         0.000002678888;
  BAS[ATNO][  0].a[ 40] =       429.371220000000;     BAS[ATNO][  0].d[ 40] =         0.000007404733;
  BAS[ATNO][  0].a[ 41] =       177.188590000000;     BAS[ATNO][  0].d[ 41] =         0.000018219224;
  BAS[ATNO][  0].a[ 42] =        73.763945000000;     BAS[ATNO][  0].d[ 42] =         0.000037846603;
  BAS[ATNO][  0].a[ 43] =        30.897007000000;     BAS[ATNO][  0].d[ 43] =         0.000041099331;
  BAS[ATNO][  0].a[ 44] =        12.999482000000;     BAS[ATNO][  0].d[ 44] =        -0.000031727695;
  BAS[ATNO][  0].a[ 45] =         5.487679300000;     BAS[ATNO][  0].d[ 45] =        -0.000214818511;
  BAS[ATNO][  0].a[ 46] =         2.322571600000;     BAS[ATNO][  0].d[ 46] =        -0.000227455689;
  BAS[ATNO][  0].a[ 47] =         0.984980700000;     BAS[ATNO][  0].d[ 47] =         0.000223200520;
  BAS[ATNO][  0].a[ 48] =         0.418397300000;     BAS[ATNO][  0].d[ 48] =         0.000443260535;
  BAS[ATNO][  0].a[ 49] =         0.177959400000;     BAS[ATNO][  0].d[ 49] =         0.000166566605;
  BAS[ATNO][  0].a[ 50] =         0.071183800000;     BAS[ATNO][  0].d[ 50] =         0.000002955014;
  BAS[ATNO][  0].a[ 51] =    455476.770000000019;     BAS[ATNO][  0].d[ 51] =         0.000000018809;
  BAS[ATNO][  0].a[ 52] =     64817.743000000002;     BAS[ATNO][  0].d[ 52] =         0.000000059500;
  BAS[ATNO][  0].a[ 53] =     19256.987000000001;     BAS[ATNO][  0].d[ 53] =         0.000000128564;
  BAS[ATNO][  0].a[ 54] =      6877.007300000000;     BAS[ATNO][  0].d[ 54] =         0.000000352147;
  BAS[ATNO][  0].a[ 55] =      2643.487700000000;     BAS[ATNO][  0].d[ 55] =         0.000000958530;
  BAS[ATNO][  0].a[ 56] =      1054.237500000000;     BAS[ATNO][  0].d[ 56] =         0.000002682859;
  BAS[ATNO][  0].a[ 57] =       429.371220000000;     BAS[ATNO][  0].d[ 57] =         0.000007428734;
  BAS[ATNO][  0].a[ 58] =       177.188590000000;     BAS[ATNO][  0].d[ 58] =         0.000018379961;
  BAS[ATNO][  0].a[ 59] =        73.763945000000;     BAS[ATNO][  0].d[ 59] =         0.000038655760;
  BAS[ATNO][  0].a[ 60] =        30.897007000000;     BAS[ATNO][  0].d[ 60] =         0.000042969742;
  BAS[ATNO][  0].a[ 61] =        12.999482000000;     BAS[ATNO][  0].d[ 61] =        -0.000047011252;
  BAS[ATNO][  0].a[ 62] =         5.487679300000;     BAS[ATNO][  0].d[ 62] =        -0.000226464226;
  BAS[ATNO][  0].a[ 63] =         2.322571600000;     BAS[ATNO][  0].d[ 63] =        -0.000362802241;
  BAS[ATNO][  0].a[ 64] =         0.984980700000;     BAS[ATNO][  0].d[ 64] =         0.001032175888;
  BAS[ATNO][  0].a[ 65] =         0.418397300000;     BAS[ATNO][  0].d[ 65] =         0.000001452292;
  BAS[ATNO][  0].a[ 66] =         0.177959400000;     BAS[ATNO][  0].d[ 66] =        -0.000644693763;
  BAS[ATNO][  0].a[ 67] =         0.071183800000;     BAS[ATNO][  0].d[ 67] =        -0.000024977435;
  BAS[ATNO][  0].a[ 68] =    455476.770000000019;     BAS[ATNO][  0].d[ 68] =         0.000000019149;
  BAS[ATNO][  0].a[ 69] =     64817.743000000002;     BAS[ATNO][  0].d[ 69] =         0.000000057885;
  BAS[ATNO][  0].a[ 70] =     19256.987000000001;     BAS[ATNO][  0].d[ 70] =         0.000000143496;
  BAS[ATNO][  0].a[ 71] =      6877.007300000000;     BAS[ATNO][  0].d[ 71] =         0.000000298769;
  BAS[ATNO][  0].a[ 72] =      2643.487700000000;     BAS[ATNO][  0].d[ 72] =         0.000001165852;
  BAS[ATNO][  0].a[ 73] =      1054.237500000000;     BAS[ATNO][  0].d[ 73] =         0.000002116144;
  BAS[ATNO][  0].a[ 74] =       429.371220000000;     BAS[ATNO][  0].d[ 74] =         0.000009290062;
  BAS[ATNO][  0].a[ 75] =       177.188590000000;     BAS[ATNO][  0].d[ 75] =         0.000014076534;
  BAS[ATNO][  0].a[ 76] =        73.763945000000;     BAS[ATNO][  0].d[ 76] =         0.000053434522;
  BAS[ATNO][  0].a[ 77] =        30.897007000000;     BAS[ATNO][  0].d[ 77] =         0.000011536070;
  BAS[ATNO][  0].a[ 78] =        12.999482000000;     BAS[ATNO][  0].d[ 78] =         0.000014403452;
  BAS[ATNO][  0].a[ 79] =         5.487679300000;     BAS[ATNO][  0].d[ 79] =        -0.000512685757;
  BAS[ATNO][  0].a[ 80] =         2.322571600000;     BAS[ATNO][  0].d[ 80] =         0.000270309116;
  BAS[ATNO][  0].a[ 81] =         0.984980700000;     BAS[ATNO][  0].d[ 81] =         0.001094866284;
  BAS[ATNO][  0].a[ 82] =         0.418397300000;     BAS[ATNO][  0].d[ 82] =        -0.001737094918;
  BAS[ATNO][  0].a[ 83] =         0.177959400000;     BAS[ATNO][  0].d[ 83] =         0.000814904192;
  BAS[ATNO][  0].a[ 84] =         0.071183800000;     BAS[ATNO][  0].d[ 84] =         0.000096384121;

  // Basis function   2 L = s
  InitBFNGauss(BAS[ATNO][  1]);
  BAS[ATNO][  1].l  = 0;
  BAS[ATNO][  1].ng = 84;
  BAS[ATNO][  1].a[  0] =    455476.770000000019;     BAS[ATNO][  1].d[  0] =         0.000001320772;
  BAS[ATNO][  1].a[  1] =     64817.743000000002;     BAS[ATNO][  1].d[  1] =         0.000004177201;
  BAS[ATNO][  1].a[  2] =     19256.987000000001;     BAS[ATNO][  1].d[  2] =         0.000008961314;
  BAS[ATNO][  1].a[  3] =      6877.007300000000;     BAS[ATNO][  1].d[  3] =         0.000024622329;
  BAS[ATNO][  1].a[  4] =      2643.487700000000;     BAS[ATNO][  1].d[  4] =         0.000065688117;
  BAS[ATNO][  1].a[  5] =      1054.237500000000;     BAS[ATNO][  1].d[  5] =         0.000181879270;
  BAS[ATNO][  1].a[  6] =       429.371220000000;     BAS[ATNO][  1].d[  6] =         0.000472631355;
  BAS[ATNO][  1].a[  7] =       177.188590000000;     BAS[ATNO][  1].d[  7] =         0.001051417631;
  BAS[ATNO][  1].a[  8] =        73.763945000000;     BAS[ATNO][  1].d[  8] =         0.001645401663;
  BAS[ATNO][  1].a[  9] =        30.897007000000;     BAS[ATNO][  1].d[  9] =         0.001151845572;
  BAS[ATNO][  1].a[ 10] =        12.999482000000;     BAS[ATNO][  1].d[ 10] =         0.000158295028;
  BAS[ATNO][  1].a[ 11] =         5.487679300000;     BAS[ATNO][  1].d[ 11] =         0.000012877425;
  BAS[ATNO][  1].a[ 12] =         2.322571600000;     BAS[ATNO][  1].d[ 12] =        -0.000005717606;
  BAS[ATNO][  1].a[ 13] =         0.984980700000;     BAS[ATNO][  1].d[ 13] =         0.000004140533;
  BAS[ATNO][  1].a[ 14] =         0.418397300000;     BAS[ATNO][  1].d[ 14] =        -0.000002655831;
  BAS[ATNO][  1].a[ 15] =         0.177959400000;     BAS[ATNO][  1].d[ 15] =         0.000001164522;
  BAS[ATNO][  1].a[ 16] =    455476.770000000019;     BAS[ATNO][  1].d[ 16] =        -0.000090487272;
  BAS[ATNO][  1].a[ 17] =     64817.743000000002;     BAS[ATNO][  1].d[ 17] =        -0.000286577630;
  BAS[ATNO][  1].a[ 18] =     19256.987000000001;     BAS[ATNO][  1].d[ 18] =        -0.000616505712;
  BAS[ATNO][  1].a[ 19] =      6877.007300000000;     BAS[ATNO][  1].d[ 19] =        -0.001699525560;
  BAS[ATNO][  1].a[ 20] =      2643.487700000000;     BAS[ATNO][  1].d[ 20] =        -0.004578480002;
  BAS[ATNO][  1].a[ 21] =      1054.237500000000;     BAS[ATNO][  1].d[ 21] =        -0.012908123566;
  BAS[ATNO][  1].a[ 22] =       429.371220000000;     BAS[ATNO][  1].d[ 22] =        -0.035134458954;
  BAS[ATNO][  1].a[ 23] =       177.188590000000;     BAS[ATNO][  1].d[ 23] =        -0.086572938935;
  BAS[ATNO][  1].a[ 24] =        73.763945000000;     BAS[ATNO][  1].d[ 24] =        -0.172746292483;
  BAS[ATNO][  1].a[ 25] =        30.897007000000;     BAS[ATNO][  1].d[ 25] =        -0.183681481114;
  BAS[ATNO][  1].a[ 26] =        12.999482000000;     BAS[ATNO][  1].d[ 26] =         0.135349196964;
  BAS[ATNO][  1].a[ 27] =         5.487679300000;     BAS[ATNO][  1].d[ 27] =         0.627438508274;
  BAS[ATNO][  1].a[ 28] =         2.322571600000;     BAS[ATNO][  1].d[ 28] =         0.377663672258;
  BAS[ATNO][  1].a[ 29] =         0.984980700000;     BAS[ATNO][  1].d[ 29] =         0.004918343592;
  BAS[ATNO][  1].a[ 30] =         0.418397300000;     BAS[ATNO][  1].d[ 30] =         0.011597704151;
  BAS[ATNO][  1].a[ 31] =         0.177959400000;     BAS[ATNO][  1].d[ 31] =        -0.004405157282;
  BAS[ATNO][  1].a[ 32] =         0.071183800000;     BAS[ATNO][  1].d[ 32] =         0.001276559598;
  BAS[ATNO][  1].a[ 33] =    455476.770000000019;     BAS[ATNO][  1].d[ 33] =        -0.000002789771;
  BAS[ATNO][  1].a[ 34] =     64817.743000000002;     BAS[ATNO][  1].d[ 34] =        -0.000008827682;
  BAS[ATNO][  1].a[ 35] =     19256.987000000001;     BAS[ATNO][  1].d[ 35] =        -0.000019060381;
  BAS[ATNO][  1].a[ 36] =      6877.007300000000;     BAS[ATNO][  1].d[ 36] =        -0.000052233666;
  BAS[ATNO][  1].a[ 37] =      2643.487700000000;     BAS[ATNO][  1].d[ 37] =        -0.000142065073;
  BAS[ATNO][  1].a[ 38] =      1054.237500000000;     BAS[ATNO][  1].d[ 38] =        -0.000397218652;
  BAS[ATNO][  1].a[ 39] =       429.371220000000;     BAS[ATNO][  1].d[ 39] =        -0.001097954960;
  BAS[ATNO][  1].a[ 40] =       177.188590000000;     BAS[ATNO][  1].d[ 40] =        -0.002701500233;
  BAS[ATNO][  1].a[ 41] =        73.763945000000;     BAS[ATNO][  1].d[ 41] =        -0.005611798102;
  BAS[ATNO][  1].a[ 42] =        30.897007000000;     BAS[ATNO][  1].d[ 42] =        -0.006094104295;
  BAS[ATNO][  1].a[ 43] =        12.999482000000;     BAS[ATNO][  1].d[ 43] =         0.004704501958;
  BAS[ATNO][  1].a[ 44] =         5.487679300000;     BAS[ATNO][  1].d[ 44] =         0.031852742644;
  BAS[ATNO][  1].a[ 45] =         2.322571600000;     BAS[ATNO][  1].d[ 45] =         0.033726551229;
  BAS[ATNO][  1].a[ 46] =         0.984980700000;     BAS[ATNO][  1].d[ 46] =        -0.033095605522;
  BAS[ATNO][  1].a[ 47] =         0.418397300000;     BAS[ATNO][  1].d[ 47] =        -0.065725545050;
  BAS[ATNO][  1].a[ 48] =         0.177959400000;     BAS[ATNO][  1].d[ 48] =        -0.024698072692;
  BAS[ATNO][  1].a[ 49] =         0.071183800000;     BAS[ATNO][  1].d[ 49] =        -0.000438161995;
  BAS[ATNO][  1].a[ 50] =    455476.770000000019;     BAS[ATNO][  1].d[ 50] =        -0.000002939488;
  BAS[ATNO][  1].a[ 51] =     64817.743000000002;     BAS[ATNO][  1].d[ 51] =        -0.000009298907;
  BAS[ATNO][  1].a[ 52] =     19256.987000000001;     BAS[ATNO][  1].d[ 52] =        -0.000020092527;
  BAS[ATNO][  1].a[ 53] =      6877.007300000000;     BAS[ATNO][  1].d[ 53] =        -0.000055034893;
  BAS[ATNO][  1].a[ 54] =      2643.487700000000;     BAS[ATNO][  1].d[ 54] =        -0.000149802810;
  BAS[ATNO][  1].a[ 55] =      1054.237500000000;     BAS[ATNO][  1].d[ 55] =        -0.000419287719;
  BAS[ATNO][  1].a[ 56] =       429.371220000000;     BAS[ATNO][  1].d[ 56] =        -0.001160991793;
  BAS[ATNO][  1].a[ 57] =       177.188590000000;     BAS[ATNO][  1].d[ 57] =        -0.002872492659;
  BAS[ATNO][  1].a[ 58] =        73.763945000000;     BAS[ATNO][  1].d[ 58] =        -0.006041274326;
  BAS[ATNO][  1].a[ 59] =        30.897007000000;     BAS[ATNO][  1].d[ 59] =        -0.006715480389;
  BAS[ATNO][  1].a[ 60] =        12.999482000000;     BAS[ATNO][  1].d[ 60] =         0.007347103484;
  BAS[ATNO][  1].a[ 61] =         5.487679300000;     BAS[ATNO][  1].d[ 61] =         0.035392720801;
  BAS[ATNO][  1].a[ 62] =         2.322571600000;     BAS[ATNO][  1].d[ 62] =         0.056700162370;
  BAS[ATNO][  1].a[ 63] =         0.984980700000;     BAS[ATNO][  1].d[ 63] =        -0.161312511090;
  BAS[ATNO][  1].a[ 64] =         0.418397300000;     BAS[ATNO][  1].d[ 64] =        -0.000226969962;
  BAS[ATNO][  1].a[ 65] =         0.177959400000;     BAS[ATNO][  1].d[ 65] =         0.100755279173;
  BAS[ATNO][  1].a[ 66] =         0.071183800000;     BAS[ATNO][  1].d[ 66] =         0.003903571832;
  BAS[ATNO][  1].a[ 67] =    455476.770000000019;     BAS[ATNO][  1].d[ 67] =        -0.000003525448;
  BAS[ATNO][  1].a[ 68] =     64817.743000000002;     BAS[ATNO][  1].d[ 68] =        -0.000010657078;
  BAS[ATNO][  1].a[ 69] =     19256.987000000001;     BAS[ATNO][  1].d[ 69] =        -0.000026418943;
  BAS[ATNO][  1].a[ 70] =      6877.007300000000;     BAS[ATNO][  1].d[ 70] =        -0.000055006209;
  BAS[ATNO][  1].a[ 71] =      2643.487700000000;     BAS[ATNO][  1].d[ 71] =        -0.000214644011;
  BAS[ATNO][  1].a[ 72] =      1054.237500000000;     BAS[ATNO][  1].d[ 72] =        -0.000389601556;
  BAS[ATNO][  1].a[ 73] =       429.371220000000;     BAS[ATNO][  1].d[ 73] =        -0.001710385692;
  BAS[ATNO][  1].a[ 74] =       177.188590000000;     BAS[ATNO][  1].d[ 74] =        -0.002591619178;
  BAS[ATNO][  1].a[ 75] =        73.763945000000;     BAS[ATNO][  1].d[ 75] =        -0.009837786444;
  BAS[ATNO][  1].a[ 76] =        30.897007000000;     BAS[ATNO][  1].d[ 76] =        -0.002123896472;
  BAS[ATNO][  1].a[ 77] =        12.999482000000;     BAS[ATNO][  1].d[ 77] =        -0.002651807833;
  BAS[ATNO][  1].a[ 78] =         5.487679300000;     BAS[ATNO][  1].d[ 78] =         0.094390158800;
  BAS[ATNO][  1].a[ 79] =         2.322571600000;     BAS[ATNO][  1].d[ 79] =        -0.049766392077;
  BAS[ATNO][  1].a[ 80] =         0.984980700000;     BAS[ATNO][  1].d[ 80] =        -0.201574943444;
  BAS[ATNO][  1].a[ 81] =         0.418397300000;     BAS[ATNO][  1].d[ 81] =         0.319815136461;
  BAS[ATNO][  1].a[ 82] =         0.177959400000;     BAS[ATNO][  1].d[ 82] =        -0.150031349794;
  BAS[ATNO][  1].a[ 83] =         0.071183800000;     BAS[ATNO][  1].d[ 83] =        -0.017745202344;

  // Basis function   3 L = s
  InitBFNGauss(BAS[ATNO][  2]);
  BAS[ATNO][  2].l  = 0;
  BAS[ATNO][  2].ng = 82;
  BAS[ATNO][  2].a[  0] =    455476.770000000019;     BAS[ATNO][  2].d[  0] =         0.000000107968;
  BAS[ATNO][  2].a[  1] =     64817.743000000002;     BAS[ATNO][  2].d[  1] =         0.000000341470;
  BAS[ATNO][  2].a[  2] =     19256.987000000001;     BAS[ATNO][  2].d[  2] =         0.000000732554;
  BAS[ATNO][  2].a[  3] =      6877.007300000000;     BAS[ATNO][  2].d[  3] =         0.000002012783;
  BAS[ATNO][  2].a[  4] =      2643.487700000000;     BAS[ATNO][  2].d[  4] =         0.000005369757;
  BAS[ATNO][  2].a[  5] =      1054.237500000000;     BAS[ATNO][  2].d[  5] =         0.000014867947;
  BAS[ATNO][  2].a[  6] =       429.371220000000;     BAS[ATNO][  2].d[  6] =         0.000038635838;
  BAS[ATNO][  2].a[  7] =       177.188590000000;     BAS[ATNO][  2].d[  7] =         0.000085949441;
  BAS[ATNO][  2].a[  8] =        73.763945000000;     BAS[ATNO][  2].d[  8] =         0.000134505404;
  BAS[ATNO][  2].a[  9] =        30.897007000000;     BAS[ATNO][  2].d[  9] =         0.000094159048;
  BAS[ATNO][  2].a[ 10] =        12.999482000000;     BAS[ATNO][  2].d[ 10] =         0.000012940024;
  BAS[ATNO][  2].a[ 11] =         5.487679300000;     BAS[ATNO][  2].d[ 11] =         0.000001052681;
  BAS[ATNO][  2].a[ 12] =         2.322571600000;     BAS[ATNO][  2].d[ 12] =        -0.000000467393;
  BAS[ATNO][  2].a[ 13] =         0.984980700000;     BAS[ATNO][  2].d[ 13] =         0.000000338473;
  BAS[ATNO][  2].a[ 14] =    455476.770000000019;     BAS[ATNO][  2].d[ 14] =         0.000013413014;
  BAS[ATNO][  2].a[ 15] =     64817.743000000002;     BAS[ATNO][  2].d[ 15] =         0.000042479675;
  BAS[ATNO][  2].a[ 16] =     19256.987000000001;     BAS[ATNO][  2].d[ 16] =         0.000091385228;
  BAS[ATNO][  2].a[ 17] =      6877.007300000000;     BAS[ATNO][  2].d[ 17] =         0.000251922291;
  BAS[ATNO][  2].a[ 18] =      2643.487700000000;     BAS[ATNO][  2].d[ 18] =         0.000678672446;
  BAS[ATNO][  2].a[ 19] =      1054.237500000000;     BAS[ATNO][  2].d[ 19] =         0.001913383436;
  BAS[ATNO][  2].a[ 20] =       429.371220000000;     BAS[ATNO][  2].d[ 20] =         0.005208014276;
  BAS[ATNO][  2].a[ 21] =       177.188590000000;     BAS[ATNO][  2].d[ 21] =         0.012832789100;
  BAS[ATNO][  2].a[ 22] =        73.763945000000;     BAS[ATNO][  2].d[ 22] =         0.025606347278;
  BAS[ATNO][  2].a[ 23] =        30.897007000000;     BAS[ATNO][  2].d[ 23] =         0.027227280692;
[...]
  BAS[ATNO][  6].a[ 12] =      1462.496200000000;     BAS[ATNO][  6].d[ 12] =        -0.000190963645;
  BAS[ATNO][  6].a[ 13] =       354.067310000000;     BAS[ATNO][  6].d[ 13] =        -0.001237383725;
  BAS[ATNO][  6].a[ 14] =       126.697790000000;     BAS[ATNO][  6].d[ 14] =        -0.005178529147;
  BAS[ATNO][  6].a[ 15] =        49.989095000000;     BAS[ATNO][  6].d[ 15] =        -0.019095228212;
  BAS[ATNO][  6].a[ 16] =        20.509295000000;     BAS[ATNO][  6].d[ 16] =        -0.051747163867;
  BAS[ATNO][  6].a[ 17] =         8.580464100000;     BAS[ATNO][  6].d[ 17] =        -0.092801984893;
  BAS[ATNO][  6].a[ 18] =         3.630104900000;     BAS[ATNO][  6].d[ 18] =        -0.076709961734;
  BAS[ATNO][  6].a[ 19] =         1.546528000000;     BAS[ATNO][  6].d[ 19] =         0.112640538504;
  BAS[ATNO][  6].a[ 20] =         0.661936900000;     BAS[ATNO][  6].d[ 20] =         0.310924391769;
  BAS[ATNO][  6].a[ 21] =         0.284242800000;     BAS[ATNO][  6].d[ 21] =         0.285213723400;
  BAS[ATNO][  6].a[ 22] =         0.122346300000;     BAS[ATNO][  6].d[ 22] =         0.102020619398;
  BAS[ATNO][  6].a[ 23] =         0.048938500000;     BAS[ATNO][  6].d[ 23] =         0.004704494220;
  BAS[ATNO][  6].a[ 24] =      1462.496200000000;     BAS[ATNO][  6].d[ 24] =        -0.000189143185;
  BAS[ATNO][  6].a[ 25] =       354.067310000000;     BAS[ATNO][  6].d[ 25] =        -0.001150467795;
  BAS[ATNO][  6].a[ 26] =       126.697790000000;     BAS[ATNO][  6].d[ 26] =        -0.005236355465;
  BAS[ATNO][  6].a[ 27] =        49.989095000000;     BAS[ATNO][  6].d[ 27] =        -0.017818325987;
  BAS[ATNO][  6].a[ 28] =        20.509295000000;     BAS[ATNO][  6].d[ 28] =        -0.054077305860;
  BAS[ATNO][  6].a[ 29] =         8.580464100000;     BAS[ATNO][  6].d[ 29] =        -0.080860505490;
  BAS[ATNO][  6].a[ 30] =         3.630104900000;     BAS[ATNO][  6].d[ 30] =        -0.098673455590;
  BAS[ATNO][  6].a[ 31] =         1.546528000000;     BAS[ATNO][  6].d[ 31] =         0.253074800176;
  BAS[ATNO][  6].a[ 32] =         0.661936900000;     BAS[ATNO][  6].d[ 32] =         0.413587443996;
  BAS[ATNO][  6].a[ 33] =         0.284242800000;     BAS[ATNO][  6].d[ 33] =        -0.286948477459;
  BAS[ATNO][  6].a[ 34] =         0.122346300000;     BAS[ATNO][  6].d[ 34] =        -0.339936153854;
  BAS[ATNO][  6].a[ 35] =         0.048938500000;     BAS[ATNO][  6].d[ 35] =        -0.034988115925;
  BAS[ATNO][  6].a[ 36] =      1462.496200000000;     BAS[ATNO][  6].d[ 36] =        -0.000208571817;
  BAS[ATNO][  6].a[ 37] =       354.067310000000;     BAS[ATNO][  6].d[ 37] =        -0.001221411812;
  BAS[ATNO][  6].a[ 38] =       126.697790000000;     BAS[ATNO][  6].d[ 38] =        -0.005908780213;
  BAS[ATNO][  6].a[ 39] =        49.989095000000;     BAS[ATNO][  6].d[ 39] =        -0.019208287571;
  BAS[ATNO][  6].a[ 40] =        20.509295000000;     BAS[ATNO][  6].d[ 40] =        -0.064747287241;
  BAS[ATNO][  6].a[ 41] =         8.580464100000;     BAS[ATNO][  6].d[ 41] =        -0.076399827828;
  BAS[ATNO][  6].a[ 42] =         3.630104900000;     BAS[ATNO][  6].d[ 42] =        -0.104060052858;
  BAS[ATNO][  6].a[ 43] =         1.546528000000;     BAS[ATNO][  6].d[ 43] =         0.614456219234;
  BAS[ATNO][  6].a[ 44] =         0.661936900000;     BAS[ATNO][  6].d[ 44] =        -0.298999024538;
  BAS[ATNO][  6].a[ 45] =         0.284242800000;     BAS[ATNO][  6].d[ 45] =        -0.457850560950;
  BAS[ATNO][  6].a[ 46] =         0.122346300000;     BAS[ATNO][  6].d[ 46] =         0.453354663413;
  BAS[ATNO][  6].a[ 47] =         0.048938500000;     BAS[ATNO][  6].d[ 47] =         0.048437459648;

  // Basis function   8 L = p
  InitBFNGauss(BAS[ATNO][  7]);
  BAS[ATNO][  7].l  = 1;
  BAS[ATNO][  7].ng = 47;
  BAS[ATNO][  7].a[  0] =      1462.496200000000;     BAS[ATNO][  7].d[  0] =         0.000028386747;
  BAS[ATNO][  7].a[  1] =       354.067310000000;     BAS[ATNO][  7].d[  1] =         0.000183181721;
  BAS[ATNO][  7].a[  2] =       126.697790000000;     BAS[ATNO][  7].d[  2] =         0.000760216096;
  BAS[ATNO][  7].a[  3] =        49.989095000000;     BAS[ATNO][  7].d[  3] =         0.002744269670;
  BAS[ATNO][  7].a[  4] =        20.509295000000;     BAS[ATNO][  7].d[  4] =         0.007199051676;
  BAS[ATNO][  7].a[  5] =         8.580464100000;     BAS[ATNO][  7].d[  5] =         0.012286457430;
  BAS[ATNO][  7].a[  6] =         3.630104900000;     BAS[ATNO][  7].d[  6] =         0.010156435783;
  BAS[ATNO][  7].a[  7] =         1.546528000000;     BAS[ATNO][  7].d[  7] =         0.002152131841;
  BAS[ATNO][  7].a[  8] =         0.661936900000;     BAS[ATNO][  7].d[  8] =         0.000103709513;
  BAS[ATNO][  7].a[  9] =         0.284242800000;     BAS[ATNO][  7].d[  9] =         0.000008569534;
  BAS[ATNO][  7].a[ 10] =         0.122346300000;     BAS[ATNO][  7].d[ 10] =         0.000014050081;
  BAS[ATNO][  7].a[ 11] =      1462.496200000000;     BAS[ATNO][  7].d[ 11] =         0.000187998143;
  BAS[ATNO][  7].a[ 12] =       354.067310000000;     BAS[ATNO][  7].d[ 12] =         0.001218168215;
  BAS[ATNO][  7].a[ 13] =       126.697790000000;     BAS[ATNO][  7].d[ 13] =         0.005098111024;
  BAS[ATNO][  7].a[ 14] =        49.989095000000;     BAS[ATNO][  7].d[ 14] =         0.018798695669;
  BAS[ATNO][  7].a[ 15] =        20.509295000000;     BAS[ATNO][  7].d[ 15] =         0.050943574724;
  BAS[ATNO][  7].a[ 16] =         8.580464100000;     BAS[ATNO][  7].d[ 16] =         0.091360849535;
  BAS[ATNO][  7].a[ 17] =         3.630104900000;     BAS[ATNO][  7].d[ 17] =         0.075518721715;
  BAS[ATNO][  7].a[ 18] =         1.546528000000;     BAS[ATNO][  7].d[ 18] =        -0.110891327395;
  BAS[ATNO][  7].a[ 19] =         0.661936900000;     BAS[ATNO][  7].d[ 19] =        -0.306096002210;
  BAS[ATNO][  7].a[ 20] =         0.284242800000;     BAS[ATNO][  7].d[ 20] =        -0.280784598504;
  BAS[ATNO][  7].a[ 21] =         0.122346300000;     BAS[ATNO][  7].d[ 21] =        -0.100436326539;
  BAS[ATNO][  7].a[ 22] =         0.048938500000;     BAS[ATNO][  7].d[ 22] =        -0.004631437453;
  BAS[ATNO][  7].a[ 23] =      1462.496200000000;     BAS[ATNO][  7].d[ 23] =        -0.000121075423;
  BAS[ATNO][  7].a[ 24] =       354.067310000000;     BAS[ATNO][  7].d[ 24] =        -0.000736444059;
  BAS[ATNO][  7].a[ 25] =       126.697790000000;     BAS[ATNO][  7].d[ 25] =        -0.003351925961;
  BAS[ATNO][  7].a[ 26] =        49.989095000000;     BAS[ATNO][  7].d[ 26] =        -0.011405969258;
  BAS[ATNO][  7].a[ 27] =        20.509295000000;     BAS[ATNO][  7].d[ 27] =        -0.034616275886;
  BAS[ATNO][  7].a[ 28] =         8.580464100000;     BAS[ATNO][  7].d[ 28] =        -0.051760891594;
  BAS[ATNO][  7].a[ 29] =         3.630104900000;     BAS[ATNO][  7].d[ 29] =        -0.063163419609;
  BAS[ATNO][  7].a[ 30] =         1.546528000000;     BAS[ATNO][  7].d[ 30] =         0.161999695869;
  BAS[ATNO][  7].a[ 31] =         0.661936900000;     BAS[ATNO][  7].d[ 31] =         0.264747972125;
  BAS[ATNO][  7].a[ 32] =         0.284242800000;     BAS[ATNO][  7].d[ 32] =        -0.183683108891;
  BAS[ATNO][  7].a[ 33] =         0.122346300000;     BAS[ATNO][  7].d[ 33] =        -0.217601884901;
  BAS[ATNO][  7].a[ 34] =         0.048938500000;     BAS[ATNO][  7].d[ 34] =        -0.022396793892;
  BAS[ATNO][  7].a[ 35] =      1462.496200000000;     BAS[ATNO][  7].d[ 35] =        -0.000318957108;
  BAS[ATNO][  7].a[ 36] =       354.067310000000;     BAS[ATNO][  7].d[ 36] =        -0.001867836148;
  BAS[ATNO][  7].a[ 37] =       126.697790000000;     BAS[ATNO][  7].d[ 37] =        -0.009035964091;
  BAS[ATNO][  7].a[ 38] =        49.989095000000;     BAS[ATNO][  7].d[ 38] =        -0.029374150078;
  BAS[ATNO][  7].a[ 39] =        20.509295000000;     BAS[ATNO][  7].d[ 39] =        -0.099014372079;
  BAS[ATNO][  7].a[ 40] =         8.580464100000;     BAS[ATNO][  7].d[ 40] =        -0.116833944736;
  BAS[ATNO][  7].a[ 41] =         3.630104900000;     BAS[ATNO][  7].d[ 41] =        -0.159133165749;
  BAS[ATNO][  7].a[ 42] =         1.546528000000;     BAS[ATNO][  7].d[ 42] =         0.939653216535;
  BAS[ATNO][  7].a[ 43] =         0.661936900000;     BAS[ATNO][  7].d[ 43] =        -0.457242332900;
  BAS[ATNO][  7].a[ 44] =         0.284242800000;     BAS[ATNO][  7].d[ 44] =        -0.700165022050;
  BAS[ATNO][  7].a[ 45] =         0.122346300000;     BAS[ATNO][  7].d[ 45] =         0.693289699692;
  BAS[ATNO][  7].a[ 46] =         0.048938500000;     BAS[ATNO][  7].d[ 46] =         0.074072673259;

  // Basis function   9 L = p
  InitBFNGauss(BAS[ATNO][  8]);
  BAS[ATNO][  8].l  = 1;
  BAS[ATNO][  8].ng = 47;
  BAS[ATNO][  8].a[  0] =      1462.496200000000;     BAS[ATNO][  8].d[  0] =         0.000012794992;
  BAS[ATNO][  8].a[  1] =       354.067310000000;     BAS[ATNO][  8].d[  1] =         0.000082567006;
  BAS[ATNO][  8].a[  2] =       126.697790000000;     BAS[ATNO][  8].d[  2] =         0.000342658462;
  BAS[ATNO][  8].a[  3] =        49.989095000000;     BAS[ATNO][  8].d[  3] =         0.001236947269;
  BAS[ATNO][  8].a[  4] =        20.509295000000;     BAS[ATNO][  8].d[  4] =         0.003244887851;
  BAS[ATNO][  8].a[  5] =         8.580464100000;     BAS[ATNO][  8].d[  5] =         0.005537976145;
  BAS[ATNO][  8].a[  6] =         3.630104900000;     BAS[ATNO][  8].d[  6] =         0.004577893946;
  BAS[ATNO][  8].a[  7] =         1.546528000000;     BAS[ATNO][  8].d[  7] =         0.000970048109;
  BAS[ATNO][  8].a[  8] =         0.661936900000;     BAS[ATNO][  8].d[  8] =         0.000046745843;
  BAS[ATNO][  8].a[  9] =         0.284242800000;     BAS[ATNO][  8].d[  9] =         0.000003862617;
  BAS[ATNO][  8].a[ 10] =         0.122346300000;     BAS[ATNO][  8].d[ 10] =         0.000006332909;
  BAS[ATNO][  8].a[ 11] =      1462.496200000000;     BAS[ATNO][  8].d[ 11] =        -0.000057927235;
  BAS[ATNO][  8].a[ 12] =       354.067310000000;     BAS[ATNO][  8].d[ 12] =        -0.000375350073;
  BAS[ATNO][  8].a[ 13] =       126.697790000000;     BAS[ATNO][  8].d[ 13] =        -0.001570863794;
  BAS[ATNO][  8].a[ 14] =        49.989095000000;     BAS[ATNO][  8].d[ 14] =        -0.005792378837;
  BAS[ATNO][  8].a[ 15] =        20.509295000000;     BAS[ATNO][  8].d[ 15] =        -0.015697072251;
  BAS[ATNO][  8].a[ 16] =         8.580464100000;     BAS[ATNO][  8].d[ 16] =        -0.028150711131;
  BAS[ATNO][  8].a[ 17] =         3.630104900000;     BAS[ATNO][  8].d[ 17] =        -0.023269329596;
  BAS[ATNO][  8].a[ 18] =         1.546528000000;     BAS[ATNO][  8].d[ 18] =         0.034168571552;
  BAS[ATNO][  8].a[ 19] =         0.661936900000;     BAS[ATNO][  8].d[ 19] =         0.094316331124;
  BAS[ATNO][  8].a[ 20] =         0.284242800000;     BAS[ATNO][  8].d[ 20] =         0.086517213475;
  BAS[ATNO][  8].a[ 21] =         0.122346300000;     BAS[ATNO][  8].d[ 21] =         0.030947107320;
  BAS[ATNO][  8].a[ 22] =         0.048938500000;     BAS[ATNO][  8].d[ 22] =         0.001427069237;
  BAS[ATNO][  8].a[ 23] =      1462.496200000000;     BAS[ATNO][  8].d[ 23] =         0.000246768268;
  BAS[ATNO][  8].a[ 24] =       354.067310000000;     BAS[ATNO][  8].d[ 24] =         0.001500973695;
  BAS[ATNO][  8].a[ 25] =       126.697790000000;     BAS[ATNO][  8].d[ 25] =         0.006831683461;
  BAS[ATNO][  8].a[ 26] =        49.989095000000;     BAS[ATNO][  8].d[ 26] =         0.023246925034;
  BAS[ATNO][  8].a[ 27] =        20.509295000000;     BAS[ATNO][  8].d[ 27] =         0.070552703788;
  BAS[ATNO][  8].a[ 28] =         8.580464100000;     BAS[ATNO][  8].d[ 28] =         0.105495775007;
  BAS[ATNO][  8].a[ 29] =         3.630104900000;     BAS[ATNO][  8].d[ 29] =         0.128735686317;
  BAS[ATNO][  8].a[ 30] =         1.546528000000;     BAS[ATNO][  8].d[ 30] =        -0.330177532501;
  BAS[ATNO][  8].a[ 31] =         0.661936900000;     BAS[ATNO][  8].d[ 31] =        -0.539592569617;
  BAS[ATNO][  8].a[ 32] =         0.284242800000;     BAS[ATNO][  8].d[ 32] =         0.374371293296;
  BAS[ATNO][  8].a[ 33] =         0.122346300000;     BAS[ATNO][  8].d[ 33] =         0.443502396958;
  BAS[ATNO][  8].a[ 34] =         0.048938500000;     BAS[ATNO][  8].d[ 34] =         0.045647728556;
  BAS[ATNO][  8].a[ 35] =      1462.496200000000;     BAS[ATNO][  8].d[ 35] =        -0.000323088688;
  BAS[ATNO][  8].a[ 36] =       354.067310000000;     BAS[ATNO][  8].d[ 36] =        -0.001892030986;
  BAS[ATNO][  8].a[ 37] =       126.697790000000;     BAS[ATNO][  8].d[ 37] =        -0.009153010596;
  BAS[ATNO][  8].a[ 38] =        49.989095000000;     BAS[ATNO][  8].d[ 38] =        -0.029754645348;
  BAS[ATNO][  8].a[ 39] =        20.509295000000;     BAS[ATNO][  8].d[ 39] =        -0.100296945365;
  BAS[ATNO][  8].a[ 40] =         8.580464100000;     BAS[ATNO][  8].d[ 40] =        -0.118347342168;
  BAS[ATNO][  8].a[ 41] =         3.630104900000;     BAS[ATNO][  8].d[ 41] =        -0.161194482131;
  BAS[ATNO][  8].a[ 42] =         1.546528000000;     BAS[ATNO][  8].d[ 42] =         0.951824925432;
  BAS[ATNO][  8].a[ 43] =         0.661936900000;     BAS[ATNO][  8].d[ 43] =        -0.463165178130;
  BAS[ATNO][  8].a[ 44] =         0.284242800000;     BAS[ATNO][  8].d[ 44] =        -0.709234543315;
  BAS[ATNO][  8].a[ 45] =         0.122346300000;     BAS[ATNO][  8].d[ 45] =         0.702270162120;
  BAS[ATNO][  8].a[ 46] =         0.048938500000;     BAS[ATNO][  8].d[ 46] =         0.075032166613;

  // Basis function  10 L = d
  InitBFNGauss(BAS[ATNO][  9]);
  BAS[ATNO][  9].l  = 2;
  BAS[ATNO][  9].ng = 10;
  BAS[ATNO][  9].a[  0] =         4.328841700000;     BAS[ATNO][  9].d[  0] =         0.023696761601;
  BAS[ATNO][  9].a[  1] =         1.774230200000;     BAS[ATNO][  9].d[  1] =         0.164645744817;
  BAS[ATNO][  9].a[  2] =         0.727190600000;     BAS[ATNO][  9].d[  2] =         0.511794276883;
  BAS[ATNO][  9].a[  3] =         0.298048200000;     BAS[ATNO][  9].d[  3] =         0.259267315814;
  BAS[ATNO][  9].a[  4] =         0.119219300000;     BAS[ATNO][  9].d[  4] =         0.024473823851;
  BAS[ATNO][  9].a[  5] =         4.328841700000;     BAS[ATNO][  9].d[  5] =        -0.069706353180;
  BAS[ATNO][  9].a[  6] =         1.774230200000;     BAS[ATNO][  9].d[  6] =         0.386955671571;
  BAS[ATNO][  9].a[  7] =         0.727190600000;     BAS[ATNO][  9].d[  7] =         0.171177607179;
  BAS[ATNO][  9].a[  8] =         0.298048200000;     BAS[ATNO][  9].d[  8] =        -0.503791919503;
  BAS[ATNO][  9].a[  9] =         0.119219300000;     BAS[ATNO][  9].d[  9] =        -0.036194477969;

  // Basis function  11 L = d
  InitBFNGauss(BAS[ATNO][ 10]);
  BAS[ATNO][ 10].l  = 2;
  BAS[ATNO][ 10].ng = 10;
  BAS[ATNO][ 10].a[  0] =         4.328841700000;     BAS[ATNO][ 10].d[  0] =         0.014700350263;
  BAS[ATNO][ 10].a[  1] =         1.774230200000;     BAS[ATNO][ 10].d[  1] =         0.102138433888;
  BAS[ATNO][ 10].a[  2] =         0.727190600000;     BAS[ATNO][ 10].d[  2] =         0.317492966319;
  BAS[ATNO][ 10].a[  3] =         0.298048200000;     BAS[ATNO][ 10].d[  3] =         0.160837181824;
  BAS[ATNO][ 10].a[  4] =         0.119219300000;     BAS[ATNO][ 10].d[  4] =         0.015182402935;
  BAS[ATNO][ 10].a[  5] =         4.328841700000;     BAS[ATNO][ 10].d[  5] =         0.112365679626;
  BAS[ATNO][ 10].a[  6] =         1.774230200000;     BAS[ATNO][ 10].d[  6] =        -0.623767203955;
  BAS[ATNO][ 10].a[  7] =         0.727190600000;     BAS[ATNO][ 10].d[  7] =        -0.275935941128;
  BAS[ATNO][ 10].a[  8] =         0.298048200000;     BAS[ATNO][ 10].d[  8] =         0.812105623694;
  BAS[ATNO][ 10].a[  9] =         0.119219300000;     BAS[ATNO][ 10].d[  9] =         0.058344999130;

  // Basis function  12 L = f
  InitBFNGauss(BAS[ATNO][ 11]);
  BAS[ATNO][ 11].l  = 3;
  BAS[ATNO][ 11].ng = 4;
  BAS[ATNO][ 11].a[  0] =         1.631174000000;     BAS[ATNO][ 11].d[  0] =         0.245409970118;
  BAS[ATNO][ 11].a[  1] =         0.820328800000;     BAS[ATNO][ 11].d[  1] =         0.580760500278;
  BAS[ATNO][ 11].a[  2] =         0.412549100000;     BAS[ATNO][ 11].d[  2] =         0.264213740127;
  BAS[ATNO][ 11].a[  3] =         0.165019600000;     BAS[ATNO][ 11].d[  3] =         0.038934170019;

-------
TIMINGS
-------

Total SCF time: 0 days 0 hours 0 min 7 sec 

Total time                  ....       7.307 sec
Sum of individual times     ....       7.038 sec  ( 96.3%)

Fock matrix formation       ....       6.510 sec  ( 89.1%)
  XC integration            ....       0.023 sec  (  0.3% of F)
    Basis function eval.    ....       0.009 sec  ( 38.9% of XC)
    Density eval.           ....       0.001 sec  (  4.0% of XC)
    XC-Functional eval.     ....       0.001 sec  (  5.3% of XC)
    XC-Potential eval.      ....       0.001 sec  (  3.6% of XC)
Diagonalization             ....       0.000 sec  (  0.0%)
Density matrix formation    ....       0.000 sec  (  0.0%)
Population analysis         ....       0.001 sec  (  0.0%)
Initial guess               ....       0.084 sec  (  1.1%)
Orbital Transformation      ....       0.000 sec  (  0.0%)
Orbital Orthonormalization  ....       0.000 sec  (  0.0%)
DIIS solution               ....       0.000 sec  (  0.0%)
SOSCF solution              ....       0.000 sec  (  0.0%)
Grid generation             ....       0.442 sec  (  6.0%)

-------------------------   --------------------
FINAL SINGLE POINT ENERGY      -311.070583997637
-------------------------   --------------------


                            ***************************************
                            *     ORCA property calculations      *
                            ***************************************

                                    ---------------------
                                    Active property flags
                                    ---------------------
   (+) Dipole Moment


------------------------------------------------------------------------------
                       ORCA ELECTRIC PROPERTIES CALCULATION
------------------------------------------------------------------------------

Dipole Moment Calculation                       ... on
Quadrupole Moment Calculation                   ... off
Polarizability Calculation                      ... off
GBWName                                         ... Ar_ano-rcc-tzp_2192.575824_.gbw
Electron density file                           ... Ar_ano-rcc-tzp_2192.575824_.scfp
The origin for moment calculation is the CENTER OF MASS  = ( 0.000000,  0.000000  0.000000)

-------------
DIPOLE MOMENT
-------------
                                X             Y             Z
Electronic contribution:     -0.00000       0.00000      -0.00000
Nuclear contribution   :      0.00000       0.00000       0.00000
                        -----------------------------------------
Total Dipole Moment    :     -0.00000       0.00000      -0.00000
                        -----------------------------------------
Magnitude (a.u.)       :      0.00000
Magnitude (Debye)      :      0.00000



--------------------
Rotational spectrum 
--------------------
 
Rotational constants in cm-1:     0.000000     0.000000     0.000000 
Rotational constants in MHz :     0.000000     0.000000     0.000000 

 Dipole components along the rotational axes: 
x,y,z [a.u.] :    -0.000000     0.000000    -0.000000 
x,y,z [Debye]:    -0.000000     0.000000    -0.000000 

 

Timings for individual modules:

Sum of individual times         ...        8.411 sec (=   0.140 min)
GTO integral calculation        ...        0.460 sec (=   0.008 min)   5.5 %
Relativistic integrals          ...        0.375 sec (=   0.006 min)   4.5 %
SCF iterations                  ...        7.576 sec (=   0.126 min)  90.1 %
                             ****ORCA TERMINATED NORMALLY****
TOTAL RUN TIME: 0 days 0 hours 0 minutes 8 seconds 759 msec
