
                                 *****************
                                 * O   R   C   A *
                                 *****************

           --- An Ab Initio, DFT and Semiempirical electronic structure package ---

                  #######################################################
                  #                        -***-                        #
                  #          Department of theory and spectroscopy      #
                  #               Directorship: Frank Neese             #
                  #        Max Planck Institute fuer Kohlenforschung    #
                  #                Kaiser Wilhelm Platz 1               #
                  #                 D-45470 Muelheim/Ruhr               #
                  #                      Germany                        #
                  #                                                     #
                  #                  All rights reserved                #
                  #                        -***-                        #
                  #######################################################


                         Program Version 4.2.1 -  RELEASE  -


 With contributions from (in alphabetic order):
   Daniel Aravena         : Magnetic Suceptibility
   Michael Atanasov       : Ab Initio Ligand Field Theory (pilot matlab implementation)
   Alexander A. Auer      : GIAO ZORA, VPT2
   Ute Becker             : Parallelization
   Giovanni Bistoni       : ED, misc. LED, open-shell LED, HFLD
   Martin Brehm           : Molecular dynamics
   Dmytro Bykov           : SCF Hessian
   Vijay G. Chilkuri      : MRCI spin determinant printing, contributions to CSF-ICE
   Dipayan Datta          : RHF DLPNO-CCSD density
   Achintya Kumar Dutta   : EOM-CC, STEOM-CC
   Dmitry Ganyushin       : Spin-Orbit,Spin-Spin,Magnetic field MRCI
   Miquel Garcia          : C-PCM Hessian, Gaussian charge scheme
   Yang Guo               : DLPNO-NEVPT2, CIM, IAO-localization
   Andreas Hansen         : Spin unrestricted coupled pair/coupled cluster methods
   Benjamin Helmich-Paris : CASSCF linear response (MC-RPA)
   Lee Huntington         : MR-EOM, pCC
   Robert Izsak           : Overlap fitted RIJCOSX, COSX-SCS-MP3, EOM
   Christian Kollmar      : KDIIS, OOCD, Brueckner-CCSD(T), CCSD density
   Simone Kossmann        : Meta GGA functionals, TD-DFT gradient, OOMP2, MP2 Hessian
   Martin Krupicka        : AUTO-CI
   Lucas Lang             : DCDCAS
   Dagmar Lenk            : GEPOL surface, SMD
   Dimitrios Liakos       : Extrapolation schemes; Compound Job, initial MDCI parallelization
   Dimitrios Manganas     : Further ROCIS development; embedding schemes
   Dimitrios Pantazis     : SARC Basis sets
   Taras Petrenko         : DFT Hessian,TD-DFT gradient, ASA, ECA, R-Raman, ABS, FL, XAS/XES, NRVS
   Peter Pinski           : DLPNO-MP2, DLPNO-MP2 Gradient
   Christoph Reimann      : Effective Core Potentials
   Marius Retegan         : Local ZFS, SOC
   Christoph Riplinger    : Optimizer, TS searches, QM/MM, DLPNO-CCSD(T), (RO)-DLPNO pert. Triples
   Tobias Risthaus        : Range-separated hybrids, TD-DFT gradient, RPA, STAB
   Michael Roemelt        : Original ROCIS implementation
   Masaaki Saitow         : Open-shell DLPNO-CCSD energy and density
   Barbara Sandhoefer     : DKH picture change effects
   Avijit Sen             : IP-ROCIS
   Kantharuban Sivalingam : CASSCF convergence, NEVPT2, FIC-MRCI
   Bernardo de Souza      : ESD, SOC TD-DFT
   Georgi Stoychev        : AutoAux, RI-MP2 NMR
   Willem Van den Heuvel  : Paramagnetic NMR
   Boris Wezisla          : Elementary symmetry handling
   Frank Wennmohs         : Technical directorship


 We gratefully acknowledge several colleagues who have allowed us to
 interface, adapt or use parts of their codes:
   Stefan Grimme, W. Hujo, H. Kruse,             : VdW corrections, initial TS optimization,
                  C. Bannwarth                     DFT functionals, gCP, sTDA/sTD-DF
   Ed Valeev, F. Pavosevic, A. Kumar             : LibInt (2-el integral package), F12 methods
   Garnet Chan, S. Sharma, J. Yang, R. Olivares  : DMRG
   Ulf Ekstrom                                   : XCFun DFT Library
   Mihaly Kallay                                 : mrcc  (arbitrary order and MRCC methods)
   Andreas Klamt, Michael Diedenhofen            : otool_cosmo (COSMO solvation model)
   Jiri Pittner, Ondrej Demel                    : Mk-CCSD
   Frank Weinhold                                : gennbo (NPA and NBO analysis)
   Christopher J. Cramer and Donald G. Truhlar   : smd solvation model
   Lars Goerigk                                  : TD-DFT with DH, B97 family of functionals
   V. Asgeirsson, H. Jonsson                     : NEB implementation
   FAccTs GmbH                                   : IRC, NEB, NEB-TS, Multilevel, MM, QM/MM, CI optimization
   S Lehtola, MJT Oliveira, MAL Marques          : LibXC Library


 Your calculation uses the libint2 library for the computation of 2-el integrals
 For citations please refer to: http://libint.valeyev.net

 Your ORCA version has been built with support for libXC version: 4.2.3
 For citations please refer to: https://tddft.org/programs/libxc/

 This ORCA versions uses:
   CBLAS   interface :  Fast vector & matrix operations
   LAPACKE interface :  Fast linear algebra routines
   SCALAPACK package :  Parallel linear algebra routines


----- Orbital basis set information -----
Your calculation utilizes the basis: ANO-RCC-QZP
   H, He:       P.-O. Widmark, P.-A. Malmqvist, and B. O. Roos, Theor. Chim. Acta 77, 291 (1990).
   s block:     B. O. Roos, V. Veryazov and P.-O. Widmark, Theor. Chem. Acc. 111, 345 (2004).
   p block:     B. O. Roos, R. Lindh, P.-A. Malmqvist, V. Veryazov, and P.-O. Widmark, J. Phys. Chem. A 108, 2851 (2004).
   d block:     B. O. Roos, R. Lindh, P.-A. Malmqvist, V. Veryazov, and P.-O. Widmark, J. Phys. Chem. A 109, 6575 (2005).
   actinides:   B. O. Roos, R. Lindh, P.-A. Malmqvist, V. Veryazov, and P.-O. Widmark, Chem. Phys. Letters 409, 295 (2005).
   lanthanides: B. O. Roos, R. Lindh, P.-A. Malmqvist, V. Veryazov, P.-O. Widmark and A. C. Borin, J. Phys. Chem. A 112, 11431 (2008).

================================================================================
                                        WARNINGS
                       Please study these warnings very carefully!
================================================================================


INFO   : the flag for use of LIBINT has been found!

================================================================================
                                       INPUT FILE
================================================================================
NAME = Ar_ano-rcc-qzp_274.071978_.inp
|  1> ! LDA ano-rcc-qzp nori grid5 finalgrid6 verytightscf
|  2> %Pal NProcs 18 End
|  3> 
|  4> % REL
|  5>   Method ZORA
|  6>   ModelPot 1, 0, 0, 0
|  7>   velit 274.071978
|  8> END
|  9> 
| 10> *xyz 16 1
| 11> Ar 0.0 0.0 0.0
| 12> **                         ****END OF INPUT****
================================================================================

                       ****************************
                       * Single Point Calculation *
                       ****************************

---------------------------------
CARTESIAN COORDINATES (ANGSTROEM)
---------------------------------
  Ar     0.000000    0.000000    0.000000

----------------------------
CARTESIAN COORDINATES (A.U.)
----------------------------
  NO LB      ZA    FRAG     MASS         X           Y           Z
   0 Ar   18.0000    0    39.948    0.000000    0.000000    0.000000

--------------------------------
INTERNAL COORDINATES (ANGSTROEM)
--------------------------------
 Ar     0   0   0     0.000000000000     0.00000000     0.00000000

---------------------------
INTERNAL COORDINATES (A.U.)
---------------------------
 Ar     0   0   0     0.000000000000     0.00000000     0.00000000

---------------------
BASIS SET INFORMATION
---------------------
There are 1 groups of distinct atoms

 Group   1 Type Ar  : 102s60p15d8f contracted to 6s5p3d2f pattern {171717171717/1212121212/555/44}

Atom   0Ar   basis set group =>   1


           ************************************************************
           *        Program running with 18 parallel MPI-processes    *
           *              working on a common directory               *
           ************************************************************


------------------------------------------------------------------------------
                       ORCA GTO INTEGRAL CALCULATION
                     -- ANO INTEGRAL GENERATION BRANCH --
------------------------------------------------------------------------------


Gathering ANO information                         ... done
Calculation Information:
Number of atoms                                   ... 1
Number of basis functions                         ... 50
Highest angular momentum                          ... 3
Number of primitive shells                        ... 38
Total number of shells                            ... 16
Maximum number of shells                          ... 16

Getting memory                                    ... done
Making prescreening integrals                     ... done
Gathering atom contracted prescreening            ... done
Making one-electron integrals                     ... done

Timings:

Total time                                        ...    0.2 sec
Prescreening matrix                               ...    0.1 sec
One-electron matrix                               ...    0.0 sec
Two-index integrals + Cholesky                    ...    0.0 sec


           ************************************************************
           *        Program running with 18 parallel MPI-processes    *
           *              working on a common directory               *
           ************************************************************
------------------------------------------------------------------------------
                          ORCA RELATIVISTIC HAMILTONIAN
------------------------------------------------------------------------------

Relativistic Method            ... ZORA(MP)
Treatment of potential         ... Van Wuellen
Nucleus model                  ... Point Nucleus
Speed of light used            ... 274.07197800000000


            *************************************************
            *         ZERO ORDER REGULAR APPROXIMATION      *
            *                     ZORA(MP)                  *
            *            Programmed by FN according to      *
            *                   C. van Wuellen              *
            *       J. Chem. Phys. (1998) vol 109, 392-399  *
            *************************************************

Terms included in model potential: +V(e,N)
Basis function cutoff value   ... 1.000000e-12
Loading the fitted atomic densities  (DKH4)  ... done
Calculating the cutoffs                      ... done
Number of fit functions                      ... 15
Setting up the integration grid ... done


           ************************************************************
           *        Program running with 18 parallel MPI-processes    *
           *              working on a common directory               *
           ************************************************************
-------------------------------------------------------------------------------
                                 ORCA SCF
-------------------------------------------------------------------------------

------------
SCF SETTINGS
------------
Hamiltonian:
 Density Functional     Method          .... DFT(GTOs)
 Exchange Functional    Exchange        .... Slater
   X-Alpha parameter    XAlpha          ....  0.666667
 Correlation Functional Correlation     .... VWN-5
 Gradients option       PostSCFGGA      .... off
   Density functional embedding theory  .... OFF

Relativistic Settings:
 Scalar relativistic method             .... ZORA
 Speed of light used       Velit        ....       274.071978
Orbital energies will be scaled


General Settings:
 Integral files         IntName         .... Ar_ano-rcc-qzp_274.071978_
 Hartree-Fock type      HFTyp           .... RHF
 Total Charge           Charge          ....   16
 Multiplicity           Mult            ....    1
 Number of Electrons    NEL             ....    2
 Basis Dimension        Dim             ....   50
 Nuclear Repulsion      ENuc            ....      0.0000000000 Eh

Convergence Acceleration:
 DIIS                   CNVDIIS         .... on
   Start iteration      DIISMaxIt       ....    12
   Startup error        DIISStart       ....  0.200000
   # of expansion vecs  DIISMaxEq       ....     5
   Bias factor          DIISBfac        ....   1.050
   Max. coefficient     DIISMaxC        ....  10.000
 Newton-Raphson         CNVNR           .... off
 SOSCF                  CNVSOSCF        .... on
   Start iteration      SOSCFMaxIt      ....   150
   Startup grad/error   SOSCFStart      ....  0.003300
 Level Shifting         CNVShift        .... on
   Level shift para.    LevelShift      ....    0.2500
   Turn off err/grad.   ShiftErr        ....    0.0010
 Zerner damping         CNVZerner       .... off
 Static damping         CNVDamp         .... on
   Fraction old density DampFac         ....    0.7000
   Max. Damping (<1)    DampMax         ....    0.9800
   Min. Damping (>=0)   DampMin         ....    0.0000
   Turn off err/grad.   DampErr         ....    0.1000
 Fernandez-Rico         CNVRico         .... off

SCF Procedure:
 Maximum # iterations   MaxIter         ....   125
 SCF integral mode      SCFMode         .... Direct
   Integral package                     .... LIBINT
 Reset frequency        DirectResetFreq ....    20
 Integral Threshold     Thresh          ....  1.000e-12 Eh
 Primitive CutOff       TCut            ....  1.000e-14 Eh

Convergence Tolerance:
 Convergence Check Mode ConvCheckMode   .... Total+1el-Energy
 Convergence forced     ConvForced      .... 0
 Energy Change          TolE            ....  1.000e-09 Eh
 1-El. energy change                    ....  1.000e-06 Eh
 Orbital Gradient       TolG            ....  2.000e-06
 Orbital Rotation angle TolX            ....  2.000e-06
 DIIS Error             TolErr          ....  1.000e-08


Diagonalization of the overlap matrix:
Smallest eigenvalue                        ... 1.000e+00
Time for diagonalization                   ...    0.001 sec
Threshold for overlap eigenvalues          ... 1.000e-08
Number of eigenvalues below threshold      ... 0
Time for construction of square roots      ...    0.001 sec
Total time needed                          ...    0.002 sec

-------------------
DFT GRID GENERATION
-------------------

General Integration Accuracy     IntAcc      ...  5.010
Radial Grid Type                 RadialGrid  ... Gauss-Chebyshev
Angular Grid (max. acc.)         AngularGrid ... Lebedev-434
Angular grid pruning method      GridPruning ... 3 (G Style)
Weight generation scheme         WeightScheme... Becke
Basis function cutoff            BFCut       ...    1.0000e-12
Integration weight cutoff        WCut        ...    1.0000e-14
Grids for H and He will be reduced by one unit

# of grid points (after initial pruning)     ...  11992 (   0.0 sec)
# of grid points (after weights+screening)   ...  11992 (   0.0 sec)
Grid point division into batches done        ...    0.1 sec
Reduced shell lists constructed in    0.1 sec

Total number of grid points                  ...    11992
Total number of batches                      ...      188
Average number of points per batch           ...       63
Average number of grid points per atom       ...    11992
Average number of shells per batch           ...     9.50 (59.38%)
Average number of basis functions per batch  ...    25.83 (51.67%)
Average number of large shells per batch     ...     5.83 (61.40%)
Average number of large basis fcns per batch ...    14.83 (57.42%)
Maximum spatial batch extension              ...  18.71, 18.71, 18.71 au
Average spatial batch extension              ...   0.97,  0.98,  0.97 au

Time for grid setup =    0.148 sec

------------------------------
INITIAL GUESS: MODEL POTENTIAL
------------------------------
Loading ZORA relativistic densities                ... done
Calculating cut-offs                               ... done
Setting up the integral package                    ... done
Initializing the effective Hamiltonian             ... done
Starting the Coulomb interaction                   ... done (   0.0 sec)
Reading the grid                                   ... done
Mapping shells                                     ... done
Starting the XC term evaluation                    ... done (   0.0 sec)
  promolecular density results
     # of electrons  =     18.000000116
     EX              =    -28.047870263
     EC              =     -1.433252902
     EX+EC           =    -29.481123164
Transforming the Hamiltonian                       ... done (   0.0 sec)
Diagonalizing the Hamiltonian                      ... done (   0.0 sec)
Back transforming the eigenvectors                 ... done (   0.0 sec)
Now organizing SCF variables                       ... done
                      ------------------
                      INITIAL GUESS DONE (   0.2 sec)
                      ------------------
--------------
SCF ITERATIONS
--------------
ITER       Energy         Delta-E        Max-DP      RMS-DP      [F,P]     Damp
               ***  Starting incremental Fock matrix formation  ***
  0   -311.7858228047   0.000000000000 0.00515479  0.00012185  1.9091532 0.7000
                      *** Initiating the SOSCF procedure ***
                      *** Re-Reading the Fockian *** 
                      *** Removing any level shift *** 
ITER      Energy       Delta-E        Grad      Rot      Max-DP    RMS-DP
  1   -311.79316568  -0.0073428790  0.000660  0.000660  0.012018  0.000284
               *** Restarting incremental Fock matrix formation ***
  2   -311.81012793  -0.0169622447  0.006915  0.000062  0.000111  0.000003
  3   -311.81012908  -0.0000011542  0.000066  0.000001  0.000001  0.000000
                 **** Energy Check signals convergence ****
              ***Rediagonalizing the Fockian in SOSCF/NRSCF***

               *****************************************************
               *                     SUCCESS                       *
               *           SCF CONVERGED AFTER   4 CYCLES          *
               *****************************************************

Setting up the final grid:

General Integration Accuracy     IntAcc      ...  5.340
Radial Grid Type                 RadialGrid  ... Gauss-Chebyshev
Angular Grid (max. acc.)         AngularGrid ... Lebedev-590
Angular grid pruning method      GridPruning ... 3 (G Style)
Weight generation scheme         WeightScheme... Becke
Basis function cutoff            BFCut       ...    1.0000e-12
Integration weight cutoff        WCut        ...    1.0000e-14
Grids for H and He will be reduced by one unit

# of grid points (after initial pruning)     ...  18110 (   0.0 sec)
# of grid points (after weights+screening)   ...  18110 (   0.0 sec)
Grid point division into batches done        ...    0.2 sec
Reduced shell lists constructed in    0.2 sec

Total number of grid points                  ...    18110
Total number of batches                      ...      283
Average number of points per batch           ...       63
Average number of grid points per atom       ...    18110
Average number of shells per batch           ...     3.88 (24.26%)
Average number of basis functions per batch  ...     9.29 (18.59%)
Average number of large shells per batch     ...     2.12 (54.55%)
Average number of large basis fcns per batch ...     6.35 (68.35%)
Maximum spatial batch extension              ...  19.03, 19.03, 19.03 au
Average spatial batch extension              ...   0.84,  0.84,  0.80 au

Final grid set up in    0.2 sec
Final integration                            ... done (   0.0 sec)
Change in XC energy                          ...     0.000014088
Integrated number of electrons               ...     2.000000249
Previous integrated no of electrons          ...     2.000000962

----------------
TOTAL SCF ENERGY
----------------

Total Energy       :         -311.81011499 Eh           -8484.78459 eV

Components:
Nuclear Repulsion  :            0.00000000 Eh               0.00000 eV
Electronic Energy  :         -311.81011499 Eh           -8484.78459 eV
One Electron Energy:         -324.19142944 Eh           -8821.69728 eV
Two Electron Energy:           12.38131445 Eh             336.91269 eV

Virial components:
Potential Energy   :         -630.98527247 Eh          -17169.98217 eV
Kinetic Energy     :          319.17515747 Eh            8685.19758 eV
Virial Ratio       :            1.97692476


DFT components:
N(Alpha)           :        1.000000124533 electrons
N(Beta)            :        1.000000124533 electrons
N(Total)           :        2.000000249066 electrons
E(X)               :       -9.495893395942 Eh       
E(C)               :       -0.237148419050 Eh       
E(XC)              :       -9.733041814992 Eh       
DFET-embed. en.    :        0.000000000000 Eh       

---------------
SCF CONVERGENCE
---------------

  Last Energy change         ...   -1.0419e-10  Tolerance :   1.0000e-09
  Last MAX-Density change    ...    0.0000e+00  Tolerance :   1.0000e-08
  Last RMS-Density change    ...    0.0000e+00  Tolerance :   1.0000e-09
  Last Orbital Gradient      ...    4.4200e-10  Tolerance :   2.0000e-06
  Last Orbital Rotation      ...    0.0000e+00  Tolerance :   2.0000e-06

================================================================================
                                        WARNING
Number of found core electrons (2) does not match given number of chemical core electrons (10)
================================================================================
             **** THE GBW FILE WAS UPDATED (Ar_ano-rcc-qzp_274.071978_.gbw) ****
             **** DENSITY FILE WAS UPDATED (Ar_ano-rcc-qzp_274.071978_.scfp) ****
             **** ENERGY FILE WAS UPDATED (Ar_ano-rcc-qzp_274.071978_.en.tmp) ****
             **** THE GBW FILE WAS UPDATED (Ar_ano-rcc-qzp_274.071978_.gbw) ****
             **** DENSITY FILE WAS UPDATED (Ar_ano-rcc-qzp_274.071978_.scfp) ****
----------------
ORBITAL ENERGIES
----------------

  NO   OCC          E(Eh)            E(eV) 
   0   2.0000    -146.440089     -3984.8374 
   1   0.0000     -34.023359      -925.8227 
   2   0.0000     -33.042700      -899.1376 
   3   0.0000     -33.042700      -899.1376 
   4   0.0000     -33.042700      -899.1376 
   5   0.0000     -14.643821      -398.4786 
   6   0.0000     -14.202144      -386.4600 
   7   0.0000     -14.202144      -386.4600 
   8   0.0000     -14.202144      -386.4600 
   9   0.0000     -11.400894      -310.2341 
  10   0.0000     -11.400894      -310.2341 
  11   0.0000     -11.400894      -310.2341 
  12   0.0000     -11.400894      -310.2341 
  13   0.0000     -11.400894      -310.2341 
  14   0.0000      -8.150019      -221.7733 
  15   0.0000      -7.956684      -216.5124 
  16   0.0000      -7.956684      -216.5124 
  17   0.0000      -7.956684      -216.5124 
  18   0.0000      -7.578970      -206.2342 
  19   0.0000      -7.578970      -206.2342 
  20   0.0000      -7.578970      -206.2342 
  21   0.0000      -7.578970      -206.2342 
  22   0.0000      -7.578970      -206.2342 
  23   0.0000      -7.578970      -206.2342 
  24   0.0000      -7.578970      -206.2342 
  25   0.0000      -6.227113      -169.4484 
  26   0.0000      -6.227113      -169.4484 
  27   0.0000      -6.227113      -169.4484 
  28   0.0000      -6.227113      -169.4484 
  29   0.0000      -6.227113      -169.4484 
  30   0.0000      -5.154340      -140.2567 
  31   0.0000      -5.104572      -138.9025 
  32   0.0000      -5.104572      -138.9025 
  33   0.0000      -5.104572      -138.9025 
  34   0.0000      -4.862917      -132.3267 
  35   0.0000      -4.862917      -132.3267 
  36   0.0000      -4.862917      -132.3267 
  37   0.0000      -4.862917      -132.3267 
  38   0.0000      -4.862917      -132.3267 
  39   0.0000      -4.862917      -132.3267 
  40   0.0000      -4.862917      -132.3267 
  41   0.0000      -4.264134      -116.0330 
  42   0.0000      -4.264134      -116.0330 
  43   0.0000      -4.264134      -116.0330 
  44   0.0000      -4.264134      -116.0330 
  45   0.0000      -4.264134      -116.0330 
  46   0.0000      -3.422968       -93.1437 
  47   0.0000      -3.418855       -93.0318 
  48   0.0000      -3.418855       -93.0318 
  49   0.0000      -3.418855       -93.0318 

                    ********************************
                    * MULLIKEN POPULATION ANALYSIS *
                    ********************************

-----------------------
MULLIKEN ATOMIC CHARGES
-----------------------
   0 Ar:   16.000000
Sum of atomic charges:   16.0000000

--------------------------------
MULLIKEN REDUCED ORBITAL CHARGES
--------------------------------
  0 Ars       :     2.000000  s :     2.000000
      pz      :     0.000000  p :     0.000000
      px      :     0.000000
      py      :     0.000000
      dz2     :     0.000000  d :     0.000000
      dxz     :     0.000000
      dyz     :     0.000000
      dx2y2   :     0.000000
      dxy     :     0.000000
      f0      :     0.000000  f :     0.000000
      f+1     :     0.000000
      f-1     :     0.000000
      f+2     :     0.000000
      f-2     :     0.000000
      f+3     :     0.000000
      f-3     :     0.000000


                     *******************************
                     * LOEWDIN POPULATION ANALYSIS *
                     *******************************

----------------------
LOEWDIN ATOMIC CHARGES
----------------------
   0 Ar:   16.000000

-------------------------------
LOEWDIN REDUCED ORBITAL CHARGES
-------------------------------
  0 Ars       :     2.000000  s :     2.000000
      pz      :     0.000000  p :     0.000000
      px      :     0.000000
      py      :     0.000000
      dz2     :     0.000000  d :     0.000000
      dxz     :     0.000000
      dyz     :     0.000000
      dx2y2   :     0.000000
      dxy     :     0.000000
      f0      :     0.000000  f :     0.000000
      f+1     :     0.000000
      f-1     :     0.000000
      f+2     :     0.000000
      f-2     :     0.000000
      f+3     :     0.000000
      f-3     :     0.000000


                      *****************************
                      * MAYER POPULATION ANALYSIS *
                      *****************************

  NA   - Mulliken gross atomic population
  ZA   - Total nuclear charge
  QA   - Mulliken gross atomic charge
  VA   - Mayer's total valence
  BVA  - Mayer's bonded valence
  FA   - Mayer's free valence

  ATOM       NA         ZA         QA         VA         BVA        FA
  0 Ar     2.0000    18.0000    16.0000     0.0000     0.0000     0.0000

  Mayer bond orders larger than 0.100000


--------------------------
ATOM BASIS FOR ELEMENT Ar
--------------------------
 NewGTO Ar
 S 102
    1     455476.770000000019         0.000319855334
    2      64817.743000000002         0.001011605241
    3      19256.987000000001         0.002170188338
    4       6877.007300000000         0.005962863005
    5       2643.487700000000         0.015907887914
    6       1054.237500000000         0.044046247392
    7        429.371220000000         0.114458550119
    8        177.188590000000         0.254624955176
    9         73.763945000000         0.398471846536
   10         30.897007000000         0.278945890348
   11         12.999482000000         0.038334780719
   12          5.487679300000         0.003118564502
   13          2.322571600000        -0.001384649799
   14          0.984980700000         0.001002725371
   15          0.418397300000        -0.000643170617
   16          0.177959400000         0.000282015886
   17          0.071183800000        -0.000076278887
   18     455476.770000000019         0.000000468441
   19      64817.743000000002         0.000001483574
   20      19256.987000000001         0.000003191568
   21       6877.007300000000         0.000008798217
   22       2643.487700000000         0.000023702179
   23       1054.237500000000         0.000066823630
   24        429.371220000000         0.000181886396
   25        177.188590000000         0.000448176530
   26         73.763945000000         0.000894284459
   27         30.897007000000         0.000950894469
   28         12.999482000000        -0.000700684696
   29          5.487679300000        -0.003248165266
   30          2.322571600000        -0.001955114336
   31          0.984980700000        -0.000025461607
   32          0.418397300000        -0.000060039764
   33          0.177959400000         0.000022804910
   34          0.071183800000        -0.000006608578
   35     455476.770000000019         0.000000027952
   36      64817.743000000002         0.000000088447
   37      19256.987000000001         0.000000190972
   38       6877.007300000000         0.000000523345
   39       2643.487700000000         0.000001423393
   40       1054.237500000000         0.000003979853
   41        429.371220000000         0.000011000741
   42        177.188590000000         0.000027067144
   43         73.763945000000         0.000056226295
   44         30.897007000000         0.000061058666
   45         12.999482000000        -0.000047135822
   46          5.487679300000        -0.000319142221
   47          2.322571600000        -0.000337916473
   48          0.984980700000         0.000331594838
   49          0.418397300000         0.000658524029
   50          0.177959400000         0.000247457428
   51          0.071183800000         0.000004390077
   52     455476.770000000019         0.000000031219
   53      64817.743000000002         0.000000098760
   54      19256.987000000001         0.000000213395
   55       6877.007300000000         0.000000584503
   56       2643.487700000000         0.000001590995
   57       1054.237500000000         0.000004453085
   58        429.371220000000         0.000012330424
   59        177.188590000000         0.000030507582
   60         73.763945000000         0.000064161929
   61         30.897007000000         0.000071322399
   62         12.999482000000        -0.000078030612
   63          5.487679300000        -0.000375891763
   64          2.322571600000        -0.000602189476
   65          0.984980700000         0.001713234891
   66          0.418397300000         0.000002410556
   67          0.177959400000        -0.001070081041
   68          0.071183800000        -0.000041458256
   69     455476.770000000019         0.000000040486
   70      64817.743000000002         0.000000122386
   71      19256.987000000001         0.000000303396
   72       6877.007300000000         0.000000631693
   73       2643.487700000000         0.000002464980
   74       1054.237500000000         0.000004474199
   75        429.371220000000         0.000019642132
   76        177.188590000000         0.000029762250
   77         73.763945000000         0.000112977501
   78         30.897007000000         0.000024390905
   79         12.999482000000         0.000030453459
   80          5.487679300000        -0.001083980052
   81          2.322571600000         0.000571519075
   82          0.984980700000         0.002314894057
   83          0.418397300000        -0.003672768779
   84          0.177959400000         0.001722965534
   85          0.071183800000         0.000203786556
   86     455476.770000000019         0.000000039658
   87      64817.743000000002         0.000000115616
   88      19256.987000000001         0.000000317878
   89       6877.007300000000         0.000000521066
   90       2643.487700000000         0.000002733714
   91       1054.237500000000         0.000003369060
   92        429.371220000000         0.000022263022
   93        177.188590000000         0.000021733854
   94         73.763945000000         0.000138021843
   95         30.897007000000        -0.000038766710
   96         12.999482000000         0.000110647190
   97          5.487679300000        -0.001710387179
   98          2.322571600000         0.003301976043
   99          0.984980700000        -0.002762379059
  100          0.418397300000         0.000578719337
  101          0.177959400000         0.001243875962
  102          0.071183800000        -0.001097071500
 S 101
    1     455476.770000000019        -0.000001707647
    2      64817.743000000002        -0.000005400767
    3      19256.987000000001        -0.000011586221
    4       6877.007300000000        -0.000031834587
    5       2643.487700000000        -0.000084929176
    6       1054.237500000000        -0.000235154503
    7        429.371220000000        -0.000611072341
    8        177.188590000000        -0.001359394011
    9         73.763945000000        -0.002127365093
   10         30.897007000000        -0.001489238839
   11         12.999482000000        -0.000204662074
   12          5.487679300000        -0.000016649420
   13          2.322571600000         0.000007392381
   14          0.984980700000        -0.000005353359
   15          0.418397300000         0.000003433765
   16          0.177959400000        -0.000001505629
   17     455476.770000000019         0.000090176625
   18      64817.743000000002         0.000285593794
   19      19256.987000000001         0.000614389216
   20       6877.007300000000         0.001693691000
   21       2643.487700000000         0.004562761839
   22       1054.237500000000         0.012863809299
   23        429.371220000000         0.035013840509
   24        177.188590000000         0.086275729483
   25         73.763945000000         0.172153245377
   26         30.897007000000         0.183050892930
   27         12.999482000000        -0.134884536053
   28          5.487679300000        -0.625284478881
   29          2.322571600000        -0.376367133011
   30          0.984980700000        -0.004901458660
   31          0.418397300000        -0.011557888622
   32          0.177959400000         0.004390034145
   33          0.071183800000        -0.001272177102
   34     455476.770000000019         0.000002894455
   35      64817.743000000002         0.000009158934
   36      19256.987000000001         0.000019775608
   37       6877.007300000000         0.000054193695
   38       2643.487700000000         0.000147395958
   39       1054.237500000000         0.000412123985
   40        429.371220000000         0.001139154899
   41        177.188590000000         0.002802872009
   42         73.763945000000         0.005822376629
   43         30.897007000000         0.006322781001
   44         12.999482000000        -0.004881034875
   45          5.487679300000        -0.033047992988
   46          2.322571600000        -0.034992114839
   47          0.984980700000         0.034337493366
   48          0.418397300000         0.068191846970
   49          0.177959400000         0.025624849398
   50          0.071183800000         0.000454603696
   51     455476.770000000019         0.000003088227
   52      64817.743000000002         0.000009769434
   53      19256.987000000001         0.000021109214
   54       6877.007300000000         0.000057819671
   55       2643.487700000000         0.000157382866
   56       1054.237500000000         0.000440503775
   57        429.371220000000         0.001219738246
   58        177.188590000000         0.003017841452
   59         73.763945000000         0.006346964206
   60         30.897007000000         0.007055285252
   61         12.999482000000        -0.007718868622
   62          5.487679300000        -0.037183600671
   63          2.322571600000        -0.059569203718
   64          0.984980700000         0.169474961513
   65          0.418397300000         0.000238454695
   66          0.177959400000        -0.105853519635
   67          0.071183800000        -0.004101093470
   68     455476.770000000019         0.000003774686
   69      64817.743000000002         0.000011410502
   70      19256.987000000001         0.000028286685
   71       6877.007300000000         0.000058894987
   72       2643.487700000000         0.000229818716
   73       1054.237500000000         0.000417145248
   74        429.371220000000         0.001831304965
   75        177.188590000000         0.002774839084
   76         73.763945000000         0.010533289214
   77         30.897007000000         0.002274049749
   78         12.999482000000         0.002839282902
   79          5.487679300000        -0.101063267354
   80          2.322571600000         0.053284730650
   81          0.984980700000         0.215825703232
   82          0.418397300000        -0.342425132566
   83          0.177959400000         0.160638128047
   84          0.071183800000         0.018999736323
   85     455476.770000000019         0.000003892518
   86      64817.743000000002         0.000011348126
   87      19256.987000000001         0.000031200759
   88       6877.007300000000         0.000051144313
   89       2643.487700000000         0.000268322835
   90       1054.237500000000         0.000330684163
   91        429.371220000000         0.002185187659
   92        177.188590000000         0.002133248107
   93         73.763945000000         0.013547290240
   94         30.897007000000        -0.003805078001
   95         12.999482000000         0.010860379543
   96          5.487679300000        -0.167880033349
   97          2.322571600000         0.324099627781
   98          0.984980700000        -0.271136438690
   99          0.418397300000         0.056803174571
  100          0.177959400000         0.122090448568
  101          0.071183800000        -0.107681115810
 S 100
    1     455476.770000000019        -0.000000249765
    2      64817.743000000002        -0.000000789932
    3      19256.987000000001        -0.000001694635
    4       6877.007300000000        -0.000004656221
    5       2643.487700000000        -0.000012421994
    6       1054.237500000000        -0.000034394398
    7        429.371220000000        -0.000089377260
    8        177.188590000000        -0.000198829015
    9         73.763945000000        -0.000311154752
   10         30.897007000000        -0.000217820507
   11         12.999482000000        -0.000029934484
   12          5.487679300000        -0.000002435194
   13          2.322571600000         0.000001081232
   14          0.984980700000        -0.000000782998
   15          0.418397300000         0.000000502233
   16     455476.770000000019        -0.000015043141
   17      64817.743000000002        -0.000047642364
   18      19256.987000000001        -0.000102491564
   19       6877.007300000000        -0.000282539204
   20       2643.487700000000        -0.000761153657
   21       1054.237500000000        -0.002145922981
   22        429.371220000000        -0.005840960733
   23        177.188590000000        -0.014392398573
   24         73.763945000000        -0.028718367702
   25         30.897007000000        -0.030536298283
   26         12.999482000000         0.022501252853
   27          5.487679300000         0.104309097068
   28          2.322571600000         0.062785047665
   29          0.984980700000         0.000817654595
   30          0.418397300000         0.001928071089
   31          0.177959400000        -0.000732339460
   32          0.071183800000         0.000212222835
   33     455476.770000000019         0.000021249963
   34      64817.743000000002         0.000067241323
   35      19256.987000000001         0.000145184807
   36       6877.007300000000         0.000397868997
   37       2643.487700000000         0.001082123701
   38       1054.237500000000         0.003025653737
   39        429.371220000000         0.008363231464
   40        177.188590000000         0.020577594319
   41         73.763945000000         0.042745620874
   42         30.897007000000         0.046419394821
   43         12.999482000000        -0.035834656455
   44          5.487679300000        -0.242625489377
   45          2.322571600000        -0.256898474599
   46          0.984980700000         0.252092498777
   47          0.418397300000         0.500637973648
   48          0.177959400000         0.188127661114
   49          0.071183800000         0.003337523229
   50     455476.770000000019         0.000018089862
   51      64817.743000000002         0.000057226278
   52      19256.987000000001         0.000123651151
   53       6877.007300000000         0.000338689488
   54       2643.487700000000         0.000921899444
   55       1054.237500000000         0.002580332880
   56        429.371220000000         0.007144843887
   57        177.188590000000         0.017677568218
   58         73.763945000000         0.037178524618
   59         30.897007000000         0.041327647028
   60         12.999482000000        -0.045214710176
   61          5.487679300000        -0.217809864373
   62          2.322571600000        -0.348937702332
   63          0.984980700000         0.992731142636
   64          0.418397300000         0.001396792773
   65          0.177959400000        -0.620056700774
   66          0.071183800000        -0.024022918610
   67     455476.770000000019         0.000015776175
   68      64817.743000000002         0.000047689811
   69      19256.987000000001         0.000118223248
   70       6877.007300000000         0.000246149618
   71       2643.487700000000         0.000960519589
   72       1054.237500000000         0.001743444523
   73        429.371220000000         0.007653877464
   74        177.188590000000         0.011597346559
   75         73.763945000000         0.044023527744
   76         30.897007000000         0.009504314388
   77         12.999482000000         0.011866687326
   78          5.487679300000        -0.422390524354
   79          2.322571600000         0.222701738313
   80          0.984980700000         0.902036262468
   81          0.418397300000        -1.431154316327
   82          0.177959400000         0.671381649468
   83          0.071183800000         0.079408758477
   84     455476.770000000019         0.000010821191
   85      64817.743000000002         0.000031547766
   86      19256.987000000001         0.000086738040
   87       6877.007300000000         0.000142181077
   88       2643.487700000000         0.000745936884
   89       1054.237500000000         0.000919301235
   90        429.371220000000         0.006074816822
   91        177.188590000000         0.005930424984
   92         73.763945000000         0.037661436674
   93         30.897007000000        -0.010578108361
   94         12.999482000000         0.030191830925
   95          5.487679300000        -0.466706118562
   96          2.322571600000         0.900996242921
   97          0.984980700000        -0.753758695286
   98          0.418397300000         0.157912698712
   99          0.177959400000         0.339411174919
  100          0.071183800000        -0.299353261965
 S 99
    1     455476.770000000019         0.000000077856
    2      64817.743000000002         0.000000246235
    3      19256.987000000001         0.000000528245
    4       6877.007300000000         0.000001451419
    5       2643.487700000000         0.000003872136
    6       1054.237500000000         0.000010721288
    7        429.371220000000         0.000027860333
    8        177.188590000000         0.000061978211
    9         73.763945000000         0.000096991954
   10         30.897007000000         0.000067898165
   11         12.999482000000         0.000009331062
   12          5.487679300000         0.000000759089
   13          2.322571600000        -0.000000337037
   14          0.984980700000         0.000000244073
   15     455476.770000000019         0.000003482643
   16      64817.743000000002         0.000011029701
   17      19256.987000000001         0.000023727859
   18       6877.007300000000         0.000065410752
   19       2643.487700000000         0.000176214955
   20       1054.237500000000         0.000496803397
   21        429.371220000000         0.001352242908
   22        177.188590000000         0.003331989341
   23         73.763945000000         0.006648599578
   24         30.897007000000         0.007069469337
   25         12.999482000000        -0.005209273096
   26          5.487679300000        -0.024148636368
   27          2.322571600000        -0.014535388840
   28          0.984980700000        -0.000189295508
   29          0.418397300000        -0.000446368427
   30          0.177959400000         0.000169544170
   31          0.071183800000        -0.000049131784
   32     455476.770000000019         0.000018866813
   33      64817.743000000002         0.000059700314
   34      19256.987000000001         0.000128902558
   35       6877.007300000000         0.000353248611
   36       2643.487700000000         0.000960765220
   37       1054.237500000000         0.002686331401
   38        429.371220000000         0.007425308131
   39        177.188590000000         0.018269849287
   40         73.763945000000         0.037951766321
   41         30.897007000000         0.041213532264
   42         12.999482000000        -0.031815855757
   43          5.487679300000        -0.215415420061
   44          2.322571600000        -0.228087712305
   45          0.984980700000         0.223820719158
   46          0.418397300000         0.444492207595
   47          0.177959400000         0.167029438037
   48          0.071183800000         0.002963225216
   49     455476.770000000019        -0.000015121470
   50      64817.743000000002        -0.000047835934
   51      19256.987000000001        -0.000103361051
   52       6877.007300000000        -0.000283113432
   53       2643.487700000000        -0.000770623609
   54       1054.237500000000        -0.002156922264
   55        429.371220000000        -0.005972435949
   56        177.188590000000        -0.014776830058
   57         73.763945000000        -0.031077845850
   58         30.897007000000        -0.034546132663
   59         12.999482000000         0.037795361904
   60          5.487679300000         0.182069123482
   61          2.322571600000         0.291680001713
   62          0.984980700000        -0.829832429829
   63          0.418397300000        -0.001167590993
   64          0.177959400000         0.518310685075
   65          0.071183800000         0.020080962574
   66     455476.770000000019        -0.000025578828
   67      64817.743000000002        -0.000077322258
   68      19256.987000000001        -0.000191682212
   69       6877.007300000000        -0.000399096659
   70       2643.487700000000        -0.001557346147
   71       1054.237500000000        -0.002826747777
   72        429.371220000000        -0.012409675682
   73        177.188590000000        -0.018803450963
   74         73.763945000000        -0.071377900191
   75         30.897007000000        -0.015409896447
   76         12.999482000000        -0.019240148778
   77          5.487679300000         0.684846268202
   78          2.322571600000        -0.361079251574
   79          0.984980700000        -1.462523736959
   80          0.418397300000         2.320413542081
   81          0.177959400000        -1.088550028155
   82          0.071183800000        -0.128750028161
   83     455476.770000000019        -0.000015090879
   84      64817.743000000002        -0.000043995481
   85      19256.987000000001        -0.000120962030
   86       6877.007300000000        -0.000198281075
   87       2643.487700000000        -0.001040259157
   88       1054.237500000000        -0.001282027404
   89        429.371220000000        -0.008471740648
   90        177.188590000000        -0.008270376519
   91         73.763945000000        -0.052521406534
   92         30.897007000000         0.014751883589
   93         12.999482000000        -0.042104538915
   94          5.487679300000         0.650853072789
   95          2.322571600000        -1.256499861377
   96          0.984980700000         1.051167198065
   97          0.418397300000        -0.220219879495
   98          0.177959400000        -0.473331712075
   99          0.071183800000         0.417468258183
 S 98
    1     455476.770000000019        -0.000000042246
    2      64817.743000000002        -0.000000133612
    3      19256.987000000001        -0.000000286636
    4       6877.007300000000        -0.000000787568
    5       2643.487700000000        -0.000002101094
    6       1054.237500000000        -0.000005817573
    7        429.371220000000        -0.000015117543
    8        177.188590000000        -0.000033630547
    9         73.763945000000        -0.000052629665
   10         30.897007000000        -0.000036842826
   11         12.999482000000        -0.000005063210
   12          5.487679300000        -0.000000411896
   13          2.322571600000         0.000000182883
   14     455476.770000000019        -0.000002040788
   15      64817.743000000002        -0.000006463277
   16      19256.987000000001        -0.000013904250
   17       6877.007300000000        -0.000038329942
   18       2643.487700000000        -0.000103259921
   19       1054.237500000000        -0.000291121031
   20        429.371220000000        -0.000792398668
   21        177.188590000000        -0.001952507127
   22         73.763945000000        -0.003896002278
   23         30.897007000000        -0.004142627078
   24         12.999482000000         0.003052573645
   25          5.487679300000         0.014150820966
   26          2.322571600000         0.008517569357
   27          0.984980700000         0.000110924973
   28          0.418397300000         0.000261566724
   29          0.177959400000        -0.000099350918
   30          0.071183800000         0.000028790656
   31     455476.770000000019         0.000004342135
   32      64817.743000000002         0.000013739831
   33      19256.987000000001         0.000029666500
   34       6877.007300000000         0.000081299006
   35       2643.487700000000         0.000221116954
   36       1054.237500000000         0.000618250334
   37        429.371220000000         0.001708910236
   38        177.188590000000         0.004204745704
   39         73.763945000000         0.008734474153
   40         30.897007000000         0.009485158854
   41         12.999482000000        -0.007322314525
   42          5.487679300000        -0.049577150188
   43          2.322571600000        -0.052493636554
   44          0.984980700000         0.051511602120
   45          0.418397300000         0.102298419152
   46          0.177959400000         0.038441275620
   47          0.071183800000         0.000681976534
   48     455476.770000000019        -0.000024414737
   49      64817.743000000002        -0.000077234670
   50      19256.987000000001        -0.000166884098
   51       6877.007300000000        -0.000457107673
   52       2643.487700000000        -0.001244229080
   53       1054.237500000000        -0.003482511270
   54        429.371220000000        -0.009642941636
   55        177.188590000000        -0.023858290157
   56         73.763945000000        -0.050177491440
   57         30.897007000000        -0.055777298220
   58         12.999482000000         0.061023420272
   59          5.487679300000         0.293964128957
   60          2.322571600000         0.470939036768
   61          0.984980700000        -1.339826120705
   62          0.418397300000        -0.001885162419
   63          0.177959400000         0.836851115408
   64          0.071183800000         0.032422206242
   65     455476.770000000019         0.000026173268
   66      64817.743000000002         0.000079119192
   67      19256.987000000001         0.000196136818
   68       6877.007300000000         0.000408371481
   69       2643.487700000000         0.001593538152
   70       1054.237500000000         0.002892440089
   71        429.371220000000         0.012698070812
   72        177.188590000000         0.019240434476
   73         73.763945000000         0.073036689613
   74         30.897007000000         0.015768015321
   75         12.999482000000         0.019687280946
   76          5.487679300000        -0.700761779060
   77          2.322571600000         0.369470566553
   78          0.984980700000         1.496512112885
   79          0.418397300000        -2.374338880713
   80          0.177959400000         1.113847427873
   81          0.071183800000         0.131742119330
   82     455476.770000000019         0.000022078889
   83      64817.743000000002         0.000064368108
   84      19256.987000000001         0.000176974927
   85       6877.007300000000         0.000290097467
   86       2643.487700000000         0.001521963440
   87       1054.237500000000         0.001875685329
   88        429.371220000000         0.012394680171
   89        177.188590000000         0.012100072004
   90         73.763945000000         0.076842063887
   91         30.897007000000        -0.021582917443
   92         12.999482000000         0.061601542738
   93          5.487679300000        -0.952238271987
   94          2.322571600000         1.838336956177
   95          0.984980700000        -1.537922579001
   96          0.418397300000         0.322195294567
   97          0.177959400000         0.692513549413
   98          0.071183800000        -0.610781863683
 S 98
    1     455476.770000000019        -0.000000023868
    2      64817.743000000002        -0.000000075488
    3      19256.987000000001        -0.000000161944
    4       6877.007300000000        -0.000000444961
    5       2643.487700000000        -0.000001187078
    6       1054.237500000000        -0.000003286819
    7        429.371220000000        -0.000008541127
    8        177.188590000000        -0.000019000625
    9         73.763945000000        -0.000029734768
   10         30.897007000000        -0.000020815502
   11         12.999482000000        -0.000002860618
   12          5.487679300000        -0.000000232714
   13          2.322571600000         0.000000103325
   14     455476.770000000019        -0.000001762957
   15      64817.743000000002        -0.000005583372
   16      19256.987000000001        -0.000012011337
   17       6877.007300000000        -0.000033111736
   18       2643.487700000000        -0.000089202201
   19       1054.237500000000        -0.000251488056
   20        429.371220000000        -0.000684522172
   21        177.188590000000        -0.001686694431
   22         73.763945000000        -0.003365603767
   23         30.897007000000        -0.003578653272
   24         12.999482000000         0.002636998807
   25          5.487679300000         0.012224339966
   26          2.322571600000         0.007357994547
   27          0.984980700000         0.000095823739
   28          0.418397300000         0.000225957248
   29          0.177959400000        -0.000085825367
   30          0.071183800000         0.000024871120
   31     455476.770000000019        -0.000001018683
   32      64817.743000000002        -0.000003223423
   33      19256.987000000001        -0.000006959888
   34       6877.007300000000        -0.000019073095
   35       2643.487700000000        -0.000051874985
   36       1054.237500000000        -0.000145044178
   37        429.371220000000        -0.000400917666
   38        177.188590000000        -0.000986451365
   39         73.763945000000        -0.002049145076
   40         30.897007000000        -0.002225258924
   41         12.999482000000         0.001717846374
   42          5.487679300000         0.011631011940
   43          2.322571600000         0.012315232143
   44          0.984980700000        -0.012084842655
   45          0.418397300000        -0.023999647622
   46          0.177959400000        -0.009018488034
   47          0.071183800000        -0.000159994618
   48     455476.770000000019         0.000002005019
   49      64817.743000000002         0.000006342766
   50      19256.987000000001         0.000013705074
   51       6877.007300000000         0.000037539193
   52       2643.487700000000         0.000102180205
   53       1054.237500000000         0.000285995338
   54        429.371220000000         0.000791910244
   55        177.188590000000         0.001959321657
   56         73.763945000000         0.004120741471
   57         30.897007000000         0.004580616116
   58         12.999482000000        -0.005011445001
   59          5.487679300000        -0.024141306042
   60          2.322571600000        -0.038675070506
   61          0.984980700000         0.110030950163
   62          0.418397300000         0.000154815770
   63          0.177959400000        -0.068724980018
   64          0.071183800000        -0.002662618756
   65     455476.770000000019        -0.000022355504
   66      64817.743000000002        -0.000067578469
   67      19256.987000000001        -0.000167527316
   68       6877.007300000000        -0.000348804364
   69       2643.487700000000        -0.001361096668
   70       1054.237500000000        -0.002470534240
   71        429.371220000000        -0.010845866383
   72        177.188590000000        -0.016433928001
   73         73.763945000000        -0.062383190985
   74         30.897007000000        -0.013468013356
   75         12.999482000000        -0.016815595199
   76          5.487679300000         0.598545143950
   77          2.322571600000        -0.315577732763
   78          0.984980700000        -1.278223334656
   79          0.418397300000         2.028005878187
   80          0.177959400000        -0.951376043866
   81          0.071183800000        -0.112525551671
   82     455476.770000000019         0.000051409950
   83      64817.743000000002         0.000149878975
   84      19256.987000000001         0.000412080163
   85       6877.007300000000         0.000675482192
   86       2643.487700000000         0.003543840669
   87       1054.237500000000         0.004367470187
   88        429.371220000000         0.028860595801
   89        177.188590000000         0.028174610594
   90         73.763945000000         0.178924160663
   91         30.897007000000        -0.050255097179
   92         12.999482000000         0.143437119883
   93          5.487679300000        -2.217254781392
   94          2.322571600000         4.280505757647
   95          0.984980700000        -3.581000986848
   96          0.418397300000         0.750220904197
   97          0.177959400000         1.612494502463
   98          0.071183800000        -1.422185021835
 P 60
    1       1462.496200000000         0.000940179566
    2        354.067310000000         0.006067046317
    3        126.697790000000         0.025178638116
    4         49.989095000000         0.090891225875
    5         20.509295000000         0.238435252627
    6          8.580464100000         0.406932011765
    7          3.630104900000         0.336384907460
    8          1.546528000000         0.071279402123
    9          0.661936900000         0.003434897398
   10          0.284242800000         0.000283826134
   11          0.122346300000         0.000465343870
   12          0.048938500000        -0.000083539802
   13       1462.496200000000         0.000029660322
   14        354.067310000000         0.000192189463
   15        126.697790000000         0.000804325057
   16         49.989095000000         0.002965855764
   17         20.509295000000         0.008037328621
   18          8.580464100000         0.014413930996
   19          3.630104900000         0.011914530669
   20          1.546528000000        -0.017495239474
   21          0.661936900000        -0.048292530953
   22          0.284242800000        -0.044299170249
   23          0.122346300000        -0.015845762026
   24          0.048938500000        -0.000730698327
   25       1462.496200000000         0.000035217530
   26        354.067310000000         0.000214211440
   27        126.697790000000         0.000974983610
   28         49.989095000000         0.003317684581
   29         20.509295000000         0.010068928134
   30          8.580464100000         0.015055828054
   31          3.630104900000         0.018372511672
   32          1.546528000000        -0.047121281931
   33          0.661936900000        -0.077007946024
   34          0.284242800000         0.053428393885
   35          0.122346300000         0.063294438377
   36          0.048938500000         0.006514614942
   37       1462.496200000000         0.000055494750
   38        354.067310000000         0.000324981313
   39        126.697790000000         0.001572150468
   40         49.989095000000         0.005110753354
   41         20.509295000000         0.017227325143
   42          8.580464100000         0.020327719213
   43          3.630104900000         0.027687281450
   44          1.546528000000        -0.163488503160
   45          0.661936900000         0.079554737079
   46          0.284242800000         0.121820400767
   47          0.122346300000        -0.120624176307
   48          0.048938500000        -0.012887765681
   49       1462.496200000000         0.000055454783
   50        354.067310000000         0.000577835309
   51        126.697790000000         0.001351744146
   52         49.989095000000         0.009746598553
   53         20.509295000000         0.015404960351
   54          8.580464100000         0.049827447498
   55          3.630104900000        -0.070728269883
   56          1.546528000000        -0.106630054037
   57          0.661936900000         0.285743844292
   58          0.284242800000        -0.282064653697
   59          0.122346300000         0.116108337888
   60          0.048938500000         0.018862593504
 P 60
    1       1462.496200000000        -0.000197734941
    2        354.067310000000        -0.001275997786
    3        126.697790000000        -0.005295474075
    4         49.989095000000        -0.019115892133
    5         20.509295000000        -0.050146782884
    6          8.580464100000        -0.085584371513
    7          3.630104900000        -0.070747176578
    8          1.546528000000        -0.014991208989
    9          0.661936900000        -0.000722414375
   10          0.284242800000        -0.000059693218
   11          0.122346300000        -0.000097869328
   12          0.048938500000         0.000017569769
   13       1462.496200000000         0.000171125514
   14        354.067310000000         0.001108838944
   15        126.697790000000         0.004640561107
   16         49.989095000000         0.017111533190
   17         20.509295000000         0.046371444331
   18          8.580464100000         0.083161312711
   19          3.630104900000         0.068740998623
   20          1.546528000000        -0.100938951437
   21          0.661936900000        -0.278624219116
   22          0.284242800000        -0.255584486348
   23          0.122346300000        -0.091422275530
   24          0.048938500000        -0.004215770982
   25       1462.496200000000         0.000179727936
   26        354.067310000000         0.001093199327
   27        126.697790000000         0.004975697967
   28         49.989095000000         0.016931357884
   29         20.509295000000         0.051385423053
   30          8.580464100000         0.076835397341
   31          3.630104900000         0.093761646942
   32          1.546528000000        -0.240477136654
   33          0.661936900000        -0.392999714785
   34          0.284242800000         0.272664635826
   35          0.122346300000         0.323014669447
   36          0.048938500000         0.033246462819
   37       1462.496200000000         0.000226141010
   38        354.067310000000         0.001324298289
   39        126.697790000000         0.006406510443
   40         49.989095000000         0.020826311099
   41         20.509295000000         0.070201320231
   42          8.580464100000         0.082835420718
   43          3.630104900000         0.112825624135
   44          1.546528000000        -0.666215368287
   45          0.661936900000         0.324185416331
   46          0.284242800000         0.496417922931
   47          0.122346300000        -0.491543310322
   48          0.048938500000        -0.052517622913
   49       1462.496200000000         0.000162120159
   50        354.067310000000         0.001689281738
   51        126.697790000000         0.003951777720
   52         49.989095000000         0.028493847104
   53         20.509295000000         0.045035874051
   54          8.580464100000         0.145668836449
   55          3.630104900000        -0.206771674953
   56          1.546528000000        -0.311729311493
   57          0.661936900000         0.835362343652
   58          0.284242800000        -0.824606355940
   59          0.122346300000         0.339438749751
   60          0.048938500000         0.055144146171
 P 60
    1       1462.496200000000        -0.000037879720
    2        354.067310000000        -0.000244440553
    3        126.697790000000        -0.001014444246
    4         49.989095000000        -0.003661996358
    5         20.509295000000        -0.009606527124
    6          8.580464100000        -0.016395240911
    7          3.630104900000        -0.013552906719
    8          1.546528000000        -0.002871838381
    9          0.661936900000        -0.000138391595
   10          0.284242800000        -0.000011435320
   11          0.122346300000        -0.000018748648
   12          0.048938500000         0.000003365808
   13       1462.496200000000        -0.000195421540
   14        354.067310000000        -0.001266269471
   15        126.697790000000        -0.005299417819
   16         49.989095000000        -0.019540991230
   17         20.509295000000        -0.052955160529
   18          8.580464100000        -0.094968373920
   19          3.630104900000        -0.078500695192
   20          1.546528000000         0.115270042893
   21          0.661936900000         0.318182676074
   22          0.284242800000         0.291871812463
   23          0.122346300000         0.104402210164
   24          0.048938500000         0.004814316921
   25       1462.496200000000         0.000039747249
   26        354.067310000000         0.000241763560
   27        126.697790000000         0.001100387115
   28         49.989095000000         0.003744408961
   29         20.509295000000         0.011364005170
   30          8.580464100000         0.016992325854
   31          3.630104900000         0.020735605106
   32          1.546528000000        -0.053182075030
   33          0.661936900000        -0.086912795991
   34          0.284242800000         0.060300414926
   35          0.122346300000         0.071435441329
   36          0.048938500000         0.007352532156
   37       1462.496200000000         0.000273673571
   38        354.067310000000         0.001602652447
   39        126.697790000000         0.007753094393
   40         49.989095000000         0.025203791868
   41         20.509295000000         0.084956930470
   42          8.580464100000         0.100246591591
   43          3.630104900000         0.136540433617
   44          1.546528000000        -0.806247126622
   45          0.661936900000         0.392325924696
   46          0.284242800000         0.600759968950
   47          0.122346300000        -0.594860761882
   48          0.048938500000        -0.063556298138
   49       1462.496200000000         0.000243114421
   50        354.067310000000         0.002533236802
   51        126.697790000000         0.005926062261
   52         49.989095000000         0.042729202889
   53         20.509295000000         0.067535527674
   54          8.580464100000         0.218444116884
   55          3.630104900000        -0.310073568463
   56          1.546528000000        -0.467467413181
   57          0.661936900000         1.252704379917
   58          0.284242800000        -1.236574765003
   59          0.122346300000         0.509020321251
   60          0.048938500000         0.082693832155
 P 59
    1       1462.496200000000        -0.000020916455
    2        354.067310000000        -0.000134975385
    3        126.697790000000        -0.000560156657
    4         49.989095000000        -0.002022084159
    5         20.509295000000        -0.005304540043
    6          8.580464100000        -0.009053137603
    7          3.630104900000        -0.007483655173
    8          1.546528000000        -0.001585774078
    9          0.661936900000        -0.000076417185
   10          0.284242800000        -0.000006314364
   11          0.122346300000        -0.000010352644
   12       1462.496200000000         0.000083400158
   13        354.067310000000         0.000540406520
   14        126.697790000000         0.002261635464
   15         49.989095000000         0.008339519599
   16         20.509295000000         0.022599703049
   17          8.580464100000         0.040529705287
   18          3.630104900000         0.033501784959
   19          1.546528000000        -0.049193859745
   20          0.661936900000        -0.135790996057
   21          0.284242800000        -0.124562294291
   22          0.122346300000        -0.044555788781
   23          0.048938500000        -0.002054608686
   24       1462.496200000000        -0.000252140620
   25        354.067310000000        -0.001533651148
   26        126.697790000000        -0.006980414925
   27         49.989095000000        -0.023753030039
   28         20.509295000000        -0.072088695170
   29          8.580464100000        -0.107792506282
   30          3.630104900000        -0.131538369902
   31          1.546528000000         0.337365773595
   32          0.661936900000         0.551339951255
   33          0.284242800000        -0.382521669532
   34          0.122346300000        -0.453157815153
   35          0.048938500000        -0.046641517794
   36       1462.496200000000         0.000050818322
   37        354.067310000000         0.000297595808
   38        126.697790000000         0.001439668592
   39         49.989095000000         0.004680080716
   40         20.509295000000         0.015775614007
   41          8.580464100000         0.018614744267
   42          3.630104900000         0.025354131383
   43          1.546528000000        -0.149711664408
   44          0.661936900000         0.072850823571
   45          0.284242800000         0.111554847008
   46          0.122346300000        -0.110459425915
   47          0.048938500000        -0.011801740265
   48       1462.496200000000         0.000326129328
   49        354.067310000000         0.003398246852
   50        126.697790000000         0.007949601241
   51         49.989095000000         0.057319702251
   52         20.509295000000         0.090596502530
   53          8.580464100000         0.293034994612
   54          3.630104900000        -0.415952637041
   55          1.546528000000        -0.627090868167
   56          0.661936900000         1.680458262990
   57          0.284242800000        -1.658820959651
   58          0.122346300000         0.682832612857
   59          0.048938500000         0.110930827553
 P 59
    1       1462.496200000000        -0.000011441288
    2        354.067310000000        -0.000073831452
    3        126.697790000000        -0.000306405342
    4         49.989095000000        -0.001106078773
    5         20.509295000000        -0.002901580092
    6          8.580464100000        -0.004952060617
    7          3.630104900000        -0.004093554707
    8          1.546528000000        -0.000867417431
    9          0.661936900000        -0.000041800152
   10          0.284242800000        -0.000003453953
   11          0.122346300000        -0.000005662890
   12       1462.496200000000        -0.000025642624
   13        354.067310000000        -0.000166156051
   14        126.697790000000        -0.000695373583
   15         49.989095000000        -0.002564109786
   16         20.509295000000        -0.006948616052
   17          8.580464100000        -0.012461462884
   18          3.630104900000        -0.010300623873
   19          1.546528000000         0.015125386504
   20          0.661936900000         0.041750968714
   21          0.284242800000         0.038298536743
   22          0.122346300000         0.013699342353
   23          0.048938500000         0.000631720110
   24       1462.496200000000         0.000117170597
   25        354.067310000000         0.000712692866
   26        126.697790000000         0.003243822382
   27         49.989095000000         0.011038113249
   28         20.509295000000         0.033499860015
   29          8.580464100000         0.050091541574
   30          3.630104900000         0.061126324564
   31          1.546528000000        -0.156775013928
   32          0.661936900000        -0.256209536658
   33          0.284242800000         0.177759111215
   34          0.122346300000         0.210583966551
   35          0.048938500000         0.021674470779
   36       1462.496200000000        -0.000347038019
   37        354.067310000000        -0.002032280019
   38        126.697790000000        -0.009831488325
   39         49.989095000000        -0.031960243603
   40         20.509295000000        -0.107731574987
   41          8.580464100000        -0.127119978788
   42          3.630104900000        -0.173143213644
   43          1.546528000000         1.022380073044
   44          0.661936900000        -0.497497844400
   45          0.284242800000        -0.761807392122
   46          0.122346300000         0.754326767939
   47          0.048938500000         0.080594014647
   48       1462.496200000000         0.000353986581
   49        354.067310000000         0.003688517653
   50        126.697790000000         0.008628638762
   51         49.989095000000         0.062215825633
   52         20.509295000000         0.098335057284
   53          8.580464100000         0.318065401828
   54          3.630104900000        -0.451482399967
   55          1.546528000000        -0.680655596204
   56          0.661936900000         1.823999326022
   57          0.284242800000        -1.800513811638
   58          0.122346300000         0.741158678598
   59          0.048938500000         0.120406295800
 D 15
    1          4.328841700000         0.021680511045
    2          1.774230200000         0.150636781054
    3          0.727190600000         0.468248010402
    4          0.298048200000         0.237207429382
    5          0.119219300000         0.022391456573
    6          4.328841700000        -0.071905270923
    7          1.774230200000         0.399162359387
    8          0.727190600000         0.176577480512
    9          0.298048200000        -0.519684258438
   10          0.119219300000        -0.037336248785
   11          4.328841700000        -0.051318920980
   12          1.774230200000         0.478313224898
   13          0.727190600000        -0.580888960557
   14          0.298048200000         0.226021238947
   15          0.119219300000         0.116397972296
 D 15
    1          4.328841700000        -0.017361010922
    2          1.774230200000        -0.120624776587
    3          0.727190600000        -0.374956974298
    4          0.298048200000        -0.189947587659
    5          0.119219300000        -0.017930311758
    6          4.328841700000        -0.078566760399
    7          1.774230200000         0.436141788319
    8          0.727190600000         0.192936073044
    9          0.298048200000        -0.567829146477
   10          0.119219300000        -0.040795175025
   11          4.328841700000        -0.082714705350
   12          1.774230200000         0.770934709991
   13          0.727190600000        -0.936264019126
   14          0.298048200000         0.364296049595
   15          0.119219300000         0.187607685393
 D 15
    1          4.328841700000         0.002487478412
    2          1.774230200000         0.017283067738
    3          0.727190600000         0.053723679073
    4          0.298048200000         0.027215611229
    5          0.119219300000         0.002569047599
    6          4.328841700000         0.078370388575
    7          1.774230200000        -0.435051684080
    8          0.727190600000        -0.192453843557
    9          0.298048200000         0.566409899397
   10          0.119219300000         0.040693210493
   11          4.328841700000        -0.130007360299
   12          1.774230200000         1.211721497222
   13          0.727190600000        -1.471578882553
   14          0.298048200000         0.572584615697
   15          0.119219300000         0.294873563854
 F 8
    1          1.631174000000         0.223492905038
    2          0.820328800000         0.528893961709
    3          0.412549100000         0.240617348609
    4          0.165019600000         0.035457038516
    5          1.631174000000         0.355643457262
    6          0.820328800000         0.016561913605
    7          0.412549100000        -0.341254611315
    8          0.165019600000        -0.042819892617
 F 8
    1          1.631174000000        -0.101375415318
    2          0.820328800000        -0.239904014037
    3          0.412549100000        -0.109142988874
    4          0.165019600000        -0.016083159351
    5          1.631174000000         0.784053896001
    6          0.820328800000         0.036512503244
    7          0.412549100000        -0.752332151954
    8          0.165019600000        -0.094401015813
 end
  // -----------------------------------------------
  // The basis set
  // -----------------------------------------------
  BAS[ATNO] = new BFNGauss[NSH];
  // Basis function   1 L = s
  InitBFNGauss(BAS[ATNO][  0]);
  BAS[ATNO][  0].l  = 0;
  BAS[ATNO][  0].ng = 102;
  BAS[ATNO][  0].a[  0] =    455476.770000000019;     BAS[ATNO][  0].d[  0] =         0.000319855334;
  BAS[ATNO][  0].a[  1] =     64817.743000000002;     BAS[ATNO][  0].d[  1] =         0.001011605241;
  BAS[ATNO][  0].a[  2] =     19256.987000000001;     BAS[ATNO][  0].d[  2] =         0.002170188338;
  BAS[ATNO][  0].a[  3] =      6877.007300000000;     BAS[ATNO][  0].d[  3] =         0.005962863005;
  BAS[ATNO][  0].a[  4] =      2643.487700000000;     BAS[ATNO][  0].d[  4] =         0.015907887914;
  BAS[ATNO][  0].a[  5] =      1054.237500000000;     BAS[ATNO][  0].d[  5] =         0.044046247392;
  BAS[ATNO][  0].a[  6] =       429.371220000000;     BAS[ATNO][  0].d[  6] =         0.114458550119;
  BAS[ATNO][  0].a[  7] =       177.188590000000;     BAS[ATNO][  0].d[  7] =         0.254624955176;
  BAS[ATNO][  0].a[  8] =        73.763945000000;     BAS[ATNO][  0].d[  8] =         0.398471846536;
  BAS[ATNO][  0].a[  9] =        30.897007000000;     BAS[ATNO][  0].d[  9] =         0.278945890348;
  BAS[ATNO][  0].a[ 10] =        12.999482000000;     BAS[ATNO][  0].d[ 10] =         0.038334780719;
  BAS[ATNO][  0].a[ 11] =         5.487679300000;     BAS[ATNO][  0].d[ 11] =         0.003118564502;
  BAS[ATNO][  0].a[ 12] =         2.322571600000;     BAS[ATNO][  0].d[ 12] =        -0.001384649799;
  BAS[ATNO][  0].a[ 13] =         0.984980700000;     BAS[ATNO][  0].d[ 13] =         0.001002725371;
  BAS[ATNO][  0].a[ 14] =         0.418397300000;     BAS[ATNO][  0].d[ 14] =        -0.000643170617;
[...]
  BAS[ATNO][  9].a[ 26] =        49.989095000000;     BAS[ATNO][  9].d[ 26] =        -0.023753030039;
  BAS[ATNO][  9].a[ 27] =        20.509295000000;     BAS[ATNO][  9].d[ 27] =        -0.072088695170;
  BAS[ATNO][  9].a[ 28] =         8.580464100000;     BAS[ATNO][  9].d[ 28] =        -0.107792506282;
  BAS[ATNO][  9].a[ 29] =         3.630104900000;     BAS[ATNO][  9].d[ 29] =        -0.131538369902;
  BAS[ATNO][  9].a[ 30] =         1.546528000000;     BAS[ATNO][  9].d[ 30] =         0.337365773595;
  BAS[ATNO][  9].a[ 31] =         0.661936900000;     BAS[ATNO][  9].d[ 31] =         0.551339951255;
  BAS[ATNO][  9].a[ 32] =         0.284242800000;     BAS[ATNO][  9].d[ 32] =        -0.382521669532;
  BAS[ATNO][  9].a[ 33] =         0.122346300000;     BAS[ATNO][  9].d[ 33] =        -0.453157815153;
  BAS[ATNO][  9].a[ 34] =         0.048938500000;     BAS[ATNO][  9].d[ 34] =        -0.046641517794;
  BAS[ATNO][  9].a[ 35] =      1462.496200000000;     BAS[ATNO][  9].d[ 35] =         0.000050818322;
  BAS[ATNO][  9].a[ 36] =       354.067310000000;     BAS[ATNO][  9].d[ 36] =         0.000297595808;
  BAS[ATNO][  9].a[ 37] =       126.697790000000;     BAS[ATNO][  9].d[ 37] =         0.001439668592;
  BAS[ATNO][  9].a[ 38] =        49.989095000000;     BAS[ATNO][  9].d[ 38] =         0.004680080716;
  BAS[ATNO][  9].a[ 39] =        20.509295000000;     BAS[ATNO][  9].d[ 39] =         0.015775614007;
  BAS[ATNO][  9].a[ 40] =         8.580464100000;     BAS[ATNO][  9].d[ 40] =         0.018614744267;
  BAS[ATNO][  9].a[ 41] =         3.630104900000;     BAS[ATNO][  9].d[ 41] =         0.025354131383;
  BAS[ATNO][  9].a[ 42] =         1.546528000000;     BAS[ATNO][  9].d[ 42] =        -0.149711664408;
  BAS[ATNO][  9].a[ 43] =         0.661936900000;     BAS[ATNO][  9].d[ 43] =         0.072850823571;
  BAS[ATNO][  9].a[ 44] =         0.284242800000;     BAS[ATNO][  9].d[ 44] =         0.111554847008;
  BAS[ATNO][  9].a[ 45] =         0.122346300000;     BAS[ATNO][  9].d[ 45] =        -0.110459425915;
  BAS[ATNO][  9].a[ 46] =         0.048938500000;     BAS[ATNO][  9].d[ 46] =        -0.011801740265;
  BAS[ATNO][  9].a[ 47] =      1462.496200000000;     BAS[ATNO][  9].d[ 47] =         0.000326129328;
  BAS[ATNO][  9].a[ 48] =       354.067310000000;     BAS[ATNO][  9].d[ 48] =         0.003398246852;
  BAS[ATNO][  9].a[ 49] =       126.697790000000;     BAS[ATNO][  9].d[ 49] =         0.007949601241;
  BAS[ATNO][  9].a[ 50] =        49.989095000000;     BAS[ATNO][  9].d[ 50] =         0.057319702251;
  BAS[ATNO][  9].a[ 51] =        20.509295000000;     BAS[ATNO][  9].d[ 51] =         0.090596502530;
  BAS[ATNO][  9].a[ 52] =         8.580464100000;     BAS[ATNO][  9].d[ 52] =         0.293034994612;
  BAS[ATNO][  9].a[ 53] =         3.630104900000;     BAS[ATNO][  9].d[ 53] =        -0.415952637041;
  BAS[ATNO][  9].a[ 54] =         1.546528000000;     BAS[ATNO][  9].d[ 54] =        -0.627090868167;
  BAS[ATNO][  9].a[ 55] =         0.661936900000;     BAS[ATNO][  9].d[ 55] =         1.680458262990;
  BAS[ATNO][  9].a[ 56] =         0.284242800000;     BAS[ATNO][  9].d[ 56] =        -1.658820959651;
  BAS[ATNO][  9].a[ 57] =         0.122346300000;     BAS[ATNO][  9].d[ 57] =         0.682832612857;
  BAS[ATNO][  9].a[ 58] =         0.048938500000;     BAS[ATNO][  9].d[ 58] =         0.110930827553;

  // Basis function  11 L = p
  InitBFNGauss(BAS[ATNO][ 10]);
  BAS[ATNO][ 10].l  = 1;
  BAS[ATNO][ 10].ng = 59;
  BAS[ATNO][ 10].a[  0] =      1462.496200000000;     BAS[ATNO][ 10].d[  0] =        -0.000011441288;
  BAS[ATNO][ 10].a[  1] =       354.067310000000;     BAS[ATNO][ 10].d[  1] =        -0.000073831452;
  BAS[ATNO][ 10].a[  2] =       126.697790000000;     BAS[ATNO][ 10].d[  2] =        -0.000306405342;
  BAS[ATNO][ 10].a[  3] =        49.989095000000;     BAS[ATNO][ 10].d[  3] =        -0.001106078773;
  BAS[ATNO][ 10].a[  4] =        20.509295000000;     BAS[ATNO][ 10].d[  4] =        -0.002901580092;
  BAS[ATNO][ 10].a[  5] =         8.580464100000;     BAS[ATNO][ 10].d[  5] =        -0.004952060617;
  BAS[ATNO][ 10].a[  6] =         3.630104900000;     BAS[ATNO][ 10].d[  6] =        -0.004093554707;
  BAS[ATNO][ 10].a[  7] =         1.546528000000;     BAS[ATNO][ 10].d[  7] =        -0.000867417431;
  BAS[ATNO][ 10].a[  8] =         0.661936900000;     BAS[ATNO][ 10].d[  8] =        -0.000041800152;
  BAS[ATNO][ 10].a[  9] =         0.284242800000;     BAS[ATNO][ 10].d[  9] =        -0.000003453953;
  BAS[ATNO][ 10].a[ 10] =         0.122346300000;     BAS[ATNO][ 10].d[ 10] =        -0.000005662890;
  BAS[ATNO][ 10].a[ 11] =      1462.496200000000;     BAS[ATNO][ 10].d[ 11] =        -0.000025642624;
  BAS[ATNO][ 10].a[ 12] =       354.067310000000;     BAS[ATNO][ 10].d[ 12] =        -0.000166156051;
  BAS[ATNO][ 10].a[ 13] =       126.697790000000;     BAS[ATNO][ 10].d[ 13] =        -0.000695373583;
  BAS[ATNO][ 10].a[ 14] =        49.989095000000;     BAS[ATNO][ 10].d[ 14] =        -0.002564109786;
  BAS[ATNO][ 10].a[ 15] =        20.509295000000;     BAS[ATNO][ 10].d[ 15] =        -0.006948616052;
  BAS[ATNO][ 10].a[ 16] =         8.580464100000;     BAS[ATNO][ 10].d[ 16] =        -0.012461462884;
  BAS[ATNO][ 10].a[ 17] =         3.630104900000;     BAS[ATNO][ 10].d[ 17] =        -0.010300623873;
  BAS[ATNO][ 10].a[ 18] =         1.546528000000;     BAS[ATNO][ 10].d[ 18] =         0.015125386504;
  BAS[ATNO][ 10].a[ 19] =         0.661936900000;     BAS[ATNO][ 10].d[ 19] =         0.041750968714;
  BAS[ATNO][ 10].a[ 20] =         0.284242800000;     BAS[ATNO][ 10].d[ 20] =         0.038298536743;
  BAS[ATNO][ 10].a[ 21] =         0.122346300000;     BAS[ATNO][ 10].d[ 21] =         0.013699342353;
  BAS[ATNO][ 10].a[ 22] =         0.048938500000;     BAS[ATNO][ 10].d[ 22] =         0.000631720110;
  BAS[ATNO][ 10].a[ 23] =      1462.496200000000;     BAS[ATNO][ 10].d[ 23] =         0.000117170597;
  BAS[ATNO][ 10].a[ 24] =       354.067310000000;     BAS[ATNO][ 10].d[ 24] =         0.000712692866;
  BAS[ATNO][ 10].a[ 25] =       126.697790000000;     BAS[ATNO][ 10].d[ 25] =         0.003243822382;
  BAS[ATNO][ 10].a[ 26] =        49.989095000000;     BAS[ATNO][ 10].d[ 26] =         0.011038113249;
  BAS[ATNO][ 10].a[ 27] =        20.509295000000;     BAS[ATNO][ 10].d[ 27] =         0.033499860015;
  BAS[ATNO][ 10].a[ 28] =         8.580464100000;     BAS[ATNO][ 10].d[ 28] =         0.050091541574;
  BAS[ATNO][ 10].a[ 29] =         3.630104900000;     BAS[ATNO][ 10].d[ 29] =         0.061126324564;
  BAS[ATNO][ 10].a[ 30] =         1.546528000000;     BAS[ATNO][ 10].d[ 30] =        -0.156775013928;
  BAS[ATNO][ 10].a[ 31] =         0.661936900000;     BAS[ATNO][ 10].d[ 31] =        -0.256209536658;
  BAS[ATNO][ 10].a[ 32] =         0.284242800000;     BAS[ATNO][ 10].d[ 32] =         0.177759111215;
  BAS[ATNO][ 10].a[ 33] =         0.122346300000;     BAS[ATNO][ 10].d[ 33] =         0.210583966551;
  BAS[ATNO][ 10].a[ 34] =         0.048938500000;     BAS[ATNO][ 10].d[ 34] =         0.021674470779;
  BAS[ATNO][ 10].a[ 35] =      1462.496200000000;     BAS[ATNO][ 10].d[ 35] =        -0.000347038019;
  BAS[ATNO][ 10].a[ 36] =       354.067310000000;     BAS[ATNO][ 10].d[ 36] =        -0.002032280019;
  BAS[ATNO][ 10].a[ 37] =       126.697790000000;     BAS[ATNO][ 10].d[ 37] =        -0.009831488325;
  BAS[ATNO][ 10].a[ 38] =        49.989095000000;     BAS[ATNO][ 10].d[ 38] =        -0.031960243603;
  BAS[ATNO][ 10].a[ 39] =        20.509295000000;     BAS[ATNO][ 10].d[ 39] =        -0.107731574987;
  BAS[ATNO][ 10].a[ 40] =         8.580464100000;     BAS[ATNO][ 10].d[ 40] =        -0.127119978788;
  BAS[ATNO][ 10].a[ 41] =         3.630104900000;     BAS[ATNO][ 10].d[ 41] =        -0.173143213644;
  BAS[ATNO][ 10].a[ 42] =         1.546528000000;     BAS[ATNO][ 10].d[ 42] =         1.022380073044;
  BAS[ATNO][ 10].a[ 43] =         0.661936900000;     BAS[ATNO][ 10].d[ 43] =        -0.497497844400;
  BAS[ATNO][ 10].a[ 44] =         0.284242800000;     BAS[ATNO][ 10].d[ 44] =        -0.761807392122;
  BAS[ATNO][ 10].a[ 45] =         0.122346300000;     BAS[ATNO][ 10].d[ 45] =         0.754326767939;
  BAS[ATNO][ 10].a[ 46] =         0.048938500000;     BAS[ATNO][ 10].d[ 46] =         0.080594014647;
  BAS[ATNO][ 10].a[ 47] =      1462.496200000000;     BAS[ATNO][ 10].d[ 47] =         0.000353986581;
  BAS[ATNO][ 10].a[ 48] =       354.067310000000;     BAS[ATNO][ 10].d[ 48] =         0.003688517653;
  BAS[ATNO][ 10].a[ 49] =       126.697790000000;     BAS[ATNO][ 10].d[ 49] =         0.008628638762;
  BAS[ATNO][ 10].a[ 50] =        49.989095000000;     BAS[ATNO][ 10].d[ 50] =         0.062215825633;
  BAS[ATNO][ 10].a[ 51] =        20.509295000000;     BAS[ATNO][ 10].d[ 51] =         0.098335057284;
  BAS[ATNO][ 10].a[ 52] =         8.580464100000;     BAS[ATNO][ 10].d[ 52] =         0.318065401828;
  BAS[ATNO][ 10].a[ 53] =         3.630104900000;     BAS[ATNO][ 10].d[ 53] =        -0.451482399967;
  BAS[ATNO][ 10].a[ 54] =         1.546528000000;     BAS[ATNO][ 10].d[ 54] =        -0.680655596204;
  BAS[ATNO][ 10].a[ 55] =         0.661936900000;     BAS[ATNO][ 10].d[ 55] =         1.823999326022;
  BAS[ATNO][ 10].a[ 56] =         0.284242800000;     BAS[ATNO][ 10].d[ 56] =        -1.800513811638;
  BAS[ATNO][ 10].a[ 57] =         0.122346300000;     BAS[ATNO][ 10].d[ 57] =         0.741158678598;
  BAS[ATNO][ 10].a[ 58] =         0.048938500000;     BAS[ATNO][ 10].d[ 58] =         0.120406295800;

  // Basis function  12 L = d
  InitBFNGauss(BAS[ATNO][ 11]);
  BAS[ATNO][ 11].l  = 2;
  BAS[ATNO][ 11].ng = 15;
  BAS[ATNO][ 11].a[  0] =         4.328841700000;     BAS[ATNO][ 11].d[  0] =        -0.021680511045;
  BAS[ATNO][ 11].a[  1] =         1.774230200000;     BAS[ATNO][ 11].d[  1] =        -0.150636781054;
  BAS[ATNO][ 11].a[  2] =         0.727190600000;     BAS[ATNO][ 11].d[  2] =        -0.468248010402;
  BAS[ATNO][ 11].a[  3] =         0.298048200000;     BAS[ATNO][ 11].d[  3] =        -0.237207429382;
  BAS[ATNO][ 11].a[  4] =         0.119219300000;     BAS[ATNO][ 11].d[  4] =        -0.022391456573;
  BAS[ATNO][ 11].a[  5] =         4.328841700000;     BAS[ATNO][ 11].d[  5] =         0.071905270923;
  BAS[ATNO][ 11].a[  6] =         1.774230200000;     BAS[ATNO][ 11].d[  6] =        -0.399162359387;
  BAS[ATNO][ 11].a[  7] =         0.727190600000;     BAS[ATNO][ 11].d[  7] =        -0.176577480512;
  BAS[ATNO][ 11].a[  8] =         0.298048200000;     BAS[ATNO][ 11].d[  8] =         0.519684258438;
  BAS[ATNO][ 11].a[  9] =         0.119219300000;     BAS[ATNO][ 11].d[  9] =         0.037336248785;
  BAS[ATNO][ 11].a[ 10] =         4.328841700000;     BAS[ATNO][ 11].d[ 10] =         0.051318920980;
  BAS[ATNO][ 11].a[ 11] =         1.774230200000;     BAS[ATNO][ 11].d[ 11] =        -0.478313224898;
  BAS[ATNO][ 11].a[ 12] =         0.727190600000;     BAS[ATNO][ 11].d[ 12] =         0.580888960557;
  BAS[ATNO][ 11].a[ 13] =         0.298048200000;     BAS[ATNO][ 11].d[ 13] =        -0.226021238947;
  BAS[ATNO][ 11].a[ 14] =         0.119219300000;     BAS[ATNO][ 11].d[ 14] =        -0.116397972296;

  // Basis function  13 L = d
  InitBFNGauss(BAS[ATNO][ 12]);
  BAS[ATNO][ 12].l  = 2;
  BAS[ATNO][ 12].ng = 15;
  BAS[ATNO][ 12].a[  0] =         4.328841700000;     BAS[ATNO][ 12].d[  0] =         0.017361010922;
  BAS[ATNO][ 12].a[  1] =         1.774230200000;     BAS[ATNO][ 12].d[  1] =         0.120624776587;
  BAS[ATNO][ 12].a[  2] =         0.727190600000;     BAS[ATNO][ 12].d[  2] =         0.374956974298;
  BAS[ATNO][ 12].a[  3] =         0.298048200000;     BAS[ATNO][ 12].d[  3] =         0.189947587659;
  BAS[ATNO][ 12].a[  4] =         0.119219300000;     BAS[ATNO][ 12].d[  4] =         0.017930311758;
  BAS[ATNO][ 12].a[  5] =         4.328841700000;     BAS[ATNO][ 12].d[  5] =         0.078566760399;
  BAS[ATNO][ 12].a[  6] =         1.774230200000;     BAS[ATNO][ 12].d[  6] =        -0.436141788319;
  BAS[ATNO][ 12].a[  7] =         0.727190600000;     BAS[ATNO][ 12].d[  7] =        -0.192936073044;
  BAS[ATNO][ 12].a[  8] =         0.298048200000;     BAS[ATNO][ 12].d[  8] =         0.567829146477;
  BAS[ATNO][ 12].a[  9] =         0.119219300000;     BAS[ATNO][ 12].d[  9] =         0.040795175025;
  BAS[ATNO][ 12].a[ 10] =         4.328841700000;     BAS[ATNO][ 12].d[ 10] =         0.082714705350;
  BAS[ATNO][ 12].a[ 11] =         1.774230200000;     BAS[ATNO][ 12].d[ 11] =        -0.770934709991;
  BAS[ATNO][ 12].a[ 12] =         0.727190600000;     BAS[ATNO][ 12].d[ 12] =         0.936264019126;
  BAS[ATNO][ 12].a[ 13] =         0.298048200000;     BAS[ATNO][ 12].d[ 13] =        -0.364296049595;
  BAS[ATNO][ 12].a[ 14] =         0.119219300000;     BAS[ATNO][ 12].d[ 14] =        -0.187607685393;

  // Basis function  14 L = d
  InitBFNGauss(BAS[ATNO][ 13]);
  BAS[ATNO][ 13].l  = 2;
  BAS[ATNO][ 13].ng = 15;
  BAS[ATNO][ 13].a[  0] =         4.328841700000;     BAS[ATNO][ 13].d[  0] =        -0.002487478412;
  BAS[ATNO][ 13].a[  1] =         1.774230200000;     BAS[ATNO][ 13].d[  1] =        -0.017283067738;
  BAS[ATNO][ 13].a[  2] =         0.727190600000;     BAS[ATNO][ 13].d[  2] =        -0.053723679073;
  BAS[ATNO][ 13].a[  3] =         0.298048200000;     BAS[ATNO][ 13].d[  3] =        -0.027215611229;
  BAS[ATNO][ 13].a[  4] =         0.119219300000;     BAS[ATNO][ 13].d[  4] =        -0.002569047599;
  BAS[ATNO][ 13].a[  5] =         4.328841700000;     BAS[ATNO][ 13].d[  5] =        -0.078370388575;
  BAS[ATNO][ 13].a[  6] =         1.774230200000;     BAS[ATNO][ 13].d[  6] =         0.435051684080;
  BAS[ATNO][ 13].a[  7] =         0.727190600000;     BAS[ATNO][ 13].d[  7] =         0.192453843557;
  BAS[ATNO][ 13].a[  8] =         0.298048200000;     BAS[ATNO][ 13].d[  8] =        -0.566409899397;
  BAS[ATNO][ 13].a[  9] =         0.119219300000;     BAS[ATNO][ 13].d[  9] =        -0.040693210493;
  BAS[ATNO][ 13].a[ 10] =         4.328841700000;     BAS[ATNO][ 13].d[ 10] =         0.130007360299;
  BAS[ATNO][ 13].a[ 11] =         1.774230200000;     BAS[ATNO][ 13].d[ 11] =        -1.211721497222;
  BAS[ATNO][ 13].a[ 12] =         0.727190600000;     BAS[ATNO][ 13].d[ 12] =         1.471578882553;
  BAS[ATNO][ 13].a[ 13] =         0.298048200000;     BAS[ATNO][ 13].d[ 13] =        -0.572584615697;
  BAS[ATNO][ 13].a[ 14] =         0.119219300000;     BAS[ATNO][ 13].d[ 14] =        -0.294873563854;

  // Basis function  15 L = f
  InitBFNGauss(BAS[ATNO][ 14]);
  BAS[ATNO][ 14].l  = 3;
  BAS[ATNO][ 14].ng = 8;
  BAS[ATNO][ 14].a[  0] =         1.631174000000;     BAS[ATNO][ 14].d[  0] =         0.223492905038;
  BAS[ATNO][ 14].a[  1] =         0.820328800000;     BAS[ATNO][ 14].d[  1] =         0.528893961709;
  BAS[ATNO][ 14].a[  2] =         0.412549100000;     BAS[ATNO][ 14].d[  2] =         0.240617348609;
  BAS[ATNO][ 14].a[  3] =         0.165019600000;     BAS[ATNO][ 14].d[  3] =         0.035457038516;
  BAS[ATNO][ 14].a[  4] =         1.631174000000;     BAS[ATNO][ 14].d[  4] =         0.355643457262;
  BAS[ATNO][ 14].a[  5] =         0.820328800000;     BAS[ATNO][ 14].d[  5] =         0.016561913605;
  BAS[ATNO][ 14].a[  6] =         0.412549100000;     BAS[ATNO][ 14].d[  6] =        -0.341254611315;
  BAS[ATNO][ 14].a[  7] =         0.165019600000;     BAS[ATNO][ 14].d[  7] =        -0.042819892617;

  // Basis function  16 L = f
  InitBFNGauss(BAS[ATNO][ 15]);
  BAS[ATNO][ 15].l  = 3;
  BAS[ATNO][ 15].ng = 8;
  BAS[ATNO][ 15].a[  0] =         1.631174000000;     BAS[ATNO][ 15].d[  0] =        -0.101375415318;
  BAS[ATNO][ 15].a[  1] =         0.820328800000;     BAS[ATNO][ 15].d[  1] =        -0.239904014037;
  BAS[ATNO][ 15].a[  2] =         0.412549100000;     BAS[ATNO][ 15].d[  2] =        -0.109142988874;
  BAS[ATNO][ 15].a[  3] =         0.165019600000;     BAS[ATNO][ 15].d[  3] =        -0.016083159351;
  BAS[ATNO][ 15].a[  4] =         1.631174000000;     BAS[ATNO][ 15].d[  4] =         0.784053896001;
  BAS[ATNO][ 15].a[  5] =         0.820328800000;     BAS[ATNO][ 15].d[  5] =         0.036512503244;
  BAS[ATNO][ 15].a[  6] =         0.412549100000;     BAS[ATNO][ 15].d[  6] =        -0.752332151954;
  BAS[ATNO][ 15].a[  7] =         0.165019600000;     BAS[ATNO][ 15].d[  7] =        -0.094401015813;

-------
TIMINGS
-------

Total SCF time: 0 days 0 hours 0 min 14 sec 

Total time                  ....      14.628 sec
Sum of individual times     ....      14.338 sec  ( 98.0%)

Fock matrix formation       ....      13.873 sec  ( 94.8%)
  XC integration            ....       0.027 sec  (  0.2% of F)
    Basis function eval.    ....       0.012 sec  ( 43.4% of XC)
    Density eval.           ....       0.001 sec  (  4.6% of XC)
    XC-Functional eval.     ....       0.001 sec  (  5.3% of XC)
    XC-Potential eval.      ....       0.002 sec  (  7.1% of XC)
Diagonalization             ....       0.001 sec  (  0.0%)
Density matrix formation    ....       0.000 sec  (  0.0%)
Population analysis         ....       0.001 sec  (  0.0%)
Initial guess               ....       0.089 sec  (  0.6%)
Orbital Transformation      ....       0.000 sec  (  0.0%)
Orbital Orthonormalization  ....       0.000 sec  (  0.0%)
DIIS solution               ....       0.000 sec  (  0.0%)
SOSCF solution              ....       0.001 sec  (  0.0%)
Grid generation             ....       0.375 sec  (  2.6%)

-------------------------   --------------------
FINAL SINGLE POINT ENERGY      -311.810114994681
-------------------------   --------------------


                            ***************************************
                            *     ORCA property calculations      *
                            ***************************************

                                    ---------------------
                                    Active property flags
                                    ---------------------
   (+) Dipole Moment


------------------------------------------------------------------------------
                       ORCA ELECTRIC PROPERTIES CALCULATION
------------------------------------------------------------------------------

Dipole Moment Calculation                       ... on
Quadrupole Moment Calculation                   ... off
Polarizability Calculation                      ... off
GBWName                                         ... Ar_ano-rcc-qzp_274.071978_.gbw
Electron density file                           ... Ar_ano-rcc-qzp_274.071978_.scfp
The origin for moment calculation is the CENTER OF MASS  = ( 0.000000,  0.000000  0.000000)

-------------
DIPOLE MOMENT
-------------
                                X             Y             Z
Electronic contribution:      0.00000      -0.00000       0.00000
Nuclear contribution   :      0.00000       0.00000       0.00000
                        -----------------------------------------
Total Dipole Moment    :      0.00000      -0.00000       0.00000
                        -----------------------------------------
Magnitude (a.u.)       :      0.00000
Magnitude (Debye)      :      0.00000



--------------------
Rotational spectrum 
--------------------
 
Rotational constants in cm-1:     0.000000     0.000000     0.000000 
Rotational constants in MHz :     0.000000     0.000000     0.000000 

 Dipole components along the rotational axes: 
x,y,z [a.u.] :     0.000000    -0.000000     0.000000 
x,y,z [Debye]:     0.000000    -0.000000     0.000000 

 

Timings for individual modules:

Sum of individual times         ...       15.740 sec (=   0.262 min)
GTO integral calculation        ...        0.431 sec (=   0.007 min)   2.7 %
Relativistic integrals          ...        0.404 sec (=   0.007 min)   2.6 %
SCF iterations                  ...       14.905 sec (=   0.248 min)  94.7 %
                             ****ORCA TERMINATED NORMALLY****
TOTAL RUN TIME: 0 days 0 hours 0 minutes 16 seconds 107 msec
