
                                 *****************
                                 * O   R   C   A *
                                 *****************

           --- An Ab Initio, DFT and Semiempirical electronic structure package ---

                  #######################################################
                  #                        -***-                        #
                  #          Department of theory and spectroscopy      #
                  #               Directorship: Frank Neese             #
                  #        Max Planck Institute fuer Kohlenforschung    #
                  #                Kaiser Wilhelm Platz 1               #
                  #                 D-45470 Muelheim/Ruhr               #
                  #                      Germany                        #
                  #                                                     #
                  #                  All rights reserved                #
                  #                        -***-                        #
                  #######################################################


                         Program Version 4.2.1 -  RELEASE  -


 With contributions from (in alphabetic order):
   Daniel Aravena         : Magnetic Suceptibility
   Michael Atanasov       : Ab Initio Ligand Field Theory (pilot matlab implementation)
   Alexander A. Auer      : GIAO ZORA, VPT2
   Ute Becker             : Parallelization
   Giovanni Bistoni       : ED, misc. LED, open-shell LED, HFLD
   Martin Brehm           : Molecular dynamics
   Dmytro Bykov           : SCF Hessian
   Vijay G. Chilkuri      : MRCI spin determinant printing, contributions to CSF-ICE
   Dipayan Datta          : RHF DLPNO-CCSD density
   Achintya Kumar Dutta   : EOM-CC, STEOM-CC
   Dmitry Ganyushin       : Spin-Orbit,Spin-Spin,Magnetic field MRCI
   Miquel Garcia          : C-PCM Hessian, Gaussian charge scheme
   Yang Guo               : DLPNO-NEVPT2, CIM, IAO-localization
   Andreas Hansen         : Spin unrestricted coupled pair/coupled cluster methods
   Benjamin Helmich-Paris : CASSCF linear response (MC-RPA)
   Lee Huntington         : MR-EOM, pCC
   Robert Izsak           : Overlap fitted RIJCOSX, COSX-SCS-MP3, EOM
   Christian Kollmar      : KDIIS, OOCD, Brueckner-CCSD(T), CCSD density
   Simone Kossmann        : Meta GGA functionals, TD-DFT gradient, OOMP2, MP2 Hessian
   Martin Krupicka        : AUTO-CI
   Lucas Lang             : DCDCAS
   Dagmar Lenk            : GEPOL surface, SMD
   Dimitrios Liakos       : Extrapolation schemes; Compound Job, initial MDCI parallelization
   Dimitrios Manganas     : Further ROCIS development; embedding schemes
   Dimitrios Pantazis     : SARC Basis sets
   Taras Petrenko         : DFT Hessian,TD-DFT gradient, ASA, ECA, R-Raman, ABS, FL, XAS/XES, NRVS
   Peter Pinski           : DLPNO-MP2, DLPNO-MP2 Gradient
   Christoph Reimann      : Effective Core Potentials
   Marius Retegan         : Local ZFS, SOC
   Christoph Riplinger    : Optimizer, TS searches, QM/MM, DLPNO-CCSD(T), (RO)-DLPNO pert. Triples
   Tobias Risthaus        : Range-separated hybrids, TD-DFT gradient, RPA, STAB
   Michael Roemelt        : Original ROCIS implementation
   Masaaki Saitow         : Open-shell DLPNO-CCSD energy and density
   Barbara Sandhoefer     : DKH picture change effects
   Avijit Sen             : IP-ROCIS
   Kantharuban Sivalingam : CASSCF convergence, NEVPT2, FIC-MRCI
   Bernardo de Souza      : ESD, SOC TD-DFT
   Georgi Stoychev        : AutoAux, RI-MP2 NMR
   Willem Van den Heuvel  : Paramagnetic NMR
   Boris Wezisla          : Elementary symmetry handling
   Frank Wennmohs         : Technical directorship


 We gratefully acknowledge several colleagues who have allowed us to
 interface, adapt or use parts of their codes:
   Stefan Grimme, W. Hujo, H. Kruse,             : VdW corrections, initial TS optimization,
                  C. Bannwarth                     DFT functionals, gCP, sTDA/sTD-DF
   Ed Valeev, F. Pavosevic, A. Kumar             : LibInt (2-el integral package), F12 methods
   Garnet Chan, S. Sharma, J. Yang, R. Olivares  : DMRG
   Ulf Ekstrom                                   : XCFun DFT Library
   Mihaly Kallay                                 : mrcc  (arbitrary order and MRCC methods)
   Andreas Klamt, Michael Diedenhofen            : otool_cosmo (COSMO solvation model)
   Jiri Pittner, Ondrej Demel                    : Mk-CCSD
   Frank Weinhold                                : gennbo (NPA and NBO analysis)
   Christopher J. Cramer and Donald G. Truhlar   : smd solvation model
   Lars Goerigk                                  : TD-DFT with DH, B97 family of functionals
   V. Asgeirsson, H. Jonsson                     : NEB implementation
   FAccTs GmbH                                   : IRC, NEB, NEB-TS, Multilevel, MM, QM/MM, CI optimization
   S Lehtola, MJT Oliveira, MAL Marques          : LibXC Library


 Your calculation uses the libint2 library for the computation of 2-el integrals
 For citations please refer to: http://libint.valeyev.net

 Your ORCA version has been built with support for libXC version: 4.2.3
 For citations please refer to: https://tddft.org/programs/libxc/

 This ORCA versions uses:
   CBLAS   interface :  Fast vector & matrix operations
   LAPACKE interface :  Fast linear algebra routines
   SCALAPACK package :  Parallel linear algebra routines


----- Orbital basis set information -----
Your calculation utilizes the basis: cc-pCVQZ 
             H : cc-pVQZ. Obtained from the ccRepo (grant-hill.group.shef.ac.uk/ccrepo) Feb. 2017
                 T. H. Dunning, Jr., J. Chem. Phys. 90, 1007 (1989)
            He : cc-pVQZ. Obtained from the ccRepo (grant-hill.group.shef.ac.uk/ccrepo) Feb. 2017
                 D. E. Woon, T. H. Dunning, Jr., J. Chem. Phys. 100, 2975 (1994)
  Li-Be, Na-Mg : Obtained from the ccRepo (grant-hill.group.shef.ac.uk/ccrepo) Feb. 2017
                 B. P. Prascher, D. E. Woon, K. A. Peterson, T. H. Dunning, Jr., A. K. Wilson, Theor. Chem. Acc. 128, 69 (2011)
          B-Ne : Obtained from the ccRepo (grant-hill.group.shef.ac.uk/ccrepo) Feb. 2017
                 D. E. Woon, T. H. Dunning, Jr., J. Chem. Phys. 103, 4572 (1995)
                  K. A. Peterson, T. H. Dunning, Jr., J. Chem. Phys. 117, 10548 (2002)
         Al-Ar : Obtained from the EMSL Basis Set Exchange (bse.pnl.gov) Feb. 2017
                 K. A. Peterson, T. H. Dunning, Jr., J. Chem. Phys. 117, 10548 (2002)
            Ca : Obtained from the Peterson Research Group Website (tyr0.chem.wsu.edu/~kipeters) Feb. 2017
                 J. Koput, K. A. Peterson, J. Phys. Chem. A 106, 9595 (2002)
         Ga-Kr : Obtained from the Peterson Research Group Website (tyr0.chem.wsu.edu/~kipeters) Feb. 2017
                 N. J. DeYonker, K. A. Peterson, A. K. Wilson, J. Phys. Chem. A 111, 11383 (2007)

================================================================================
                                        WARNINGS
                       Please study these warnings very carefully!
================================================================================


INFO   : the flag for use of LIBINT has been found!

================================================================================
                                       INPUT FILE
================================================================================
NAME = Ar_cc-pcvqz_4385.151648_.inp
|  1> ! LDA cc-pcvqz nori grid5 finalgrid6 verytightscf
|  2> %Pal NProcs 18 End
|  3> 
|  4> % REL
|  5>   Method ZORA
|  6>   ModelPot 1, 0, 0, 0
|  7>   velit 4385.151648
|  8> END
|  9> 
| 10> *xyz 16 1
| 11> Ar 0.0 0.0 0.0
| 12> **                         ****END OF INPUT****
================================================================================

                       ****************************
                       * Single Point Calculation *
                       ****************************

---------------------------------
CARTESIAN COORDINATES (ANGSTROEM)
---------------------------------
  Ar     0.000000    0.000000    0.000000

----------------------------
CARTESIAN COORDINATES (A.U.)
----------------------------
  NO LB      ZA    FRAG     MASS         X           Y           Z
   0 Ar   18.0000    0    39.948    0.000000    0.000000    0.000000

--------------------------------
INTERNAL COORDINATES (ANGSTROEM)
--------------------------------
 Ar     0   0   0     0.000000000000     0.00000000     0.00000000

---------------------------
INTERNAL COORDINATES (A.U.)
---------------------------
 Ar     0   0   0     0.000000000000     0.00000000     0.00000000

---------------------
BASIS SET INFORMATION
---------------------
There are 1 groups of distinct atoms

 Group   1 Type Ar  : 45s22p6d4f2g contracted to 9s8p6d4f2g pattern {131313111111/88111111/111111/1111/11}

Atom   0Ar   basis set group =>   1


           ************************************************************
           *        Program running with 18 parallel MPI-processes    *
           *              working on a common directory               *
           ************************************************************
------------------------------------------------------------------------------
                           ORCA GTO INTEGRAL CALCULATION
------------------------------------------------------------------------------

                         BASIS SET STATISTICS AND STARTUP INFO

 # of primitive gaussian shells          ...   79
 # of primitive gaussian functions       ...  187
 # of contracted shells                  ...   29
 # of contracted basis functions         ...  109
 Highest angular momentum                ...    4
 Maximum contraction depth               ...   13
 Integral package used                   ... LIBINT
 Integral threshhold            Thresh   ...  1.000e-12
 Primitive cut-off              TCut     ...  1.000e-14


------------------------------ INTEGRAL EVALUATION ----------------------------


 * One electron integrals 
 Pre-screening matrix                    ... done
 Shell pair data                         ... done (   0.000 sec)



           ************************************************************
           *        Program running with 18 parallel MPI-processes    *
           *              working on a common directory               *
           ************************************************************
------------------------------------------------------------------------------
                          ORCA RELATIVISTIC HAMILTONIAN
------------------------------------------------------------------------------

Relativistic Method            ... ZORA(MP)
Treatment of potential         ... Van Wuellen
Nucleus model                  ... Point Nucleus
Speed of light used            ... 4385.15164800000002


            *************************************************
            *         ZERO ORDER REGULAR APPROXIMATION      *
            *                     ZORA(MP)                  *
            *            Programmed by FN according to      *
            *                   C. van Wuellen              *
            *       J. Chem. Phys. (1998) vol 109, 392-399  *
            *************************************************

Terms included in model potential: +V(e,N)
Basis function cutoff value   ... 1.000000e-12
Loading the fitted atomic densities  (DKH4)  ... done
Calculating the cutoffs                      ... done
Number of fit functions                      ... 15
Setting up the integration grid ... done


           ************************************************************
           *        Program running with 18 parallel MPI-processes    *
           *              working on a common directory               *
           ************************************************************
-------------------------------------------------------------------------------
                                 ORCA SCF
-------------------------------------------------------------------------------

------------
SCF SETTINGS
------------
Hamiltonian:
 Density Functional     Method          .... DFT(GTOs)
 Exchange Functional    Exchange        .... Slater
   X-Alpha parameter    XAlpha          ....  0.666667
 Correlation Functional Correlation     .... VWN-5
 Gradients option       PostSCFGGA      .... off
   Density functional embedding theory  .... OFF

Relativistic Settings:
 Scalar relativistic method             .... ZORA
 Speed of light used       Velit        ....       4385.15165
Orbital energies will be scaled


General Settings:
 Integral files         IntName         .... Ar_cc-pcvqz_4385.151648_
 Hartree-Fock type      HFTyp           .... RHF
 Total Charge           Charge          ....   16
 Multiplicity           Mult            ....    1
 Number of Electrons    NEL             ....    2
 Basis Dimension        Dim             ....  109
 Nuclear Repulsion      ENuc            ....      0.0000000000 Eh

Convergence Acceleration:
 DIIS                   CNVDIIS         .... on
   Start iteration      DIISMaxIt       ....    12
   Startup error        DIISStart       ....  0.200000
   # of expansion vecs  DIISMaxEq       ....     5
   Bias factor          DIISBfac        ....   1.050
   Max. coefficient     DIISMaxC        ....  10.000
 Newton-Raphson         CNVNR           .... off
 SOSCF                  CNVSOSCF        .... on
   Start iteration      SOSCFMaxIt      ....   150
   Startup grad/error   SOSCFStart      ....  0.003300
 Level Shifting         CNVShift        .... on
   Level shift para.    LevelShift      ....    0.2500
   Turn off err/grad.   ShiftErr        ....    0.0010
 Zerner damping         CNVZerner       .... off
 Static damping         CNVDamp         .... on
   Fraction old density DampFac         ....    0.7000
   Max. Damping (<1)    DampMax         ....    0.9800
   Min. Damping (>=0)   DampMin         ....    0.0000
   Turn off err/grad.   DampErr         ....    0.1000
 Fernandez-Rico         CNVRico         .... off

SCF Procedure:
 Maximum # iterations   MaxIter         ....   125
 SCF integral mode      SCFMode         .... Direct
   Integral package                     .... LIBINT
 Reset frequency        DirectResetFreq ....    20
 Integral Threshold     Thresh          ....  1.000e-12 Eh
 Primitive CutOff       TCut            ....  1.000e-14 Eh

Convergence Tolerance:
 Convergence Check Mode ConvCheckMode   .... Total+1el-Energy
 Convergence forced     ConvForced      .... 0
 Energy Change          TolE            ....  1.000e-09 Eh
 1-El. energy change                    ....  1.000e-06 Eh
 Orbital Gradient       TolG            ....  2.000e-06
 Orbital Rotation angle TolX            ....  2.000e-06
 DIIS Error             TolErr          ....  1.000e-08


Diagonalization of the overlap matrix:
Smallest eigenvalue                        ... 2.338e-05
Time for diagonalization                   ...    0.002 sec
Threshold for overlap eigenvalues          ... 1.000e-08
Number of eigenvalues below threshold      ... 0
Time for construction of square roots      ...    0.002 sec
Total time needed                          ...    0.004 sec

-------------------
DFT GRID GENERATION
-------------------

General Integration Accuracy     IntAcc      ...  5.010
Radial Grid Type                 RadialGrid  ... Gauss-Chebyshev
Angular Grid (max. acc.)         AngularGrid ... Lebedev-434
Angular grid pruning method      GridPruning ... 3 (G Style)
Weight generation scheme         WeightScheme... Becke
Basis function cutoff            BFCut       ...    1.0000e-12
Integration weight cutoff        WCut        ...    1.0000e-14
Grids for H and He will be reduced by one unit

# of grid points (after initial pruning)     ...  11992 (   0.0 sec)
# of grid points (after weights+screening)   ...  11992 (   0.0 sec)
Grid point division into batches done        ...    0.1 sec
Reduced shell lists constructed in    0.1 sec

Total number of grid points                  ...    11992
Total number of batches                      ...      188
Average number of points per batch           ...       63
Average number of grid points per atom       ...    11992
Average number of shells per batch           ...     0.00 ( 0.00%)
Average number of basis functions per batch  ...     0.00 ( 0.00%)
Average number of large shells per batch     ...     0.00 ( -nan%)
Average number of large basis fcns per batch ...     0.00 ( -nan%)
Maximum spatial batch extension              ...  18.71, 18.71, 18.71 au
Average spatial batch extension              ...   0.97,  0.98,  0.97 au

Time for grid setup =    0.150 sec

------------------------------
INITIAL GUESS: MODEL POTENTIAL
------------------------------
Loading ZORA relativistic densities                ... done
Calculating cut-offs                               ... done
Setting up the integral package                    ... done
Initializing the effective Hamiltonian             ... done
Starting the Coulomb interaction                   ... done (   0.0 sec)
Reading the grid                                   ... done
Mapping shells                                     ... done
Starting the XC term evaluation                    ... done (   0.0 sec)
  promolecular density results
     # of electrons  =     18.000000116
     EX              =    -28.047870263
     EC              =     -1.433252902
     EX+EC           =    -29.481123164
Transforming the Hamiltonian                       ... done (   0.0 sec)
Diagonalizing the Hamiltonian                      ... done (   0.0 sec)
Back transforming the eigenvectors                 ... done (   0.0 sec)
Now organizing SCF variables                       ... done
                      ------------------
                      INITIAL GUESS DONE (   0.2 sec)
                      ------------------
--------------
SCF ITERATIONS
--------------
ITER       Energy         Delta-E        Max-DP      RMS-DP      [F,P]     Damp
               ***  Starting incremental Fock matrix formation  ***
  0   -311.5024297493   0.000000000000 0.04398661  0.00053560  2.2055297 0.7000
  1   -311.5132084380  -0.010778688673 0.03134034  0.00038143  1.5306295 0.7000
  2   -311.5206638971  -0.007455459157 0.02225529  0.00027077  1.0613922 0.7000
  3   -311.5258399416  -0.005176044501 0.01579817  0.00019216  0.7360581 0.7000
  4   -311.5294427584  -0.003602816733 0.01121058  0.00013634  0.5104752 0.7000
                      *** Initiating the SOSCF procedure ***
                      *** Re-Reading the Fockian *** 
                      *** Removing any level shift *** 
ITER      Energy       Delta-E        Grad      Rot      Max-DP    RMS-DP
  5   -311.53195499  -0.0025122267  0.002494  0.002494  0.026508  0.000322
               *** Restarting incremental Fock matrix formation ***
  6   -311.53778656  -0.0058315717  0.005748  0.000028  0.000808  0.000011
  7   -311.53778716  -0.0000006036  0.000168  0.000001  0.000024  0.000000
                 **** Energy Check signals convergence ****
              ***Rediagonalizing the Fockian in SOSCF/NRSCF***

               *****************************************************
               *                     SUCCESS                       *
               *           SCF CONVERGED AFTER   8 CYCLES          *
               *****************************************************

Setting up the final grid:

General Integration Accuracy     IntAcc      ...  5.340
Radial Grid Type                 RadialGrid  ... Gauss-Chebyshev
Angular Grid (max. acc.)         AngularGrid ... Lebedev-590
Angular grid pruning method      GridPruning ... 3 (G Style)
Weight generation scheme         WeightScheme... Becke
Basis function cutoff            BFCut       ...    1.0000e-12
Integration weight cutoff        WCut        ...    1.0000e-14
Grids for H and He will be reduced by one unit

# of grid points (after initial pruning)     ...  18110 (   0.0 sec)
# of grid points (after weights+screening)   ...  18110 (   0.0 sec)
Grid point division into batches done        ...    0.2 sec
Reduced shell lists constructed in    0.2 sec

Total number of grid points                  ...    18110
Total number of batches                      ...      283
Average number of points per batch           ...       63
Average number of grid points per atom       ...    18110
Average number of shells per batch           ...     0.00 ( 0.00%)
Average number of basis functions per batch  ...     0.00 ( 0.00%)
Average number of large shells per batch     ...     0.00 ( -nan%)
Average number of large basis fcns per batch ...     0.00 ( -nan%)
Maximum spatial batch extension              ...  19.03, 19.03, 19.03 au
Average spatial batch extension              ...   0.84,  0.84,  0.80 au

Final grid set up in    0.3 sec
Final integration                            ... done (   0.0 sec)
Change in XC energy                          ...     0.000000364
Integrated number of electrons               ...     1.999999988
Previous integrated no of electrons          ...     2.000000041

----------------
TOTAL SCF ENERGY
----------------

Total Energy       :         -311.53778680 Eh           -8477.37416 eV

Components:
Nuclear Repulsion  :            0.00000000 Eh               0.00000 eV
Electronic Energy  :         -311.53778680 Eh           -8477.37416 eV
One Electron Energy:         -323.85489744 Eh           -8812.53978 eV
Two Electron Energy:           12.31711065 Eh             335.16562 eV

Virial components:
Potential Energy   :         -622.89580170 Eh          -16949.85648 eV
Kinetic Energy     :          311.35801490 Eh            8472.48232 eV
Virial Ratio       :            2.00057738


DFT components:
N(Alpha)           :        0.999999994107 electrons
N(Beta)            :        0.999999994107 electrons
N(Total)           :        1.999999988214 electrons
E(X)               :       -9.434425812315 Eh       
E(C)               :       -0.236904669345 Eh       
E(XC)              :       -9.671330481660 Eh       
DFET-embed. en.    :        0.000000000000 Eh       

---------------
SCF CONVERGENCE
---------------

  Last Energy change         ...   -5.1443e-10  Tolerance :   1.0000e-09
  Last MAX-Density change    ...    2.2965e-09  Tolerance :   1.0000e-08
  Last RMS-Density change    ...    3.0454e-11  Tolerance :   1.0000e-09
  Last Orbital Gradient      ...    4.2271e-09  Tolerance :   2.0000e-06
  Last Orbital Rotation      ...    1.8146e-11  Tolerance :   2.0000e-06

================================================================================
                                        WARNING
Number of found core electrons (2) does not match given number of chemical core electrons (10)
================================================================================
             **** THE GBW FILE WAS UPDATED (Ar_cc-pcvqz_4385.151648_.gbw) ****
             **** DENSITY FILE WAS UPDATED (Ar_cc-pcvqz_4385.151648_.scfp) ****
             **** ENERGY FILE WAS UPDATED (Ar_cc-pcvqz_4385.151648_.en.tmp) ****
             **** THE GBW FILE WAS UPDATED (Ar_cc-pcvqz_4385.151648_.gbw) ****
             **** DENSITY FILE WAS UPDATED (Ar_cc-pcvqz_4385.151648_.scfp) ****
----------------
ORBITAL ENERGIES
----------------

  NO   OCC          E(Eh)            E(eV) 
   0   2.0000    -146.356628     -3982.5663 
   1   0.0000     -34.113094      -928.2645 
   2   0.0000     -33.268665      -905.2864 
   3   0.0000     -33.268665      -905.2864 
   4   0.0000     -33.268665      -905.2864 
   5   0.0000     -14.781377      -402.2217 
   6   0.0000     -14.530365      -395.3913 
   7   0.0000     -14.530365      -395.3913 
   8   0.0000     -14.530365      -395.3913 
   9   0.0000     -14.284948      -388.7132 
  10   0.0000     -14.284948      -388.7132 
  11   0.0000     -14.284948      -388.7132 
  12   0.0000     -14.284948      -388.7132 
  13   0.0000     -14.284948      -388.7132 
  14   0.0000      -8.181460      -222.6288 
  15   0.0000      -8.121927      -221.0089 
  16   0.0000      -8.121927      -221.0089 
  17   0.0000      -8.121927      -221.0089 
  18   0.0000      -7.998964      -217.6629 
  19   0.0000      -7.998964      -217.6629 
  20   0.0000      -7.998964      -217.6629 
  21   0.0000      -7.998964      -217.6629 
  22   0.0000      -7.998964      -217.6629 
  23   0.0000      -7.696318      -209.4275 
  24   0.0000      -7.696318      -209.4275 
  25   0.0000      -7.696318      -209.4275 
  26   0.0000      -7.696318      -209.4275 
  27   0.0000      -7.696318      -209.4275 
  28   0.0000      -7.696318      -209.4275 
  29   0.0000      -7.696318      -209.4275 
  30   0.0000      -5.177691      -140.8921 
  31   0.0000      -5.177691      -140.8921 
  32   0.0000      -5.177691      -140.8921 
  33   0.0000      -5.076763      -138.1457 
  34   0.0000      -5.055938      -137.5791 
  35   0.0000      -5.055938      -137.5791 
  36   0.0000      -5.055938      -137.5791 
  37   0.0000      -5.055938      -137.5791 
  38   0.0000      -5.055938      -137.5791 
  39   0.0000      -4.874418      -132.6396 
  40   0.0000      -4.874418      -132.6396 
  41   0.0000      -4.874418      -132.6396 
  42   0.0000      -4.874418      -132.6396 
  43   0.0000      -4.874418      -132.6396 
  44   0.0000      -4.874418      -132.6396 
  45   0.0000      -4.874418      -132.6396 
  46   0.0000      -4.874418      -132.6396 
  47   0.0000      -4.874418      -132.6396 
  48   0.0000      -4.834110      -131.5428 
  49   0.0000      -4.834110      -131.5428 
  50   0.0000      -4.834110      -131.5428 
  51   0.0000      -4.834110      -131.5428 
  52   0.0000      -4.834110      -131.5428 
  53   0.0000      -4.834110      -131.5428 
  54   0.0000      -4.834110      -131.5428 
  55   0.0000      -3.527307       -95.9829 
  56   0.0000      -3.527307       -95.9829 
  57   0.0000      -3.527307       -95.9829 
  58   0.0000      -2.939514       -79.9883 
  59   0.0000      -2.353925       -64.0536 
  60   0.0000      -2.353925       -64.0536 
  61   0.0000      -2.353925       -64.0536 
  62   0.0000      -2.353925       -64.0536 
  63   0.0000      -2.353925       -64.0536 
  64   0.0000       1.689591        45.9761 
  65   0.0000       1.689591        45.9761 
  66   0.0000       1.689591        45.9761 
  67   0.0000       4.456409       121.2651 
  68   0.0000       4.456409       121.2651 
  69   0.0000       4.456409       121.2651 
  70   0.0000       4.456409       121.2651 
  71   0.0000       4.456409       121.2651 
  72   0.0000       4.456409       121.2651 
  73   0.0000       4.456409       121.2651 
  74   0.0000      17.544761       477.4172 
  75   0.0000      20.327602       553.1422 
  76   0.0000      20.327602       553.1422 
  77   0.0000      20.327602       553.1422 
  78   0.0000      20.327602       553.1422 
  79   0.0000      20.327602       553.1422 
  80   0.0000      33.182218       902.9341 
  81   0.0000      33.182218       902.9341 
  82   0.0000      33.182218       902.9341 
  83   0.0000      51.482146      1400.9004 
  84   0.0000      51.482146      1400.9004 
  85   0.0000      51.482146      1400.9004 
  86   0.0000      51.482146      1400.9004 
  87   0.0000      51.482146      1400.9004 
  88   0.0000      51.482146      1400.9004 
  89   0.0000      51.482146      1400.9004 
  90   0.0000      51.482146      1400.9004 
  91   0.0000      51.482146      1400.9004 
  92   0.0000      60.059979      1634.3151 
  93   0.0000      60.059979      1634.3151 
  94   0.0000      60.059979      1634.3151 
  95   0.0000      60.059979      1634.3151 
  96   0.0000      60.059979      1634.3151 
  97   0.0000      60.059979      1634.3151 
  98   0.0000      60.059979      1634.3151 
  99   0.0000      86.314120      2348.7266 
 100   0.0000      99.286211      2701.7151 
 101   0.0000      99.286211      2701.7151 
 102   0.0000      99.286211      2701.7151 
 103   0.0000      99.286211      2701.7151 
 104   0.0000      99.286211      2701.7151 
 105   0.0000     156.732637      4264.9119 
 106   0.0000     156.732637      4264.9119 
 107   0.0000     156.732637      4264.9119 
 108   0.0000     492.903954     13412.5985 

                    ********************************
                    * MULLIKEN POPULATION ANALYSIS *
                    ********************************

-----------------------
MULLIKEN ATOMIC CHARGES
-----------------------
   0 Ar:   16.000000
Sum of atomic charges:   16.0000000

--------------------------------
MULLIKEN REDUCED ORBITAL CHARGES
--------------------------------
  0 Ars       :     2.000000  s :     2.000000
      pz      :     0.000000  p :     0.000000
      px      :     0.000000
      py      :     0.000000
      dz2     :     0.000000  d :     0.000000
      dxz     :     0.000000
      dyz     :     0.000000
      dx2y2   :     0.000000
      dxy     :     0.000000
      f0      :     0.000000  f :     0.000000
      f+1     :     0.000000
      f-1     :     0.000000
      f+2     :     0.000000
      f-2     :     0.000000
      f+3     :     0.000000
      f-3     :     0.000000
      g0      :     0.000000  g :     0.000000
      g+1     :     0.000000
      g-1     :     0.000000
      g+2     :     0.000000
      g-2     :     0.000000
      g+3     :     0.000000
      g-3     :     0.000000
      g+4     :     0.000000
      g-4     :     0.000000


                     *******************************
                     * LOEWDIN POPULATION ANALYSIS *
                     *******************************

----------------------
LOEWDIN ATOMIC CHARGES
----------------------
   0 Ar:   16.000000

-------------------------------
LOEWDIN REDUCED ORBITAL CHARGES
-------------------------------
  0 Ars       :     2.000000  s :     2.000000
      pz      :     0.000000  p :     0.000000
      px      :     0.000000
      py      :     0.000000
      dz2     :     0.000000  d :     0.000000
      dxz     :     0.000000
      dyz     :     0.000000
      dx2y2   :     0.000000
      dxy     :     0.000000
      f0      :     0.000000  f :     0.000000
      f+1     :     0.000000
      f-1     :     0.000000
      f+2     :     0.000000
      f-2     :     0.000000
      f+3     :     0.000000
      f-3     :     0.000000
      g0      :     0.000000  g :     0.000000
      g+1     :     0.000000
      g-1     :     0.000000
      g+2     :     0.000000
      g-2     :     0.000000
      g+3     :     0.000000
      g-3     :     0.000000
      g+4     :     0.000000
      g-4     :     0.000000


                      *****************************
                      * MAYER POPULATION ANALYSIS *
                      *****************************

  NA   - Mulliken gross atomic population
  ZA   - Total nuclear charge
  QA   - Mulliken gross atomic charge
  VA   - Mayer's total valence
  BVA  - Mayer's bonded valence
  FA   - Mayer's free valence

  ATOM       NA         ZA         QA         VA         BVA        FA
  0 Ar     2.0000    18.0000    16.0000    -0.0000     0.0000    -0.0000

  Mayer bond orders larger than 0.100000


--------------------------
ATOM BASIS FOR ELEMENT Ar
--------------------------
 NewGTO Ar
 S 45
    1     950600.000000000000         0.000022795655
    2     142300.000000000000         0.000177265031
    3      32360.000000000000         0.000932966362
    4       9145.000000000000         0.003935705459
    5       2970.000000000000         0.014232094392
    6       1064.000000000000         0.044892448098
    7        410.800000000000         0.121219848349
    8        168.000000000000         0.261050295972
    9         71.990000000000         0.382053753652
   10         31.670000000000         0.276557292051
   11         12.890000000000         0.050609269154
   12          5.929000000000        -0.003605168713
   13          2.678000000000         0.002191937288
   14     950600.000000000000         0.000000129698
   15     142300.000000000000         0.000001008249
   16      32360.000000000000         0.000005314828
   17       9145.000000000000         0.000022458222
   18       2970.000000000000         0.000081944262
   19       1064.000000000000         0.000263361019
   20        410.800000000000         0.000748349841
   21        168.000000000000         0.001795752607
   22         71.990000000000         0.003372978349
   23         31.670000000000         0.003604595390
   24         12.890000000000        -0.002066349149
   25          5.929000000000        -0.011292434625
   26          2.678000000000        -0.009038985471
   27     950600.000000000000        -0.000000047012
   28     142300.000000000000        -0.000000364932
   29      32360.000000000000        -0.000001927876
   30       9145.000000000000        -0.000008126040
   31       2970.000000000000        -0.000029775131
   32       1064.000000000000        -0.000095476274
   33        410.800000000000        -0.000274050048
   34        168.000000000000        -0.000660452496
   35         71.990000000000        -0.001285237933
   36         31.670000000000        -0.001413402031
   37         12.890000000000         0.000842263760
   38          5.929000000000         0.006407460386
   39          2.678000000000         0.008442018328
   40          0.941600000000        -0.000542088623
   41          0.423900000000         0.000266354106
   42          0.171400000000        -0.000067060016
   43         24.024000000000        -0.000550188212
   44         12.706000000000        -0.009667247781
   45          6.720000000000         0.005128003235
 S 45
    1     950600.000000000000        -0.000001577394
    2     142300.000000000000        -0.000012266234
    3      32360.000000000000        -0.000064558610
    4       9145.000000000000        -0.000272339589
    5       2970.000000000000        -0.000984820327
    6       1064.000000000000        -0.003106429329
    7        410.800000000000        -0.008388067662
    8        168.000000000000        -0.018063935697
    9         71.990000000000        -0.026437029742
   10         31.670000000000        -0.019136975584
   11         12.890000000000        -0.003502017036
   12          5.929000000000         0.000249467389
   13          2.678000000000        -0.000151675807
   14     950600.000000000000         0.000013410102
   15     142300.000000000000         0.000104248086
   16      32360.000000000000         0.000549527816
   17       9145.000000000000         0.002322072741
   18       2970.000000000000         0.008472644627
   19       1064.000000000000         0.027230269166
   20        410.800000000000         0.077375792663
   21        168.000000000000         0.185672226677
   22         71.990000000000         0.348749821249
   23         31.670000000000         0.372697914940
   24         12.890000000000        -0.213650614368
   25          5.929000000000        -1.167583704817
   26          2.678000000000        -0.934587845267
   27     950600.000000000000        -0.000004097770
   28     142300.000000000000        -0.000031809332
   29      32360.000000000000        -0.000168043258
   30       9145.000000000000        -0.000708306258
   31       2970.000000000000        -0.002595349124
   32       1064.000000000000        -0.008322188872
   33        410.800000000000        -0.023887570944
   34        168.000000000000        -0.057568338205
   35         71.990000000000        -0.112027757388
   36         31.670000000000        -0.123199180298
   37         12.890000000000         0.073415916025
   38          5.929000000000         0.558506249557
   39          2.678000000000         0.735848481545
   40          0.941600000000         0.013084179877
   41          0.423900000000        -0.006255789340
   42          0.171400000000         0.001538824859
   43         24.024000000000        -0.015821411077
   44         12.706000000000        -0.109226449125
   45          6.720000000000        -0.138558692338
 S 45
    1     950600.000000000000        -0.000004154876
    2     142300.000000000000        -0.000032309416
    3      32360.000000000000        -0.000170048192
    4       9145.000000000000        -0.000717345902
    5       2970.000000000000        -0.002594029127
    6       1064.000000000000        -0.008182373918
    7        410.800000000000        -0.022094275707
    8        168.000000000000        -0.047580633791
    9         71.990000000000        -0.069635468803
   10         31.670000000000        -0.050407034347
   11         12.890000000000        -0.009224356912
   12          5.929000000000         0.000657100241
   13          2.678000000000        -0.000399515982
   14     950600.000000000000         0.000018866602
   15     142300.000000000000         0.000146666082
   16      32360.000000000000         0.000773127787
   17       9145.000000000000         0.003266911893
   18       2970.000000000000         0.011920119040
   19       1064.000000000000         0.038310122074
   20        410.800000000000         0.108859594608
   21        168.000000000000         0.261221276453
   22         71.990000000000         0.490654284164
   23         31.670000000000         0.524346730873
   24         12.890000000000        -0.300583922534
   25          5.929000000000        -1.642667356320
   26          2.678000000000        -1.314866710370
   27     950600.000000000000        -0.000010764362
   28     142300.000000000000        -0.000083559383
   29      32360.000000000000        -0.000441429924
   30       9145.000000000000        -0.001860637437
   31       2970.000000000000        -0.006817677649
   32       1064.000000000000        -0.021861413767
   33        410.800000000000        -0.062749846264
   34        168.000000000000        -0.151225270265
   35         71.990000000000        -0.294283775015
   36         31.670000000000        -0.323629792311
   37         12.890000000000         0.192854997883
   38          5.929000000000         1.467130390901
   39          2.678000000000         1.932987627675
   40          0.941600000000         1.081410638271
   41          0.423900000000        -0.259435656454
   42          0.171400000000         0.061099704978
   43         24.024000000000        -0.074570594118
   44         12.706000000000         0.117170158462
   45          6.720000000000        -1.048366190628
 S 45
    1     950600.000000000000        -0.000005528442
    2     142300.000000000000        -0.000042990624
    3      32360.000000000000        -0.000226264628
    4       9145.000000000000        -0.000954494146
    5       2970.000000000000        -0.003451592334
    6       1064.000000000000        -0.010887394745
    7        410.800000000000        -0.029398448867
    8        168.000000000000        -0.063310372703
    9         71.990000000000        -0.092656342128
   10         31.670000000000        -0.067071156415
   11         12.890000000000        -0.012273848150
   12          5.929000000000         0.000874331799
   13          2.678000000000        -0.000531592451
   14     950600.000000000000         0.000026384919
   15     142300.000000000000         0.000205112326
   16      32360.000000000000         0.001081218213
   17       9145.000000000000         0.004568772071
   18       2970.000000000000         0.016670271113
   19       1064.000000000000         0.053576656338
   20        410.800000000000         0.152240002736
   21        168.000000000000         0.365317618398
   22         71.990000000000         0.686179383936
   23         31.670000000000         0.733298227228
   24         12.890000000000        -0.420366228203
   25          5.929000000000        -2.297268180371
   26          2.678000000000        -1.838839399554
   27     950600.000000000000        -0.000018462744
   28     142300.000000000000        -0.000143318811
   29      32360.000000000000        -0.000757128763
   30       9145.000000000000        -0.003191315412
   31       2970.000000000000        -0.011693497787
   32       1064.000000000000        -0.037496110360
   33        410.800000000000        -0.107626852757
   34        168.000000000000        -0.259377526241
   35         71.990000000000        -0.504747635382
   36         31.670000000000        -0.555081136905
   37         12.890000000000         0.330779718142
   38          5.929000000000         2.516382683912
   39          2.678000000000         3.315408517650
   40          0.941600000000         0.864365258071
   41          0.423900000000        -1.976025369391
   42          0.171400000000         0.222526273703
   43         24.024000000000        -0.125265225100
   44         12.706000000000         0.331197326307
   45          6.720000000000        -1.606352000569
 S 45
    1     950600.000000000000        -0.000006516745
    2     142300.000000000000        -0.000050675934
    3      32360.000000000000        -0.000266713300
    4       9145.000000000000        -0.001125126298
    5       2970.000000000000        -0.004068623488
    6       1064.000000000000        -0.012833702737
    7        410.800000000000        -0.034653924334
    8        168.000000000000        -0.074628184469
    9         71.990000000000        -0.109220247763
   10         31.670000000000        -0.079061272582
   11         12.890000000000        -0.014468008397
   12          5.929000000000         0.001030633560
   13          2.678000000000        -0.000626623692
   14     950600.000000000000         0.000032418462
   15     142300.000000000000         0.000252016170
   16      32360.000000000000         0.001328464643
   17       9145.000000000000         0.005613531188
   18       2970.000000000000         0.020482327714
   19       1064.000000000000         0.065828241515
   20        410.800000000000         0.187053324213
   21        168.000000000000         0.448856238090
   22         71.990000000000         0.843090728226
   23         31.670000000000         0.900984423132
   24         12.890000000000        -0.516493030473
   25          5.929000000000        -2.822593549822
   26          2.678000000000        -2.259334052805
   27     950600.000000000000        -0.000024276797
   28     142300.000000000000        -0.000188450947
   29      32360.000000000000        -0.000995554113
   30       9145.000000000000        -0.004196283827
   31       2970.000000000000        -0.015375865221
   32       1064.000000000000        -0.049303908011
   33        410.800000000000        -0.141519330856
   34        168.000000000000        -0.341057394250
   35         71.990000000000        -0.663696333959
   36         31.670000000000        -0.729880220905
   37         12.890000000000         0.434944655288
   38          5.929000000000         3.308809878595
   39          2.678000000000         4.359454754206
   40          0.941600000000        -0.977038628435
   41          0.423900000000        -1.499268586492
   42          0.171400000000         1.906265344656
   43         24.024000000000        -0.163335880447
   44         12.706000000000         0.488135760511
   45          6.720000000000        -1.962737384863
 S 45
    1     950600.000000000000        -0.000014226478
    2     142300.000000000000        -0.000110628853
    3      32360.000000000000        -0.000582252448
    4       9145.000000000000        -0.002456223750
    5       2970.000000000000        -0.008882069205
    6       1064.000000000000        -0.028016806226
    7        410.800000000000        -0.075651766518
    8        168.000000000000        -0.162918171482
    9         71.990000000000        -0.238434891335
   10         31.670000000000        -0.172595890625
   11         12.890000000000        -0.031584601580
   12          5.929000000000         0.002249939968
   13          2.678000000000        -0.001367960200
   14     950600.000000000000         0.000073505160
   15     142300.000000000000         0.000571417875
   16      32360.000000000000         0.003012141810
   17       9145.000000000000         0.012728040659
   18       2970.000000000000         0.046441338113
   19       1064.000000000000         0.149258017171
   20        410.800000000000         0.424122042986
   21        168.000000000000         1.017730240865
   22         71.990000000000         1.911611908435
   23         31.670000000000         2.042879247643
   24         12.890000000000        -1.171088940514
   25          5.929000000000        -6.399908410645
   26          2.678000000000        -5.122781850019
   27     950600.000000000000        -0.000056898688
   28     142300.000000000000        -0.000441681483
   29      32360.000000000000        -0.002333327714
   30       9145.000000000000        -0.009835030789
   31       2970.000000000000        -0.036037149557
   32       1064.000000000000        -0.115555923594
   33        410.800000000000        -0.331685613643
   34        168.000000000000        -0.799352501283
   35         71.990000000000        -1.555536791128
   36         31.670000000000        -1.710655127417
   37         12.890000000000         1.019400558339
   38          5.929000000000         7.755015716757
   39          2.678000000000        10.217462282756
   40          0.941600000000        -7.070199457374
   41          0.423900000000         6.215571455561
   42          0.171400000000        -2.357577743009
   43         24.024000000000        -0.361872862670
   44         12.706000000000         1.146750097101
   45          6.720000000000        -4.373854942245
 S 45
    1     950600.000000000000        -0.000032257143
    2     142300.000000000000        -0.000250840061
    3      32360.000000000000        -0.001320200252
    4       9145.000000000000        -0.005569246170
    5       2970.000000000000        -0.020139219769
    6       1064.000000000000        -0.063525357077
    7        410.800000000000        -0.171532952143
    8        168.000000000000        -0.369400956492
    9         71.990000000000        -0.540627703581
   10         31.670000000000        -0.391344234367
   11         12.890000000000        -0.071614982711
   12          5.929000000000         0.005101517951
   13          2.678000000000        -0.003101715429
   14     950600.000000000000         0.000091383073
   15     142300.000000000000         0.000710398036
   16      32360.000000000000         0.003744754443
   17       9145.000000000000         0.015823752603
   18       2970.000000000000         0.057736792688
   19       1064.000000000000         0.185560527421
   20        410.800000000000         0.527276936133
   21        168.000000000000         1.265262421720
   22         71.990000000000         2.376553840631
   23         31.670000000000         2.539748000371
   24         12.890000000000        -1.455920998932
   25          5.929000000000        -7.956493075763
   26          2.678000000000        -6.368744004293
   27     950600.000000000000        -0.000071035059
   28     142300.000000000000        -0.000551416410
   29      32360.000000000000        -0.002913038560
   30       9145.000000000000        -0.012278525539
   31       2970.000000000000        -0.044990511028
   32       1064.000000000000        -0.144265573685
   33        410.800000000000        -0.414092275382
   34        168.000000000000        -0.997950114427
   35         71.990000000000        -1.942006957142
   36         31.670000000000        -2.135664149934
   37         12.890000000000         1.272668693984
   38          5.929000000000         9.681734665862
   39          2.678000000000        12.755971411683
   40          0.941600000000        -3.870786072118
   41          0.423900000000         2.215021449504
   42          0.171400000000        -0.599365317089
   43         24.024000000000        -3.074804169894
   44         12.706000000000        11.002234569772
   45          6.720000000000       -13.358201226122
 S 45
    1     950600.000000000000        -0.000161142798
    2     142300.000000000000        -0.001253088946
    3      32360.000000000000        -0.006595152054
    4       9145.000000000000        -0.027821556048
    5       2970.000000000000        -0.100606871110
    6       1064.000000000000        -0.317345333374
    7        410.800000000000        -0.856904776096
    8        168.000000000000        -1.845368134563
    9         71.990000000000        -2.700743242047
   10         31.670000000000        -1.954987303240
   11         12.890000000000        -0.357757620088
   12          5.929000000000         0.025484987244
   13          2.678000000000        -0.015494834853
   14     950600.000000000000         0.000304588355
   15     142300.000000000000         0.002367823300
   16      32360.000000000000         0.012481617874
   17       9145.000000000000         0.052742051933
   18       2970.000000000000         0.192442146610
   19       1064.000000000000         0.618490646267
   20        410.800000000000         1.757463494648
   21        168.000000000000         4.217238352264
   22         71.990000000000         7.921276907366
   23         31.670000000000         8.465218351849
   24         12.890000000000        -4.852721276757
   25          5.929000000000       -26.519737860400
   26          2.678000000000       -21.227621250414
   27     950600.000000000000        -0.000143242595
   28     142300.000000000000        -0.001111934292
   29      32360.000000000000        -0.005874158644
   30       9145.000000000000        -0.024759715822
   31       2970.000000000000        -0.090723618583
   32       1064.000000000000        -0.290912340908
   33        410.800000000000        -0.835019402804
   34        168.000000000000        -2.012372019758
   35         71.990000000000        -3.916067953930
   36         31.670000000000        -4.306578772622
   37         12.890000000000         2.566343580877
   38          5.929000000000        19.523272418772
   39          2.678000000000        25.722488110986
   40          0.941600000000        -2.137580269515
   41          0.423900000000         1.155425057083
   42          0.171400000000        -0.304676188079
   43         24.024000000000       -11.397326603631
   44         12.706000000000        16.539606528459
   45          6.720000000000        -2.530261296746
 S 45
    1     950600.000000000000        -0.000721156833
    2     142300.000000000000        -0.005607905947
    3      32360.000000000000        -0.029515057594
    4       9145.000000000000        -0.124508854745
    5       2970.000000000000        -0.450242476721
    6       1064.000000000000        -1.420204676860
    7        410.800000000000        -3.834876529292
    8        168.000000000000        -8.258512666229
    9         71.990000000000       -12.086543522095
   10         31.670000000000        -8.749087568891
   11         12.890000000000        -1.601060396353
   12          5.929000000000         0.114052088585
   13          2.678000000000        -0.069343502521
   14     950600.000000000000         0.000965355898
   15     142300.000000000000         0.007504529155
   16      32360.000000000000         0.039558976051
   17       9145.000000000000         0.167159545372
   18       2970.000000000000         0.609922074681
   19       1064.000000000000         1.960231190454
   20        410.800000000000         5.570067678612
   21        168.000000000000        13.366026156718
   22         71.990000000000        25.105527716175
   23         31.670000000000        26.829484241129
   24         12.890000000000       -15.380112314871
   25          5.929000000000       -84.051097022096
   26          2.678000000000       -67.278374419043
   27     950600.000000000000        -0.000402295814
   28     142300.000000000000        -0.003122859579
   29      32360.000000000000        -0.016497532917
   30       9145.000000000000        -0.069537486400
   31       2970.000000000000        -0.254796639776
   32       1064.000000000000        -0.817025247561
   33        410.800000000000        -2.345146074468
   34        168.000000000000        -5.651732554544
   35         71.990000000000       -10.998249092978
   36         31.670000000000       -12.094995959479
   37         12.890000000000         7.207557757605
   38          5.929000000000        54.830972214424
   39          2.678000000000        72.241425548270
   40          0.941600000000        -1.982677626919
   41          0.423900000000         1.041611315677
   42          0.171400000000        -0.271548384466
   43         24.024000000000       -11.246098484517
   44         12.706000000000        14.077815565985
   45          6.720000000000        25.452507531668
 P 22
    1       1890.000000000000         0.000395533102
    2        447.800000000000         0.003392212234
    3        144.600000000000         0.017814036930
    4         54.460000000000         0.066291160203
    5         22.510000000000         0.173220061088
    6          9.774000000000         0.298798422081
    7          4.368000000000         0.292366198174
    8          1.959000000000         0.103117437222
    9       1890.000000000000         0.000288981679
   10        447.800000000000         0.002473751262
   11        144.600000000000         0.013163782134
   12         54.460000000000         0.049698322555
   13         22.510000000000         0.135110063268
   14          9.774000000000         0.240245428393
   15          4.368000000000         0.257324654952
   16          1.959000000000        -0.135071979943
   17          0.826000000000         0.017074464469
   18          0.329700000000        -0.006914426475
   19          0.124200000000         0.001982243127
   20         23.627000000000         0.006673277462
   21         10.654000000000        -0.042235874521
   22          4.804000000000        -0.329059820002
 P 22
    1       1890.000000000000        -0.001014479881
    2        447.800000000000        -0.008700488146
    3        144.600000000000        -0.045690188719
    4         54.460000000000        -0.170026346746
    5         22.510000000000        -0.444282074409
    6          9.774000000000        -0.766370719177
    7          4.368000000000        -0.749873081648
    8          1.959000000000        -0.264479925876
    9       1890.000000000000         0.001414752509
   10        447.800000000000         0.012110614835
   11        144.600000000000         0.064445240561
   12         54.460000000000         0.243305481660
   13         22.510000000000         0.661451279041
   14          9.774000000000         1.176156994163
   15          4.368000000000         1.259770871464
   16          1.959000000000        -0.661264836498
   17          0.826000000000        -0.093891624622
   18          0.329700000000        -0.004831929404
   19          0.124200000000         0.002289966334
   20         23.627000000000        -0.010791987322
   21         10.654000000000        -0.008842008168
   22          4.804000000000        -0.674354710807
 P 22
    1       1890.000000000000        -0.001364186101
    2        447.800000000000        -0.011699675098
    3        144.600000000000        -0.061440272568
    4         54.460000000000        -0.228636943306
    5         22.510000000000        -0.597432676773
    6          9.774000000000        -1.030550041363
    7          4.368000000000        -1.008365424164
    8          1.959000000000        -0.355650068212
    9       1890.000000000000         0.001624984451
   10        447.800000000000         0.013910249795
   11        144.600000000000         0.074021790514
   12         54.460000000000         0.279460627933
   13         22.510000000000         0.759742807796
   14          9.774000000000         1.350933690006
   15          4.368000000000         1.446972572875
   16          1.959000000000        -0.759528659928
   17          0.826000000000         1.303939985998
   18          0.329700000000         0.249850592370
   19          0.124200000000        -0.025820610195
   20         23.627000000000        -0.021804540289
   21         10.654000000000        -0.006946947907
   22          4.804000000000        -0.724478491102
 P 22
    1       1890.000000000000        -0.001157407113
    2        447.800000000000        -0.009926275577
    3        144.600000000000        -0.052127351564
    4         54.460000000000        -0.193980882998
    5         22.510000000000        -0.506875732750
    6          9.774000000000        -0.874342545461
    7          4.368000000000        -0.855520601942
    8          1.959000000000        -0.301741762605
    9       1890.000000000000         0.001344915603
   10        447.800000000000         0.011512794459
   11        144.600000000000         0.061264008356
   12         54.460000000000         0.231295110885
   13         22.510000000000         0.628799835859
   14          9.774000000000         1.118097958697
   15          4.368000000000         1.197584375895
   16          1.959000000000        -0.628622596741
   17          0.826000000000         2.217968419365
   18          0.329700000000        -1.699120779866
   19          0.124200000000        -0.088366976187
   20         23.627000000000        -0.023411263956
   21         10.654000000000         0.009403156328
   22          4.804000000000        -0.660649155616
 P 22
    1       1890.000000000000        -0.000539249103
    2        447.800000000000        -0.004624764389
    3        144.600000000000        -0.024286724396
    4         54.460000000000        -0.090377893795
    5         22.510000000000        -0.236159153592
    6          9.774000000000        -0.407366109963
    7          4.368000000000        -0.398596752972
    8          1.959000000000        -0.140584909981
    9       1890.000000000000         0.000661325094
   10        447.800000000000         0.005661098628
   11        144.600000000000         0.030124883656
   12         54.460000000000         0.113732981118
   13         22.510000000000         0.309194948327
   14          9.774000000000         0.549793783092
   15          4.368000000000         0.588879032891
   16          1.959000000000        -0.309107795888
   17          0.826000000000         1.657032376687
   18          0.329700000000        -2.438584694054
   19          0.124200000000         1.813856773404
   20         23.627000000000        -0.018294032532
   21         10.654000000000         0.039808819695
   22          4.804000000000        -0.483952784452
 P 22
    1       1890.000000000000         0.006332020590
    2        447.800000000000         0.054305335297
    3        144.600000000000         0.285181816987
    4         54.460000000000         1.061243646836
    5         22.510000000000         2.773049811940
    6          9.774000000000         4.783411938281
    7          4.368000000000         4.680439585170
    8          1.959000000000         1.650789106647
    9       1890.000000000000        -0.005548202176
   10        447.800000000000        -0.047493917940
   11        144.600000000000        -0.252733408554
   12         54.460000000000        -0.954165476997
   13         22.510000000000        -2.593998174114
   14          9.774000000000        -4.612507666101
   15          4.368000000000        -4.940414273770
   16          1.959000000000         2.593267006706
   17          0.826000000000        -3.204676142793
   18          0.329700000000         1.667653443381
   19          0.124200000000        -0.547648241165
   20         23.627000000000        -0.057728472972
   21         10.654000000000         1.174943062537
   22          4.804000000000        -3.389378268307
 P 22
    1       1890.000000000000         0.002938674360
    2        447.800000000000         0.025202965491
    3        144.600000000000         0.132352142800
    4         54.460000000000         0.492520428461
    5         22.510000000000         1.286965237052
    6          9.774000000000         2.219969094158
    7          4.368000000000         2.172179891721
    8          1.959000000000         0.766126949762
    9       1890.000000000000        -0.003570992812
   10        447.800000000000        -0.030568539897
   11        144.600000000000        -0.162666960694
   12         54.460000000000        -0.614130118493
   13         22.510000000000        -1.669576655669
   14          9.774000000000        -2.968751173484
   15          4.368000000000        -3.179801907006
   16          1.959000000000         1.669106053936
   17          0.826000000000        -1.303876762471
   18          0.329700000000         0.563157132633
   19          0.124200000000        -0.166263701444
   20         23.627000000000        -1.784474367532
   21         10.654000000000         5.045649662341
   22          4.804000000000        -2.816161125840
 P 22
    1       1890.000000000000        -0.006802210414
    2        447.800000000000        -0.058337826296
    3        144.600000000000        -0.306358246591
    4         54.460000000000        -1.140047238232
    5         22.510000000000        -2.978965093461
    6          9.774000000000        -5.138608448513
    7          4.368000000000        -5.027989791687
    8          1.959000000000        -1.773369920797
    9       1890.000000000000        -0.002554490839
   10        447.800000000000        -0.021867043493
   11        144.600000000000        -0.116362950806
   12         54.460000000000        -0.439314735221
   13         22.510000000000        -1.194322838647
   14          9.774000000000        -2.123680465172
   15          4.368000000000        -2.274654492212
   16          1.959000000000         1.193986196184
   17          0.826000000000         0.404587399158
   18          0.329700000000        -0.184001205876
   19          0.124200000000         0.055035817374
   20         23.627000000000         7.202578570011
   21         10.654000000000         3.333274720366
   22          4.804000000000        10.067013273667
 D 6
    1          0.311000000000         0.030623279287
    2          0.763000000000        -0.072533190951
    3          1.873000000000         0.570540022762
    4         37.364000000000         0.031920565518
    5         15.013000000000         0.083223831058
    6          6.032000000000         0.533912518188
 D 6
    1          0.311000000000         0.028096881294
    2          0.763000000000        -0.963927293926
    3          1.873000000000        -0.026142660463
    4         37.364000000000         0.025753001977
    5         15.013000000000         0.068543812276
    6          6.032000000000         0.459971879776
 D 6
    1          0.311000000000         1.228699168904
    2          0.763000000000        -0.554949233414
    3          1.873000000000        -0.389434832660
    4         37.364000000000         0.020572640290
    5         15.013000000000         0.050438808685
    6          6.032000000000         0.376703662047
 D 6
    1          0.311000000000        -1.051475526634
    2          0.763000000000         2.029535741572
    3          1.873000000000        -1.856485199918
    4         37.364000000000         0.043590941543
    5         15.013000000000         0.092414552338
    6          6.032000000000         0.814793710756
 D 6
    1          0.311000000000         0.228121529321
    2          0.763000000000        -0.630673376222
    3          1.873000000000         1.018095739353
    4         37.364000000000        -0.047435090362
    5         15.013000000000         1.578213169913
    6          6.032000000000        -1.674726560291
 D 6
    1          0.311000000000        -0.088757842893
    2          0.763000000000         0.250309606251
    3          1.873000000000        -0.429788100562
    4         37.364000000000         1.605987116720
    5         15.013000000000        -1.738052845055
    6          6.032000000000         0.944948075495
 F 4
    1          0.543000000000         0.086881598965
    2          1.325000000000         0.906721810636
    3         21.884000000000        -0.011194057034
    4          7.968000000000         0.138692758078
 F 4
    1          0.543000000000        -1.282051552728
    2          1.325000000000         0.838746707323
    3         21.884000000000        -0.009825917052
    4          7.968000000000         0.133101916159
 F 4
    1          0.543000000000         0.315462482952
    2          1.325000000000        -0.545166868366
    3         21.884000000000        -0.054548393819
    4          7.968000000000         1.043226229779
 F 4
    1          0.543000000000        -0.076948663156
    2          1.325000000000         0.152624561887
    3         21.884000000000         1.231288544462
    4          7.968000000000        -0.691539165415
 G 2
    1          1.007000000000         0.999941254638
    2         17.243000000000         0.003830905378
 G 2
    1          1.007000000000        -0.017251145236
    2         17.243000000000         1.000082716031
 end
  // -----------------------------------------------
  // The basis set
  // -----------------------------------------------
  BAS[ATNO] = new BFNGauss[NSH];
  // Basis function   1 L = s
  InitBFNGauss(BAS[ATNO][  0]);
  BAS[ATNO][  0].l  = 0;
  BAS[ATNO][  0].ng = 45;
  BAS[ATNO][  0].a[  0] =    950600.000000000000;     BAS[ATNO][  0].d[  0] =         0.000022795655;
  BAS[ATNO][  0].a[  1] =    142300.000000000000;     BAS[ATNO][  0].d[  1] =         0.000177265031;
  BAS[ATNO][  0].a[  2] =     32360.000000000000;     BAS[ATNO][  0].d[  2] =         0.000932966362;
  BAS[ATNO][  0].a[  3] =      9145.000000000000;     BAS[ATNO][  0].d[  3] =         0.003935705459;
  BAS[ATNO][  0].a[  4] =      2970.000000000000;     BAS[ATNO][  0].d[  4] =         0.014232094392;
  BAS[ATNO][  0].a[  5] =      1064.000000000000;     BAS[ATNO][  0].d[  5] =         0.044892448098;
  BAS[ATNO][  0].a[  6] =       410.800000000000;     BAS[ATNO][  0].d[  6] =         0.121219848349;
  BAS[ATNO][  0].a[  7] =       168.000000000000;     BAS[ATNO][  0].d[  7] =         0.261050295972;
  BAS[ATNO][  0].a[  8] =        71.990000000000;     BAS[ATNO][  0].d[  8] =         0.382053753652;
  BAS[ATNO][  0].a[  9] =        31.670000000000;     BAS[ATNO][  0].d[  9] =         0.276557292051;
  BAS[ATNO][  0].a[ 10] =        12.890000000000;     BAS[ATNO][  0].d[ 10] =         0.050609269154;
  BAS[ATNO][  0].a[ 11] =         5.929000000000;     BAS[ATNO][  0].d[ 11] =        -0.003605168713;
  BAS[ATNO][  0].a[ 12] =         2.678000000000;     BAS[ATNO][  0].d[ 12] =         0.002191937288;
  BAS[ATNO][  0].a[ 13] =    950600.000000000000;     BAS[ATNO][  0].d[ 13] =         0.000000129698;
  BAS[ATNO][  0].a[ 14] =    142300.000000000000;     BAS[ATNO][  0].d[ 14] =         0.000001008249;
  BAS[ATNO][  0].a[ 15] =     32360.000000000000;     BAS[ATNO][  0].d[ 15] =         0.000005314828;
  BAS[ATNO][  0].a[ 16] =      9145.000000000000;     BAS[ATNO][  0].d[ 16] =         0.000022458222;
  BAS[ATNO][  0].a[ 17] =      2970.000000000000;     BAS[ATNO][  0].d[ 17] =         0.000081944262;
  BAS[ATNO][  0].a[ 18] =      1064.000000000000;     BAS[ATNO][  0].d[ 18] =         0.000263361019;
  BAS[ATNO][  0].a[ 19] =       410.800000000000;     BAS[ATNO][  0].d[ 19] =         0.000748349841;
  BAS[ATNO][  0].a[ 20] =       168.000000000000;     BAS[ATNO][  0].d[ 20] =         0.001795752607;
  BAS[ATNO][  0].a[ 21] =        71.990000000000;     BAS[ATNO][  0].d[ 21] =         0.003372978349;
  BAS[ATNO][  0].a[ 22] =        31.670000000000;     BAS[ATNO][  0].d[ 22] =         0.003604595390;
  BAS[ATNO][  0].a[ 23] =        12.890000000000;     BAS[ATNO][  0].d[ 23] =        -0.002066349149;
  BAS[ATNO][  0].a[ 24] =         5.929000000000;     BAS[ATNO][  0].d[ 24] =        -0.011292434625;
  BAS[ATNO][  0].a[ 25] =         2.678000000000;     BAS[ATNO][  0].d[ 25] =        -0.009038985471;
  BAS[ATNO][  0].a[ 26] =    950600.000000000000;     BAS[ATNO][  0].d[ 26] =        -0.000000047012;
  BAS[ATNO][  0].a[ 27] =    142300.000000000000;     BAS[ATNO][  0].d[ 27] =        -0.000000364932;
  BAS[ATNO][  0].a[ 28] =     32360.000000000000;     BAS[ATNO][  0].d[ 28] =        -0.000001927876;
  BAS[ATNO][  0].a[ 29] =      9145.000000000000;     BAS[ATNO][  0].d[ 29] =        -0.000008126040;
  BAS[ATNO][  0].a[ 30] =      2970.000000000000;     BAS[ATNO][  0].d[ 30] =        -0.000029775131;
  BAS[ATNO][  0].a[ 31] =      1064.000000000000;     BAS[ATNO][  0].d[ 31] =        -0.000095476274;
  BAS[ATNO][  0].a[ 32] =       410.800000000000;     BAS[ATNO][  0].d[ 32] =        -0.000274050048;
  BAS[ATNO][  0].a[ 33] =       168.000000000000;     BAS[ATNO][  0].d[ 33] =        -0.000660452496;
  BAS[ATNO][  0].a[ 34] =        71.990000000000;     BAS[ATNO][  0].d[ 34] =        -0.001285237933;
  BAS[ATNO][  0].a[ 35] =        31.670000000000;     BAS[ATNO][  0].d[ 35] =        -0.001413402031;
  BAS[ATNO][  0].a[ 36] =        12.890000000000;     BAS[ATNO][  0].d[ 36] =         0.000842263760;
  BAS[ATNO][  0].a[ 37] =         5.929000000000;     BAS[ATNO][  0].d[ 37] =         0.006407460386;
  BAS[ATNO][  0].a[ 38] =         2.678000000000;     BAS[ATNO][  0].d[ 38] =         0.008442018328;
  BAS[ATNO][  0].a[ 39] =         0.941600000000;     BAS[ATNO][  0].d[ 39] =        -0.000542088623;
  BAS[ATNO][  0].a[ 40] =         0.423900000000;     BAS[ATNO][  0].d[ 40] =         0.000266354106;
  BAS[ATNO][  0].a[ 41] =         0.171400000000;     BAS[ATNO][  0].d[ 41] =        -0.000067060016;
  BAS[ATNO][  0].a[ 42] =        24.024000000000;     BAS[ATNO][  0].d[ 42] =        -0.000550188212;
  BAS[ATNO][  0].a[ 43] =        12.706000000000;     BAS[ATNO][  0].d[ 43] =        -0.009667247781;
  BAS[ATNO][  0].a[ 44] =         6.720000000000;     BAS[ATNO][  0].d[ 44] =         0.005128003235;

  // Basis function   2 L = s
  InitBFNGauss(BAS[ATNO][  1]);
  BAS[ATNO][  1].l  = 0;
  BAS[ATNO][  1].ng = 45;
  BAS[ATNO][  1].a[  0] =    950600.000000000000;     BAS[ATNO][  1].d[  0] =         0.000001577394;
  BAS[ATNO][  1].a[  1] =    142300.000000000000;     BAS[ATNO][  1].d[  1] =         0.000012266234;
  BAS[ATNO][  1].a[  2] =     32360.000000000000;     BAS[ATNO][  1].d[  2] =         0.000064558610;
  BAS[ATNO][  1].a[  3] =      9145.000000000000;     BAS[ATNO][  1].d[  3] =         0.000272339589;
  BAS[ATNO][  1].a[  4] =      2970.000000000000;     BAS[ATNO][  1].d[  4] =         0.000984820327;
  BAS[ATNO][  1].a[  5] =      1064.000000000000;     BAS[ATNO][  1].d[  5] =         0.003106429329;
  BAS[ATNO][  1].a[  6] =       410.800000000000;     BAS[ATNO][  1].d[  6] =         0.008388067662;
  BAS[ATNO][  1].a[  7] =       168.000000000000;     BAS[ATNO][  1].d[  7] =         0.018063935697;
  BAS[ATNO][  1].a[  8] =        71.990000000000;     BAS[ATNO][  1].d[  8] =         0.026437029742;
  BAS[ATNO][  1].a[  9] =        31.670000000000;     BAS[ATNO][  1].d[  9] =         0.019136975584;
  BAS[ATNO][  1].a[ 10] =        12.890000000000;     BAS[ATNO][  1].d[ 10] =         0.003502017036;
  BAS[ATNO][  1].a[ 11] =         5.929000000000;     BAS[ATNO][  1].d[ 11] =        -0.000249467389;
  BAS[ATNO][  1].a[ 12] =         2.678000000000;     BAS[ATNO][  1].d[ 12] =         0.000151675807;
  BAS[ATNO][  1].a[ 13] =    950600.000000000000;     BAS[ATNO][  1].d[ 13] =        -0.000013410102;
  BAS[ATNO][  1].a[ 14] =    142300.000000000000;     BAS[ATNO][  1].d[ 14] =        -0.000104248086;
  BAS[ATNO][  1].a[ 15] =     32360.000000000000;     BAS[ATNO][  1].d[ 15] =        -0.000549527816;
  BAS[ATNO][  1].a[ 16] =      9145.000000000000;     BAS[ATNO][  1].d[ 16] =        -0.002322072741;
  BAS[ATNO][  1].a[ 17] =      2970.000000000000;     BAS[ATNO][  1].d[ 17] =        -0.008472644627;
  BAS[ATNO][  1].a[ 18] =      1064.000000000000;     BAS[ATNO][  1].d[ 18] =        -0.027230269166;
  BAS[ATNO][  1].a[ 19] =       410.800000000000;     BAS[ATNO][  1].d[ 19] =        -0.077375792663;
  BAS[ATNO][  1].a[ 20] =       168.000000000000;     BAS[ATNO][  1].d[ 20] =        -0.185672226677;
  BAS[ATNO][  1].a[ 21] =        71.990000000000;     BAS[ATNO][  1].d[ 21] =        -0.348749821249;
  BAS[ATNO][  1].a[ 22] =        31.670000000000;     BAS[ATNO][  1].d[ 22] =        -0.372697914940;
  BAS[ATNO][  1].a[ 23] =        12.890000000000;     BAS[ATNO][  1].d[ 23] =         0.213650614368;
  BAS[ATNO][  1].a[ 24] =         5.929000000000;     BAS[ATNO][  1].d[ 24] =         1.167583704817;
  BAS[ATNO][  1].a[ 25] =         2.678000000000;     BAS[ATNO][  1].d[ 25] =         0.934587845267;
  BAS[ATNO][  1].a[ 26] =    950600.000000000000;     BAS[ATNO][  1].d[ 26] =         0.000004097770;
  BAS[ATNO][  1].a[ 27] =    142300.000000000000;     BAS[ATNO][  1].d[ 27] =         0.000031809332;
  BAS[ATNO][  1].a[ 28] =     32360.000000000000;     BAS[ATNO][  1].d[ 28] =         0.000168043258;
  BAS[ATNO][  1].a[ 29] =      9145.000000000000;     BAS[ATNO][  1].d[ 29] =         0.000708306258;
  BAS[ATNO][  1].a[ 30] =      2970.000000000000;     BAS[ATNO][  1].d[ 30] =         0.002595349124;
  BAS[ATNO][  1].a[ 31] =      1064.000000000000;     BAS[ATNO][  1].d[ 31] =         0.008322188872;
  BAS[ATNO][  1].a[ 32] =       410.800000000000;     BAS[ATNO][  1].d[ 32] =         0.023887570944;
  BAS[ATNO][  1].a[ 33] =       168.000000000000;     BAS[ATNO][  1].d[ 33] =         0.057568338205;
  BAS[ATNO][  1].a[ 34] =        71.990000000000;     BAS[ATNO][  1].d[ 34] =         0.112027757388;
  BAS[ATNO][  1].a[ 35] =        31.670000000000;     BAS[ATNO][  1].d[ 35] =         0.123199180298;
  BAS[ATNO][  1].a[ 36] =        12.890000000000;     BAS[ATNO][  1].d[ 36] =        -0.073415916025;
  BAS[ATNO][  1].a[ 37] =         5.929000000000;     BAS[ATNO][  1].d[ 37] =        -0.558506249557;
  BAS[ATNO][  1].a[ 38] =         2.678000000000;     BAS[ATNO][  1].d[ 38] =        -0.735848481545;
  BAS[ATNO][  1].a[ 39] =         0.941600000000;     BAS[ATNO][  1].d[ 39] =        -0.013084179877;
  BAS[ATNO][  1].a[ 40] =         0.423900000000;     BAS[ATNO][  1].d[ 40] =         0.006255789340;
  BAS[ATNO][  1].a[ 41] =         0.171400000000;     BAS[ATNO][  1].d[ 41] =        -0.001538824859;
  BAS[ATNO][  1].a[ 42] =        24.024000000000;     BAS[ATNO][  1].d[ 42] =         0.015821411077;
  BAS[ATNO][  1].a[ 43] =        12.706000000000;     BAS[ATNO][  1].d[ 43] =         0.109226449125;
  BAS[ATNO][  1].a[ 44] =         6.720000000000;     BAS[ATNO][  1].d[ 44] =         0.138558692338;

  // Basis function   3 L = s
  InitBFNGauss(BAS[ATNO][  2]);
  BAS[ATNO][  2].l  = 0;
  BAS[ATNO][  2].ng = 45;
  BAS[ATNO][  2].a[  0] =    950600.000000000000;     BAS[ATNO][  2].d[  0] =        -0.000004154876;
  BAS[ATNO][  2].a[  1] =    142300.000000000000;     BAS[ATNO][  2].d[  1] =        -0.000032309416;
  BAS[ATNO][  2].a[  2] =     32360.000000000000;     BAS[ATNO][  2].d[  2] =        -0.000170048192;
  BAS[ATNO][  2].a[  3] =      9145.000000000000;     BAS[ATNO][  2].d[  3] =        -0.000717345902;
  BAS[ATNO][  2].a[  4] =      2970.000000000000;     BAS[ATNO][  2].d[  4] =        -0.002594029127;
  BAS[ATNO][  2].a[  5] =      1064.000000000000;     BAS[ATNO][  2].d[  5] =        -0.008182373918;
  BAS[ATNO][  2].a[  6] =       410.800000000000;     BAS[ATNO][  2].d[  6] =        -0.022094275707;
  BAS[ATNO][  2].a[  7] =       168.000000000000;     BAS[ATNO][  2].d[  7] =        -0.047580633791;
  BAS[ATNO][  2].a[  8] =        71.990000000000;     BAS[ATNO][  2].d[  8] =        -0.069635468803;
  BAS[ATNO][  2].a[  9] =        31.670000000000;     BAS[ATNO][  2].d[  9] =        -0.050407034347;
  BAS[ATNO][  2].a[ 10] =        12.890000000000;     BAS[ATNO][  2].d[ 10] =        -0.009224356912;
  BAS[ATNO][  2].a[ 11] =         5.929000000000;     BAS[ATNO][  2].d[ 11] =         0.000657100241;
  BAS[ATNO][  2].a[ 12] =         2.678000000000;     BAS[ATNO][  2].d[ 12] =        -0.000399515982;
  BAS[ATNO][  2].a[ 13] =    950600.000000000000;     BAS[ATNO][  2].d[ 13] =         0.000018866602;
  BAS[ATNO][  2].a[ 14] =    142300.000000000000;     BAS[ATNO][  2].d[ 14] =         0.000146666082;
  BAS[ATNO][  2].a[ 15] =     32360.000000000000;     BAS[ATNO][  2].d[ 15] =         0.000773127787;
  BAS[ATNO][  2].a[ 16] =      9145.000000000000;     BAS[ATNO][  2].d[ 16] =         0.003266911893;
  BAS[ATNO][  2].a[ 17] =      2970.000000000000;     BAS[ATNO][  2].d[ 17] =         0.011920119040;
  BAS[ATNO][  2].a[ 18] =      1064.000000000000;     BAS[ATNO][  2].d[ 18] =         0.038310122074;
  BAS[ATNO][  2].a[ 19] =       410.800000000000;     BAS[ATNO][  2].d[ 19] =         0.108859594608;
  BAS[ATNO][  2].a[ 20] =       168.000000000000;     BAS[ATNO][  2].d[ 20] =         0.261221276453;
  BAS[ATNO][  2].a[ 21] =        71.990000000000;     BAS[ATNO][  2].d[ 21] =         0.490654284164;
  BAS[ATNO][  2].a[ 22] =        31.670000000000;     BAS[ATNO][  2].d[ 22] =         0.524346730873;
  BAS[ATNO][  2].a[ 23] =        12.890000000000;     BAS[ATNO][  2].d[ 23] =        -0.300583922534;
  BAS[ATNO][  2].a[ 24] =         5.929000000000;     BAS[ATNO][  2].d[ 24] =        -1.642667356320;
  BAS[ATNO][  2].a[ 25] =         2.678000000000;     BAS[ATNO][  2].d[ 25] =        -1.314866710370;
  BAS[ATNO][  2].a[ 26] =    950600.000000000000;     BAS[ATNO][  2].d[ 26] =        -0.000010764362;
  BAS[ATNO][  2].a[ 27] =    142300.000000000000;     BAS[ATNO][  2].d[ 27] =        -0.000083559383;
  BAS[ATNO][  2].a[ 28] =     32360.000000000000;     BAS[ATNO][  2].d[ 28] =        -0.000441429924;
  BAS[ATNO][  2].a[ 29] =      9145.000000000000;     BAS[ATNO][  2].d[ 29] =        -0.001860637437;
  BAS[ATNO][  2].a[ 30] =      2970.000000000000;     BAS[ATNO][  2].d[ 30] =        -0.006817677649;
  BAS[ATNO][  2].a[ 31] =      1064.000000000000;     BAS[ATNO][  2].d[ 31] =        -0.021861413767;
  BAS[ATNO][  2].a[ 32] =       410.800000000000;     BAS[ATNO][  2].d[ 32] =        -0.062749846264;
  BAS[ATNO][  2].a[ 33] =       168.000000000000;     BAS[ATNO][  2].d[ 33] =        -0.151225270265;
  BAS[ATNO][  2].a[ 34] =        71.990000000000;     BAS[ATNO][  2].d[ 34] =        -0.294283775015;
  BAS[ATNO][  2].a[ 35] =        31.670000000000;     BAS[ATNO][  2].d[ 35] =        -0.323629792311;
  BAS[ATNO][  2].a[ 36] =        12.890000000000;     BAS[ATNO][  2].d[ 36] =         0.192854997883;
  BAS[ATNO][  2].a[ 37] =         5.929000000000;     BAS[ATNO][  2].d[ 37] =         1.467130390901;
  BAS[ATNO][  2].a[ 38] =         2.678000000000;     BAS[ATNO][  2].d[ 38] =         1.932987627675;
  BAS[ATNO][  2].a[ 39] =         0.941600000000;     BAS[ATNO][  2].d[ 39] =         1.081410638271;
  BAS[ATNO][  2].a[ 40] =         0.423900000000;     BAS[ATNO][  2].d[ 40] =        -0.259435656454;
  BAS[ATNO][  2].a[ 41] =         0.171400000000;     BAS[ATNO][  2].d[ 41] =         0.061099704978;
  BAS[ATNO][  2].a[ 42] =        24.024000000000;     BAS[ATNO][  2].d[ 42] =        -0.074570594118;
  BAS[ATNO][  2].a[ 43] =        12.706000000000;     BAS[ATNO][  2].d[ 43] =         0.117170158462;
  BAS[ATNO][  2].a[ 44] =         6.720000000000;     BAS[ATNO][  2].d[ 44] =        -1.048366190628;

  // Basis function   4 L = s
  InitBFNGauss(BAS[ATNO][  3]);
  BAS[ATNO][  3].l  = 0;
  BAS[ATNO][  3].ng = 45;
  BAS[ATNO][  3].a[  0] =    950600.000000000000;     BAS[ATNO][  3].d[  0] =        -0.000005528442;
  BAS[ATNO][  3].a[  1] =    142300.000000000000;     BAS[ATNO][  3].d[  1] =        -0.000042990624;
  BAS[ATNO][  3].a[  2] =     32360.000000000000;     BAS[ATNO][  3].d[  2] =        -0.000226264628;
[...]
  BAS[ATNO][ 13].a[  1] =       447.800000000000;     BAS[ATNO][ 13].d[  1] =         0.004624764389;
  BAS[ATNO][ 13].a[  2] =       144.600000000000;     BAS[ATNO][ 13].d[  2] =         0.024286724396;
  BAS[ATNO][ 13].a[  3] =        54.460000000000;     BAS[ATNO][ 13].d[  3] =         0.090377893795;
  BAS[ATNO][ 13].a[  4] =        22.510000000000;     BAS[ATNO][ 13].d[  4] =         0.236159153592;
  BAS[ATNO][ 13].a[  5] =         9.774000000000;     BAS[ATNO][ 13].d[  5] =         0.407366109963;
  BAS[ATNO][ 13].a[  6] =         4.368000000000;     BAS[ATNO][ 13].d[  6] =         0.398596752972;
  BAS[ATNO][ 13].a[  7] =         1.959000000000;     BAS[ATNO][ 13].d[  7] =         0.140584909981;
  BAS[ATNO][ 13].a[  8] =      1890.000000000000;     BAS[ATNO][ 13].d[  8] =        -0.000661325094;
  BAS[ATNO][ 13].a[  9] =       447.800000000000;     BAS[ATNO][ 13].d[  9] =        -0.005661098628;
  BAS[ATNO][ 13].a[ 10] =       144.600000000000;     BAS[ATNO][ 13].d[ 10] =        -0.030124883656;
  BAS[ATNO][ 13].a[ 11] =        54.460000000000;     BAS[ATNO][ 13].d[ 11] =        -0.113732981118;
  BAS[ATNO][ 13].a[ 12] =        22.510000000000;     BAS[ATNO][ 13].d[ 12] =        -0.309194948327;
  BAS[ATNO][ 13].a[ 13] =         9.774000000000;     BAS[ATNO][ 13].d[ 13] =        -0.549793783092;
  BAS[ATNO][ 13].a[ 14] =         4.368000000000;     BAS[ATNO][ 13].d[ 14] =        -0.588879032891;
  BAS[ATNO][ 13].a[ 15] =         1.959000000000;     BAS[ATNO][ 13].d[ 15] =         0.309107795888;
  BAS[ATNO][ 13].a[ 16] =         0.826000000000;     BAS[ATNO][ 13].d[ 16] =        -1.657032376687;
  BAS[ATNO][ 13].a[ 17] =         0.329700000000;     BAS[ATNO][ 13].d[ 17] =         2.438584694054;
  BAS[ATNO][ 13].a[ 18] =         0.124200000000;     BAS[ATNO][ 13].d[ 18] =        -1.813856773404;
  BAS[ATNO][ 13].a[ 19] =        23.627000000000;     BAS[ATNO][ 13].d[ 19] =         0.018294032532;
  BAS[ATNO][ 13].a[ 20] =        10.654000000000;     BAS[ATNO][ 13].d[ 20] =        -0.039808819695;
  BAS[ATNO][ 13].a[ 21] =         4.804000000000;     BAS[ATNO][ 13].d[ 21] =         0.483952784452;

  // Basis function  15 L = p
  InitBFNGauss(BAS[ATNO][ 14]);
  BAS[ATNO][ 14].l  = 1;
  BAS[ATNO][ 14].ng = 22;
  BAS[ATNO][ 14].a[  0] =      1890.000000000000;     BAS[ATNO][ 14].d[  0] =        -0.006332020590;
  BAS[ATNO][ 14].a[  1] =       447.800000000000;     BAS[ATNO][ 14].d[  1] =        -0.054305335297;
  BAS[ATNO][ 14].a[  2] =       144.600000000000;     BAS[ATNO][ 14].d[  2] =        -0.285181816987;
  BAS[ATNO][ 14].a[  3] =        54.460000000000;     BAS[ATNO][ 14].d[  3] =        -1.061243646836;
  BAS[ATNO][ 14].a[  4] =        22.510000000000;     BAS[ATNO][ 14].d[  4] =        -2.773049811940;
  BAS[ATNO][ 14].a[  5] =         9.774000000000;     BAS[ATNO][ 14].d[  5] =        -4.783411938281;
  BAS[ATNO][ 14].a[  6] =         4.368000000000;     BAS[ATNO][ 14].d[  6] =        -4.680439585170;
  BAS[ATNO][ 14].a[  7] =         1.959000000000;     BAS[ATNO][ 14].d[  7] =        -1.650789106647;
  BAS[ATNO][ 14].a[  8] =      1890.000000000000;     BAS[ATNO][ 14].d[  8] =         0.005548202176;
  BAS[ATNO][ 14].a[  9] =       447.800000000000;     BAS[ATNO][ 14].d[  9] =         0.047493917940;
  BAS[ATNO][ 14].a[ 10] =       144.600000000000;     BAS[ATNO][ 14].d[ 10] =         0.252733408554;
  BAS[ATNO][ 14].a[ 11] =        54.460000000000;     BAS[ATNO][ 14].d[ 11] =         0.954165476997;
  BAS[ATNO][ 14].a[ 12] =        22.510000000000;     BAS[ATNO][ 14].d[ 12] =         2.593998174114;
  BAS[ATNO][ 14].a[ 13] =         9.774000000000;     BAS[ATNO][ 14].d[ 13] =         4.612507666101;
  BAS[ATNO][ 14].a[ 14] =         4.368000000000;     BAS[ATNO][ 14].d[ 14] =         4.940414273770;
  BAS[ATNO][ 14].a[ 15] =         1.959000000000;     BAS[ATNO][ 14].d[ 15] =        -2.593267006706;
  BAS[ATNO][ 14].a[ 16] =         0.826000000000;     BAS[ATNO][ 14].d[ 16] =         3.204676142793;
  BAS[ATNO][ 14].a[ 17] =         0.329700000000;     BAS[ATNO][ 14].d[ 17] =        -1.667653443381;
  BAS[ATNO][ 14].a[ 18] =         0.124200000000;     BAS[ATNO][ 14].d[ 18] =         0.547648241165;
  BAS[ATNO][ 14].a[ 19] =        23.627000000000;     BAS[ATNO][ 14].d[ 19] =         0.057728472972;
  BAS[ATNO][ 14].a[ 20] =        10.654000000000;     BAS[ATNO][ 14].d[ 20] =        -1.174943062537;
  BAS[ATNO][ 14].a[ 21] =         4.804000000000;     BAS[ATNO][ 14].d[ 21] =         3.389378268307;

  // Basis function  16 L = p
  InitBFNGauss(BAS[ATNO][ 15]);
  BAS[ATNO][ 15].l  = 1;
  BAS[ATNO][ 15].ng = 22;
  BAS[ATNO][ 15].a[  0] =      1890.000000000000;     BAS[ATNO][ 15].d[  0] =         0.002938674360;
  BAS[ATNO][ 15].a[  1] =       447.800000000000;     BAS[ATNO][ 15].d[  1] =         0.025202965491;
  BAS[ATNO][ 15].a[  2] =       144.600000000000;     BAS[ATNO][ 15].d[  2] =         0.132352142800;
  BAS[ATNO][ 15].a[  3] =        54.460000000000;     BAS[ATNO][ 15].d[  3] =         0.492520428461;
  BAS[ATNO][ 15].a[  4] =        22.510000000000;     BAS[ATNO][ 15].d[  4] =         1.286965237052;
  BAS[ATNO][ 15].a[  5] =         9.774000000000;     BAS[ATNO][ 15].d[  5] =         2.219969094158;
  BAS[ATNO][ 15].a[  6] =         4.368000000000;     BAS[ATNO][ 15].d[  6] =         2.172179891721;
  BAS[ATNO][ 15].a[  7] =         1.959000000000;     BAS[ATNO][ 15].d[  7] =         0.766126949762;
  BAS[ATNO][ 15].a[  8] =      1890.000000000000;     BAS[ATNO][ 15].d[  8] =        -0.003570992812;
  BAS[ATNO][ 15].a[  9] =       447.800000000000;     BAS[ATNO][ 15].d[  9] =        -0.030568539897;
  BAS[ATNO][ 15].a[ 10] =       144.600000000000;     BAS[ATNO][ 15].d[ 10] =        -0.162666960694;
  BAS[ATNO][ 15].a[ 11] =        54.460000000000;     BAS[ATNO][ 15].d[ 11] =        -0.614130118493;
  BAS[ATNO][ 15].a[ 12] =        22.510000000000;     BAS[ATNO][ 15].d[ 12] =        -1.669576655669;
  BAS[ATNO][ 15].a[ 13] =         9.774000000000;     BAS[ATNO][ 15].d[ 13] =        -2.968751173484;
  BAS[ATNO][ 15].a[ 14] =         4.368000000000;     BAS[ATNO][ 15].d[ 14] =        -3.179801907006;
  BAS[ATNO][ 15].a[ 15] =         1.959000000000;     BAS[ATNO][ 15].d[ 15] =         1.669106053936;
  BAS[ATNO][ 15].a[ 16] =         0.826000000000;     BAS[ATNO][ 15].d[ 16] =        -1.303876762471;
  BAS[ATNO][ 15].a[ 17] =         0.329700000000;     BAS[ATNO][ 15].d[ 17] =         0.563157132633;
  BAS[ATNO][ 15].a[ 18] =         0.124200000000;     BAS[ATNO][ 15].d[ 18] =        -0.166263701444;
  BAS[ATNO][ 15].a[ 19] =        23.627000000000;     BAS[ATNO][ 15].d[ 19] =        -1.784474367532;
  BAS[ATNO][ 15].a[ 20] =        10.654000000000;     BAS[ATNO][ 15].d[ 20] =         5.045649662341;
  BAS[ATNO][ 15].a[ 21] =         4.804000000000;     BAS[ATNO][ 15].d[ 21] =        -2.816161125840;

  // Basis function  17 L = p
  InitBFNGauss(BAS[ATNO][ 16]);
  BAS[ATNO][ 16].l  = 1;
  BAS[ATNO][ 16].ng = 22;
  BAS[ATNO][ 16].a[  0] =      1890.000000000000;     BAS[ATNO][ 16].d[  0] =        -0.006802210414;
  BAS[ATNO][ 16].a[  1] =       447.800000000000;     BAS[ATNO][ 16].d[  1] =        -0.058337826296;
  BAS[ATNO][ 16].a[  2] =       144.600000000000;     BAS[ATNO][ 16].d[  2] =        -0.306358246591;
  BAS[ATNO][ 16].a[  3] =        54.460000000000;     BAS[ATNO][ 16].d[  3] =        -1.140047238232;
  BAS[ATNO][ 16].a[  4] =        22.510000000000;     BAS[ATNO][ 16].d[  4] =        -2.978965093461;
  BAS[ATNO][ 16].a[  5] =         9.774000000000;     BAS[ATNO][ 16].d[  5] =        -5.138608448513;
  BAS[ATNO][ 16].a[  6] =         4.368000000000;     BAS[ATNO][ 16].d[  6] =        -5.027989791687;
  BAS[ATNO][ 16].a[  7] =         1.959000000000;     BAS[ATNO][ 16].d[  7] =        -1.773369920797;
  BAS[ATNO][ 16].a[  8] =      1890.000000000000;     BAS[ATNO][ 16].d[  8] =        -0.002554490839;
  BAS[ATNO][ 16].a[  9] =       447.800000000000;     BAS[ATNO][ 16].d[  9] =        -0.021867043493;
  BAS[ATNO][ 16].a[ 10] =       144.600000000000;     BAS[ATNO][ 16].d[ 10] =        -0.116362950806;
  BAS[ATNO][ 16].a[ 11] =        54.460000000000;     BAS[ATNO][ 16].d[ 11] =        -0.439314735221;
  BAS[ATNO][ 16].a[ 12] =        22.510000000000;     BAS[ATNO][ 16].d[ 12] =        -1.194322838647;
  BAS[ATNO][ 16].a[ 13] =         9.774000000000;     BAS[ATNO][ 16].d[ 13] =        -2.123680465172;
  BAS[ATNO][ 16].a[ 14] =         4.368000000000;     BAS[ATNO][ 16].d[ 14] =        -2.274654492212;
  BAS[ATNO][ 16].a[ 15] =         1.959000000000;     BAS[ATNO][ 16].d[ 15] =         1.193986196184;
  BAS[ATNO][ 16].a[ 16] =         0.826000000000;     BAS[ATNO][ 16].d[ 16] =         0.404587399158;
  BAS[ATNO][ 16].a[ 17] =         0.329700000000;     BAS[ATNO][ 16].d[ 17] =        -0.184001205876;
  BAS[ATNO][ 16].a[ 18] =         0.124200000000;     BAS[ATNO][ 16].d[ 18] =         0.055035817374;
  BAS[ATNO][ 16].a[ 19] =        23.627000000000;     BAS[ATNO][ 16].d[ 19] =         7.202578570011;
  BAS[ATNO][ 16].a[ 20] =        10.654000000000;     BAS[ATNO][ 16].d[ 20] =         3.333274720366;
  BAS[ATNO][ 16].a[ 21] =         4.804000000000;     BAS[ATNO][ 16].d[ 21] =        10.067013273667;

  // Basis function  18 L = d
  InitBFNGauss(BAS[ATNO][ 17]);
  BAS[ATNO][ 17].l  = 2;
  BAS[ATNO][ 17].ng = 6;
  BAS[ATNO][ 17].a[  0] =         0.311000000000;     BAS[ATNO][ 17].d[  0] =         0.030623279287;
  BAS[ATNO][ 17].a[  1] =         0.763000000000;     BAS[ATNO][ 17].d[  1] =        -0.072533190951;
  BAS[ATNO][ 17].a[  2] =         1.873000000000;     BAS[ATNO][ 17].d[  2] =         0.570540022762;
  BAS[ATNO][ 17].a[  3] =        37.364000000000;     BAS[ATNO][ 17].d[  3] =         0.031920565518;
  BAS[ATNO][ 17].a[  4] =        15.013000000000;     BAS[ATNO][ 17].d[  4] =         0.083223831058;
  BAS[ATNO][ 17].a[  5] =         6.032000000000;     BAS[ATNO][ 17].d[  5] =         0.533912518188;

  // Basis function  19 L = d
  InitBFNGauss(BAS[ATNO][ 18]);
  BAS[ATNO][ 18].l  = 2;
  BAS[ATNO][ 18].ng = 6;
  BAS[ATNO][ 18].a[  0] =         0.311000000000;     BAS[ATNO][ 18].d[  0] =        -0.028096881294;
  BAS[ATNO][ 18].a[  1] =         0.763000000000;     BAS[ATNO][ 18].d[  1] =         0.963927293926;
  BAS[ATNO][ 18].a[  2] =         1.873000000000;     BAS[ATNO][ 18].d[  2] =         0.026142660463;
  BAS[ATNO][ 18].a[  3] =        37.364000000000;     BAS[ATNO][ 18].d[  3] =        -0.025753001977;
  BAS[ATNO][ 18].a[  4] =        15.013000000000;     BAS[ATNO][ 18].d[  4] =        -0.068543812276;
  BAS[ATNO][ 18].a[  5] =         6.032000000000;     BAS[ATNO][ 18].d[  5] =        -0.459971879776;

  // Basis function  20 L = d
  InitBFNGauss(BAS[ATNO][ 19]);
  BAS[ATNO][ 19].l  = 2;
  BAS[ATNO][ 19].ng = 6;
  BAS[ATNO][ 19].a[  0] =         0.311000000000;     BAS[ATNO][ 19].d[  0] =         1.228699168904;
  BAS[ATNO][ 19].a[  1] =         0.763000000000;     BAS[ATNO][ 19].d[  1] =        -0.554949233414;
  BAS[ATNO][ 19].a[  2] =         1.873000000000;     BAS[ATNO][ 19].d[  2] =        -0.389434832660;
  BAS[ATNO][ 19].a[  3] =        37.364000000000;     BAS[ATNO][ 19].d[  3] =         0.020572640290;
  BAS[ATNO][ 19].a[  4] =        15.013000000000;     BAS[ATNO][ 19].d[  4] =         0.050438808685;
  BAS[ATNO][ 19].a[  5] =         6.032000000000;     BAS[ATNO][ 19].d[  5] =         0.376703662047;

  // Basis function  21 L = d
  InitBFNGauss(BAS[ATNO][ 20]);
  BAS[ATNO][ 20].l  = 2;
  BAS[ATNO][ 20].ng = 6;
  BAS[ATNO][ 20].a[  0] =         0.311000000000;     BAS[ATNO][ 20].d[  0] =        -1.051475526634;
  BAS[ATNO][ 20].a[  1] =         0.763000000000;     BAS[ATNO][ 20].d[  1] =         2.029535741572;
  BAS[ATNO][ 20].a[  2] =         1.873000000000;     BAS[ATNO][ 20].d[  2] =        -1.856485199918;
  BAS[ATNO][ 20].a[  3] =        37.364000000000;     BAS[ATNO][ 20].d[  3] =         0.043590941543;
  BAS[ATNO][ 20].a[  4] =        15.013000000000;     BAS[ATNO][ 20].d[  4] =         0.092414552338;
  BAS[ATNO][ 20].a[  5] =         6.032000000000;     BAS[ATNO][ 20].d[  5] =         0.814793710756;

  // Basis function  22 L = d
  InitBFNGauss(BAS[ATNO][ 21]);
  BAS[ATNO][ 21].l  = 2;
  BAS[ATNO][ 21].ng = 6;
  BAS[ATNO][ 21].a[  0] =         0.311000000000;     BAS[ATNO][ 21].d[  0] =        -0.228121529321;
  BAS[ATNO][ 21].a[  1] =         0.763000000000;     BAS[ATNO][ 21].d[  1] =         0.630673376222;
  BAS[ATNO][ 21].a[  2] =         1.873000000000;     BAS[ATNO][ 21].d[  2] =        -1.018095739353;
  BAS[ATNO][ 21].a[  3] =        37.364000000000;     BAS[ATNO][ 21].d[  3] =         0.047435090362;
  BAS[ATNO][ 21].a[  4] =        15.013000000000;     BAS[ATNO][ 21].d[  4] =        -1.578213169913;
  BAS[ATNO][ 21].a[  5] =         6.032000000000;     BAS[ATNO][ 21].d[  5] =         1.674726560291;

  // Basis function  23 L = d
  InitBFNGauss(BAS[ATNO][ 22]);
  BAS[ATNO][ 22].l  = 2;
  BAS[ATNO][ 22].ng = 6;
  BAS[ATNO][ 22].a[  0] =         0.311000000000;     BAS[ATNO][ 22].d[  0] =         0.088757842893;
  BAS[ATNO][ 22].a[  1] =         0.763000000000;     BAS[ATNO][ 22].d[  1] =        -0.250309606251;
  BAS[ATNO][ 22].a[  2] =         1.873000000000;     BAS[ATNO][ 22].d[  2] =         0.429788100562;
  BAS[ATNO][ 22].a[  3] =        37.364000000000;     BAS[ATNO][ 22].d[  3] =        -1.605987116720;
  BAS[ATNO][ 22].a[  4] =        15.013000000000;     BAS[ATNO][ 22].d[  4] =         1.738052845055;
  BAS[ATNO][ 22].a[  5] =         6.032000000000;     BAS[ATNO][ 22].d[  5] =        -0.944948075495;

  // Basis function  24 L = f
  InitBFNGauss(BAS[ATNO][ 23]);
  BAS[ATNO][ 23].l  = 3;
  BAS[ATNO][ 23].ng = 4;
  BAS[ATNO][ 23].a[  0] =         0.543000000000;     BAS[ATNO][ 23].d[  0] =         0.086881598965;
  BAS[ATNO][ 23].a[  1] =         1.325000000000;     BAS[ATNO][ 23].d[  1] =         0.906721810636;
  BAS[ATNO][ 23].a[  2] =        21.884000000000;     BAS[ATNO][ 23].d[  2] =        -0.011194057034;
  BAS[ATNO][ 23].a[  3] =         7.968000000000;     BAS[ATNO][ 23].d[  3] =         0.138692758078;

  // Basis function  25 L = f
  InitBFNGauss(BAS[ATNO][ 24]);
  BAS[ATNO][ 24].l  = 3;
  BAS[ATNO][ 24].ng = 4;
  BAS[ATNO][ 24].a[  0] =         0.543000000000;     BAS[ATNO][ 24].d[  0] =         1.282051552728;
  BAS[ATNO][ 24].a[  1] =         1.325000000000;     BAS[ATNO][ 24].d[  1] =        -0.838746707323;
  BAS[ATNO][ 24].a[  2] =        21.884000000000;     BAS[ATNO][ 24].d[  2] =         0.009825917052;
  BAS[ATNO][ 24].a[  3] =         7.968000000000;     BAS[ATNO][ 24].d[  3] =        -0.133101916159;

  // Basis function  26 L = f
  InitBFNGauss(BAS[ATNO][ 25]);
  BAS[ATNO][ 25].l  = 3;
  BAS[ATNO][ 25].ng = 4;
  BAS[ATNO][ 25].a[  0] =         0.543000000000;     BAS[ATNO][ 25].d[  0] =         0.315462482952;
  BAS[ATNO][ 25].a[  1] =         1.325000000000;     BAS[ATNO][ 25].d[  1] =        -0.545166868366;
  BAS[ATNO][ 25].a[  2] =        21.884000000000;     BAS[ATNO][ 25].d[  2] =        -0.054548393819;
  BAS[ATNO][ 25].a[  3] =         7.968000000000;     BAS[ATNO][ 25].d[  3] =         1.043226229779;

  // Basis function  27 L = f
  InitBFNGauss(BAS[ATNO][ 26]);
  BAS[ATNO][ 26].l  = 3;
  BAS[ATNO][ 26].ng = 4;
  BAS[ATNO][ 26].a[  0] =         0.543000000000;     BAS[ATNO][ 26].d[  0] =        -0.076948663156;
  BAS[ATNO][ 26].a[  1] =         1.325000000000;     BAS[ATNO][ 26].d[  1] =         0.152624561887;
  BAS[ATNO][ 26].a[  2] =        21.884000000000;     BAS[ATNO][ 26].d[  2] =         1.231288544462;
  BAS[ATNO][ 26].a[  3] =         7.968000000000;     BAS[ATNO][ 26].d[  3] =        -0.691539165415;

  // Basis function  28 L = g
  InitBFNGauss(BAS[ATNO][ 27]);
  BAS[ATNO][ 27].l  = 4;
  BAS[ATNO][ 27].ng = 2;
  BAS[ATNO][ 27].a[  0] =         1.007000000000;     BAS[ATNO][ 27].d[  0] =         0.999941254638;
  BAS[ATNO][ 27].a[  1] =        17.243000000000;     BAS[ATNO][ 27].d[  1] =         0.003830905378;

  // Basis function  29 L = g
  InitBFNGauss(BAS[ATNO][ 28]);
  BAS[ATNO][ 28].l  = 4;
  BAS[ATNO][ 28].ng = 2;
  BAS[ATNO][ 28].a[  0] =         1.007000000000;     BAS[ATNO][ 28].d[  0] =        -0.017251145236;
  BAS[ATNO][ 28].a[  1] =        17.243000000000;     BAS[ATNO][ 28].d[  1] =         1.000082716031;

-------
TIMINGS
-------

Total SCF time: 0 days 0 hours 0 min 2 sec 

Total time                  ....       2.557 sec
Sum of individual times     ....       2.313 sec  ( 90.4%)

Fock matrix formation       ....       1.774 sec  ( 69.4%)
  XC integration            ....       0.044 sec  (  2.5% of F)
    Basis function eval.    ....       0.008 sec  ( 18.1% of XC)
    Density eval.           ....       0.004 sec  (  8.2% of XC)
    XC-Functional eval.     ....       0.002 sec  (  4.2% of XC)
    XC-Potential eval.      ....       0.007 sec  ( 15.4% of XC)
Diagonalization             ....       0.008 sec  (  0.3%)
Density matrix formation    ....       0.002 sec  (  0.1%)
Population analysis         ....       0.001 sec  (  0.1%)
Initial guess               ....       0.092 sec  (  3.6%)
Orbital Transformation      ....       0.000 sec  (  0.0%)
Orbital Orthonormalization  ....       0.000 sec  (  0.0%)
DIIS solution               ....       0.001 sec  (  0.0%)
SOSCF solution              ....       0.002 sec  (  0.1%)
Grid generation             ....       0.432 sec  ( 16.9%)

-------------------------   --------------------
FINAL SINGLE POINT ENERGY      -311.537786796675
-------------------------   --------------------


                            ***************************************
                            *     ORCA property calculations      *
                            ***************************************

                                    ---------------------
                                    Active property flags
                                    ---------------------
   (+) Dipole Moment


------------------------------------------------------------------------------
                       ORCA ELECTRIC PROPERTIES CALCULATION
------------------------------------------------------------------------------

Dipole Moment Calculation                       ... on
Quadrupole Moment Calculation                   ... off
Polarizability Calculation                      ... off
GBWName                                         ... Ar_cc-pcvqz_4385.151648_.gbw
Electron density file                           ... Ar_cc-pcvqz_4385.151648_.scfp
The origin for moment calculation is the CENTER OF MASS  = ( 0.000000,  0.000000  0.000000)

-------------
DIPOLE MOMENT
-------------
                                X             Y             Z
Electronic contribution:     -0.00000      -0.00000       0.00000
Nuclear contribution   :      0.00000       0.00000       0.00000
                        -----------------------------------------
Total Dipole Moment    :     -0.00000      -0.00000       0.00000
                        -----------------------------------------
Magnitude (a.u.)       :      0.00000
Magnitude (Debye)      :      0.00000



--------------------
Rotational spectrum 
--------------------
 
Rotational constants in cm-1:     0.000000     0.000000     0.000000 
Rotational constants in MHz :     0.000000     0.000000     0.000000 

 Dipole components along the rotational axes: 
x,y,z [a.u.] :    -0.000000    -0.000000     0.000000 
x,y,z [Debye]:    -0.000000    -0.000000     0.000000 

 

Timings for individual modules:

Sum of individual times         ...        3.839 sec (=   0.064 min)
GTO integral calculation        ...        0.611 sec (=   0.010 min)  15.9 %
Relativistic integrals          ...        0.415 sec (=   0.007 min)  10.8 %
SCF iterations                  ...        2.813 sec (=   0.047 min)  73.3 %
                             ****ORCA TERMINATED NORMALLY****
TOTAL RUN TIME: 0 days 0 hours 0 minutes 4 seconds 165 msec
