
                                 *****************
                                 * O   R   C   A *
                                 *****************

           --- An Ab Initio, DFT and Semiempirical electronic structure package ---

                  #######################################################
                  #                        -***-                        #
                  #          Department of theory and spectroscopy      #
                  #               Directorship: Frank Neese             #
                  #        Max Planck Institute fuer Kohlenforschung    #
                  #                Kaiser Wilhelm Platz 1               #
                  #                 D-45470 Muelheim/Ruhr               #
                  #                      Germany                        #
                  #                                                     #
                  #                  All rights reserved                #
                  #                        -***-                        #
                  #######################################################


                         Program Version 4.2.1 -  RELEASE  -


 With contributions from (in alphabetic order):
   Daniel Aravena         : Magnetic Suceptibility
   Michael Atanasov       : Ab Initio Ligand Field Theory (pilot matlab implementation)
   Alexander A. Auer      : GIAO ZORA, VPT2
   Ute Becker             : Parallelization
   Giovanni Bistoni       : ED, misc. LED, open-shell LED, HFLD
   Martin Brehm           : Molecular dynamics
   Dmytro Bykov           : SCF Hessian
   Vijay G. Chilkuri      : MRCI spin determinant printing, contributions to CSF-ICE
   Dipayan Datta          : RHF DLPNO-CCSD density
   Achintya Kumar Dutta   : EOM-CC, STEOM-CC
   Dmitry Ganyushin       : Spin-Orbit,Spin-Spin,Magnetic field MRCI
   Miquel Garcia          : C-PCM Hessian, Gaussian charge scheme
   Yang Guo               : DLPNO-NEVPT2, CIM, IAO-localization
   Andreas Hansen         : Spin unrestricted coupled pair/coupled cluster methods
   Benjamin Helmich-Paris : CASSCF linear response (MC-RPA)
   Lee Huntington         : MR-EOM, pCC
   Robert Izsak           : Overlap fitted RIJCOSX, COSX-SCS-MP3, EOM
   Christian Kollmar      : KDIIS, OOCD, Brueckner-CCSD(T), CCSD density
   Simone Kossmann        : Meta GGA functionals, TD-DFT gradient, OOMP2, MP2 Hessian
   Martin Krupicka        : AUTO-CI
   Lucas Lang             : DCDCAS
   Dagmar Lenk            : GEPOL surface, SMD
   Dimitrios Liakos       : Extrapolation schemes; Compound Job, initial MDCI parallelization
   Dimitrios Manganas     : Further ROCIS development; embedding schemes
   Dimitrios Pantazis     : SARC Basis sets
   Taras Petrenko         : DFT Hessian,TD-DFT gradient, ASA, ECA, R-Raman, ABS, FL, XAS/XES, NRVS
   Peter Pinski           : DLPNO-MP2, DLPNO-MP2 Gradient
   Christoph Reimann      : Effective Core Potentials
   Marius Retegan         : Local ZFS, SOC
   Christoph Riplinger    : Optimizer, TS searches, QM/MM, DLPNO-CCSD(T), (RO)-DLPNO pert. Triples
   Tobias Risthaus        : Range-separated hybrids, TD-DFT gradient, RPA, STAB
   Michael Roemelt        : Original ROCIS implementation
   Masaaki Saitow         : Open-shell DLPNO-CCSD energy and density
   Barbara Sandhoefer     : DKH picture change effects
   Avijit Sen             : IP-ROCIS
   Kantharuban Sivalingam : CASSCF convergence, NEVPT2, FIC-MRCI
   Bernardo de Souza      : ESD, SOC TD-DFT
   Georgi Stoychev        : AutoAux, RI-MP2 NMR
   Willem Van den Heuvel  : Paramagnetic NMR
   Boris Wezisla          : Elementary symmetry handling
   Frank Wennmohs         : Technical directorship


 We gratefully acknowledge several colleagues who have allowed us to
 interface, adapt or use parts of their codes:
   Stefan Grimme, W. Hujo, H. Kruse,             : VdW corrections, initial TS optimization,
                  C. Bannwarth                     DFT functionals, gCP, sTDA/sTD-DF
   Ed Valeev, F. Pavosevic, A. Kumar             : LibInt (2-el integral package), F12 methods
   Garnet Chan, S. Sharma, J. Yang, R. Olivares  : DMRG
   Ulf Ekstrom                                   : XCFun DFT Library
   Mihaly Kallay                                 : mrcc  (arbitrary order and MRCC methods)
   Andreas Klamt, Michael Diedenhofen            : otool_cosmo (COSMO solvation model)
   Jiri Pittner, Ondrej Demel                    : Mk-CCSD
   Frank Weinhold                                : gennbo (NPA and NBO analysis)
   Christopher J. Cramer and Donald G. Truhlar   : smd solvation model
   Lars Goerigk                                  : TD-DFT with DH, B97 family of functionals
   V. Asgeirsson, H. Jonsson                     : NEB implementation
   FAccTs GmbH                                   : IRC, NEB, NEB-TS, Multilevel, MM, QM/MM, CI optimization
   S Lehtola, MJT Oliveira, MAL Marques          : LibXC Library


 Your calculation uses the libint2 library for the computation of 2-el integrals
 For citations please refer to: http://libint.valeyev.net

 Your ORCA version has been built with support for libXC version: 4.2.3
 For citations please refer to: https://tddft.org/programs/libxc/

 This ORCA versions uses:
   CBLAS   interface :  Fast vector & matrix operations
   LAPACKE interface :  Fast linear algebra routines
   SCALAPACK package :  Parallel linear algebra routines


----- Orbital basis set information -----
Your calculation utilizes the basis: cc-pCVDZ 
             H : cc-pVDZ. Obtained from the ccRepo (grant-hill.group.shef.ac.uk/ccrepo) Feb. 2017
                 T. H. Dunning, Jr., J. Chem. Phys. 90, 1007 (1989)
            He : cc-pVDZ. Obtained from the ccRepo (grant-hill.group.shef.ac.uk/ccrepo) Feb. 2017
                 D. E. Woon, T. H. Dunning, Jr., J. Chem. Phys. 100, 2975 (1994)
  Li-Be, Na-Mg : Obtained from the ccRepo (grant-hill.group.shef.ac.uk/ccrepo) Feb. 2017
                 B. P. Prascher, D. E. Woon, K. A. Peterson, T. H. Dunning, Jr., A. K. Wilson, Theor. Chem. Acc. 128, 69 (2011)
          B-Ne : Obtained from the ccRepo (grant-hill.group.shef.ac.uk/ccrepo) Feb. 2017
                 D. E. Woon, T. H. Dunning, Jr., J. Chem. Phys. 103, 4572 (1995)
                  K. A. Peterson, T. H. Dunning, Jr., J. Chem. Phys. 117, 10548 (2002)
         Al-Ar : Obtained from the EMSL Basis Set Exchange (bse.pnl.gov) Feb. 2017
                 K. A. Peterson, T. H. Dunning, Jr., J. Chem. Phys. 117, 10548 (2002)
            Ca : Obtained from the Peterson Research Group Website (tyr0.chem.wsu.edu/~kipeters) Feb. 2017
                 J. Koput, K. A. Peterson, J. Phys. Chem. 106, 9595 (2002)
         Ga-Kr : Obtained from the Peterson Research Group Website (tyr0.chem.wsu.edu/~kipeters) Feb. 2017
                 N. J. DeYonker, K. A. Peterson, A. K. Wilson, J. Phys. Chem. A 111, 11383 (2007)

================================================================================
                                        WARNINGS
                       Please study these warnings very carefully!
================================================================================


INFO   : the flag for use of LIBINT has been found!

================================================================================
                                       INPUT FILE
================================================================================
NAME = Ar_cc-pcvdz_548.143956_.inp
|  1> ! LDA cc-pcvdz nori grid5 finalgrid6 verytightscf
|  2> %Pal NProcs 18 End
|  3> 
|  4> % REL
|  5>   Method ZORA
|  6>   ModelPot 1, 0, 0, 0
|  7>   velit 548.143956
|  8> END
|  9> 
| 10> *xyz 16 1
| 11> Ar 0.0 0.0 0.0
| 12> **                         ****END OF INPUT****
================================================================================

                       ****************************
                       * Single Point Calculation *
                       ****************************

---------------------------------
CARTESIAN COORDINATES (ANGSTROEM)
---------------------------------
  Ar     0.000000    0.000000    0.000000

----------------------------
CARTESIAN COORDINATES (A.U.)
----------------------------
  NO LB      ZA    FRAG     MASS         X           Y           Z
   0 Ar   18.0000    0    39.948    0.000000    0.000000    0.000000

--------------------------------
INTERNAL COORDINATES (ANGSTROEM)
--------------------------------
 Ar     0   0   0     0.000000000000     0.00000000     0.00000000

---------------------------
INTERNAL COORDINATES (A.U.)
---------------------------
 Ar     0   0   0     0.000000000000     0.00000000     0.00000000

---------------------
BASIS SET INFORMATION
---------------------
There are 1 groups of distinct atoms

 Group   1 Type Ar  : 35s16p2d contracted to 5s4p2d pattern {11111111/7711/11}

Atom   0Ar   basis set group =>   1


           ************************************************************
           *        Program running with 18 parallel MPI-processes    *
           *              working on a common directory               *
           ************************************************************
------------------------------------------------------------------------------
                           ORCA GTO INTEGRAL CALCULATION
------------------------------------------------------------------------------

                         BASIS SET STATISTICS AND STARTUP INFO

 # of primitive gaussian shells          ...   53
 # of primitive gaussian functions       ...   93
 # of contracted shells                  ...   11
 # of contracted basis functions         ...   27
 Highest angular momentum                ...    2
 Maximum contraction depth               ...   11
 Integral package used                   ... LIBINT
 Integral threshhold            Thresh   ...  1.000e-12
 Primitive cut-off              TCut     ...  1.000e-14


------------------------------ INTEGRAL EVALUATION ----------------------------


 * One electron integrals 
 Pre-screening matrix                    ... done
 Shell pair data                         ... done (   0.000 sec)



           ************************************************************
           *        Program running with 18 parallel MPI-processes    *
           *              working on a common directory               *
           ************************************************************
------------------------------------------------------------------------------
                          ORCA RELATIVISTIC HAMILTONIAN
------------------------------------------------------------------------------

Relativistic Method            ... ZORA(MP)
Treatment of potential         ... Van Wuellen
Nucleus model                  ... Point Nucleus
Speed of light used            ... 548.14395600000000


            *************************************************
            *         ZERO ORDER REGULAR APPROXIMATION      *
            *                     ZORA(MP)                  *
            *            Programmed by FN according to      *
            *                   C. van Wuellen              *
            *       J. Chem. Phys. (1998) vol 109, 392-399  *
            *************************************************

Terms included in model potential: +V(e,N)
Basis function cutoff value   ... 1.000000e-12
Loading the fitted atomic densities  (DKH4)  ... done
Calculating the cutoffs                      ... done
Number of fit functions                      ... 15
Setting up the integration grid ... done


           ************************************************************
           *        Program running with 18 parallel MPI-processes    *
           *              working on a common directory               *
           ************************************************************
-------------------------------------------------------------------------------
                                 ORCA SCF
-------------------------------------------------------------------------------

------------
SCF SETTINGS
------------
Hamiltonian:
 Density Functional     Method          .... DFT(GTOs)
 Exchange Functional    Exchange        .... Slater
   X-Alpha parameter    XAlpha          ....  0.666667
 Correlation Functional Correlation     .... VWN-5
 Gradients option       PostSCFGGA      .... off
   Density functional embedding theory  .... OFF

Relativistic Settings:
 Scalar relativistic method             .... ZORA
 Speed of light used       Velit        ....       548.143956
Orbital energies will be scaled


General Settings:
 Integral files         IntName         .... Ar_cc-pcvdz_548.143956_
 Hartree-Fock type      HFTyp           .... RHF
 Total Charge           Charge          ....   16
 Multiplicity           Mult            ....    1
 Number of Electrons    NEL             ....    2
 Basis Dimension        Dim             ....   27
 Nuclear Repulsion      ENuc            ....      0.0000000000 Eh

Convergence Acceleration:
 DIIS                   CNVDIIS         .... on
   Start iteration      DIISMaxIt       ....    12
   Startup error        DIISStart       ....  0.200000
   # of expansion vecs  DIISMaxEq       ....     5
   Bias factor          DIISBfac        ....   1.050
   Max. coefficient     DIISMaxC        ....  10.000
 Newton-Raphson         CNVNR           .... off
 SOSCF                  CNVSOSCF        .... on
   Start iteration      SOSCFMaxIt      ....   150
   Startup grad/error   SOSCFStart      ....  0.003300
 Level Shifting         CNVShift        .... on
   Level shift para.    LevelShift      ....    0.2500
   Turn off err/grad.   ShiftErr        ....    0.0010
 Zerner damping         CNVZerner       .... off
 Static damping         CNVDamp         .... on
   Fraction old density DampFac         ....    0.7000
   Max. Damping (<1)    DampMax         ....    0.9800
   Min. Damping (>=0)   DampMin         ....    0.0000
   Turn off err/grad.   DampErr         ....    0.1000
 Fernandez-Rico         CNVRico         .... off

SCF Procedure:
 Maximum # iterations   MaxIter         ....   125
 SCF integral mode      SCFMode         .... Direct
   Integral package                     .... LIBINT
 Reset frequency        DirectResetFreq ....    20
 Integral Threshold     Thresh          ....  1.000e-12 Eh
 Primitive CutOff       TCut            ....  1.000e-14 Eh

Convergence Tolerance:
 Convergence Check Mode ConvCheckMode   .... Total+1el-Energy
 Convergence forced     ConvForced      .... 0
 Energy Change          TolE            ....  1.000e-09 Eh
 1-El. energy change                    ....  1.000e-06 Eh
 Orbital Gradient       TolG            ....  2.000e-06
 Orbital Rotation angle TolX            ....  2.000e-06
 DIIS Error             TolErr          ....  1.000e-08


Diagonalization of the overlap matrix:
Smallest eigenvalue                        ... 5.526e-02
Time for diagonalization                   ...    0.001 sec
Threshold for overlap eigenvalues          ... 1.000e-08
Number of eigenvalues below threshold      ... 0
Time for construction of square roots      ...    0.001 sec
Total time needed                          ...    0.002 sec

-------------------
DFT GRID GENERATION
-------------------

General Integration Accuracy     IntAcc      ...  5.010
Radial Grid Type                 RadialGrid  ... Gauss-Chebyshev
Angular Grid (max. acc.)         AngularGrid ... Lebedev-434
Angular grid pruning method      GridPruning ... 3 (G Style)
Weight generation scheme         WeightScheme... Becke
Basis function cutoff            BFCut       ...    1.0000e-12
Integration weight cutoff        WCut        ...    1.0000e-14
Grids for H and He will be reduced by one unit

# of grid points (after initial pruning)     ...  11992 (   0.0 sec)
# of grid points (after weights+screening)   ...  11992 (   0.0 sec)
Grid point division into batches done        ...    0.1 sec
Reduced shell lists constructed in    0.1 sec

Total number of grid points                  ...    11992
Total number of batches                      ...      188
Average number of points per batch           ...       63
Average number of grid points per atom       ...    11992
Average number of shells per batch           ...     0.00 ( 0.00%)
Average number of basis functions per batch  ...     0.00 ( 0.00%)
Average number of large shells per batch     ...     0.00 ( -nan%)
Average number of large basis fcns per batch ...     0.00 ( -nan%)
Maximum spatial batch extension              ...  18.71, 18.71, 18.71 au
Average spatial batch extension              ...   0.97,  0.98,  0.97 au

Time for grid setup =    0.149 sec

------------------------------
INITIAL GUESS: MODEL POTENTIAL
------------------------------
Loading ZORA relativistic densities                ... done
Calculating cut-offs                               ... done
Setting up the integral package                    ... done
Initializing the effective Hamiltonian             ... done
Starting the Coulomb interaction                   ... done (   0.0 sec)
Reading the grid                                   ... done
Mapping shells                                     ... done
Starting the XC term evaluation                    ... done (   0.0 sec)
  promolecular density results
     # of electrons  =     18.000000116
     EX              =    -28.047870263
     EC              =     -1.433252902
     EX+EC           =    -29.481123164
Transforming the Hamiltonian                       ... done (   0.0 sec)
Diagonalizing the Hamiltonian                      ... done (   0.0 sec)
Back transforming the eigenvectors                 ... done (   0.0 sec)
Now organizing SCF variables                       ... done
                      ------------------
                      INITIAL GUESS DONE (   0.2 sec)
                      ------------------
--------------
SCF ITERATIONS
--------------
ITER       Energy         Delta-E        Max-DP      RMS-DP      [F,P]     Damp
               ***  Starting incremental Fock matrix formation  ***
  0   -311.6660707731   0.000000000000 0.01519561  0.00076466  2.1872684 0.7000
  1   -311.6760108603  -0.009940087199 0.01055856  0.00053117  1.5208598 0.7000
  2   -311.6829020419  -0.006891181524 0.00731735  0.00036802  1.0565753 0.7000
                      *** Initiating the SOSCF procedure ***
                      *** Re-Reading the Fockian *** 
                      *** Removing any level shift *** 
ITER      Energy       Delta-E        Grad      Rot      Max-DP    RMS-DP
  3   -311.68769369  -0.0047916515  0.002972  0.002972  0.016903  0.000850
               *** Restarting incremental Fock matrix formation ***
  4   -311.69877338  -0.0110796893  0.006860  0.000051  0.000394  0.000020
  5   -311.69877472  -0.0000013413  0.000131  0.000001  0.000007  0.000000
                 **** Energy Check signals convergence ****
              ***Rediagonalizing the Fockian in SOSCF/NRSCF***

               *****************************************************
               *                     SUCCESS                       *
               *           SCF CONVERGED AFTER   6 CYCLES          *
               *****************************************************

Setting up the final grid:

General Integration Accuracy     IntAcc      ...  5.340
Radial Grid Type                 RadialGrid  ... Gauss-Chebyshev
Angular Grid (max. acc.)         AngularGrid ... Lebedev-590
Angular grid pruning method      GridPruning ... 3 (G Style)
Weight generation scheme         WeightScheme... Becke
Basis function cutoff            BFCut       ...    1.0000e-12
Integration weight cutoff        WCut        ...    1.0000e-14
Grids for H and He will be reduced by one unit

# of grid points (after initial pruning)     ...  18110 (   0.0 sec)
# of grid points (after weights+screening)   ...  18110 (   0.0 sec)
Grid point division into batches done        ...    0.2 sec
Reduced shell lists constructed in    0.2 sec

Total number of grid points                  ...    18110
Total number of batches                      ...      283
Average number of points per batch           ...       63
Average number of grid points per atom       ...    18110
Average number of shells per batch           ...     0.00 ( 0.00%)
Average number of basis functions per batch  ...     0.00 ( 0.00%)
Average number of large shells per batch     ...     0.00 ( -nan%)
Average number of large basis fcns per batch ...     0.00 ( -nan%)
Maximum spatial batch extension              ...  19.03, 19.03, 19.03 au
Average spatial batch extension              ...   0.84,  0.84,  0.80 au

Final grid set up in    0.2 sec
Final integration                            ... done (   0.0 sec)
Change in XC energy                          ...     0.000001200
Integrated number of electrons               ...     1.999999988
Previous integrated no of electrons          ...     2.000000069

----------------
TOTAL SCF ENERGY
----------------

Total Energy       :         -311.69877352 Eh           -8481.75483 eV

Components:
Nuclear Repulsion  :            0.00000000 Eh               0.00000 eV
Electronic Energy  :         -311.69877352 Eh           -8481.75483 eV
One Electron Energy:         -324.01847452 Eh           -8816.99094 eV
Two Electron Energy:           12.31970100 Eh             335.23611 eV

Virial components:
Potential Energy   :         -623.05440389 Eh          -16954.17226 eV
Kinetic Energy     :          311.35563037 Eh            8472.41743 eV
Virial Ratio       :            2.00110209


DFT components:
N(Alpha)           :        0.999999994067 electrons
N(Beta)            :        0.999999994067 electrons
N(Total)           :        1.999999988134 electrons
E(X)               :       -9.436417397399 Eh       
E(C)               :       -0.236919150052 Eh       
E(XC)              :       -9.673336547451 Eh       
DFET-embed. en.    :        0.000000000000 Eh       

---------------
SCF CONVERGENCE
---------------

  Last Energy change         ...   -4.9624e-10  Tolerance :   1.0000e-09
  Last MAX-Density change    ...    0.0000e+00  Tolerance :   1.0000e-08
  Last RMS-Density change    ...    0.0000e+00  Tolerance :   1.0000e-09
  Last Orbital Gradient      ...    8.4691e-10  Tolerance :   2.0000e-06
  Last Orbital Rotation      ...    0.0000e+00  Tolerance :   2.0000e-06

================================================================================
                                        WARNING
Number of found core electrons (2) does not match given number of chemical core electrons (10)
================================================================================
             **** THE GBW FILE WAS UPDATED (Ar_cc-pcvdz_548.143956_.gbw) ****
             **** DENSITY FILE WAS UPDATED (Ar_cc-pcvdz_548.143956_.scfp) ****
             **** ENERGY FILE WAS UPDATED (Ar_cc-pcvdz_548.143956_.en.tmp) ****
             **** THE GBW FILE WAS UPDATED (Ar_cc-pcvdz_548.143956_.gbw) ****
             **** DENSITY FILE WAS UPDATED (Ar_cc-pcvdz_548.143956_.scfp) ****
----------------
ORBITAL ENERGIES
----------------

  NO   OCC          E(Eh)            E(eV) 
   0   2.0000    -146.435156     -3984.7032 
   1   0.0000     -34.038271      -926.2284 
   2   0.0000     -33.214346      -903.8083 
   3   0.0000     -33.214346      -903.8083 
   4   0.0000     -33.214346      -903.8083 
   5   0.0000     -13.681631      -372.2961 
   6   0.0000     -13.524150      -368.0108 
   7   0.0000     -13.524150      -368.0108 
   8   0.0000     -13.524150      -368.0108 
   9   0.0000      -9.734148      -264.8796 
  10   0.0000      -9.734148      -264.8796 
  11   0.0000      -9.734148      -264.8796 
  12   0.0000      -9.734148      -264.8796 
  13   0.0000      -9.734148      -264.8796 
  14   0.0000      -7.101938      -193.2536 
  15   0.0000      -7.101938      -193.2536 
  16   0.0000      -7.101938      -193.2536 
  17   0.0000      -6.579240      -179.0302 
  18   0.0000      -5.535508      -150.6288 
  19   0.0000      -5.535508      -150.6288 
  20   0.0000      -5.535508      -150.6288 
  21   0.0000      -5.535508      -150.6288 
  22   0.0000      -5.535508      -150.6288 
  23   0.0000      -4.756093      -129.4199 
  24   0.0000      -4.756093      -129.4199 
  25   0.0000      -4.756092      -129.4198 
  26   0.0000       0.830051        22.5868 

                    ********************************
                    * MULLIKEN POPULATION ANALYSIS *
                    ********************************

-----------------------
MULLIKEN ATOMIC CHARGES
-----------------------
   0 Ar:   16.000000
Sum of atomic charges:   16.0000000

--------------------------------
MULLIKEN REDUCED ORBITAL CHARGES
--------------------------------
  0 Ars       :     2.000000  s :     2.000000
      pz      :     0.000000  p :     0.000000
      px      :     0.000000
      py      :     0.000000
      dz2     :     0.000000  d :     0.000000
      dxz     :     0.000000
      dyz     :     0.000000
      dx2y2   :     0.000000
      dxy     :     0.000000


                     *******************************
                     * LOEWDIN POPULATION ANALYSIS *
                     *******************************

----------------------
LOEWDIN ATOMIC CHARGES
----------------------
   0 Ar:   16.000000

-------------------------------
LOEWDIN REDUCED ORBITAL CHARGES
-------------------------------
  0 Ars       :     2.000000  s :     2.000000
      pz      :     0.000000  p :     0.000000
      px      :     0.000000
      py      :     0.000000
      dz2     :     0.000000  d :     0.000000
      dxz     :     0.000000
      dyz     :     0.000000
      dx2y2   :     0.000000
      dxy     :     0.000000


                      *****************************
                      * MAYER POPULATION ANALYSIS *
                      *****************************

  NA   - Mulliken gross atomic population
  ZA   - Total nuclear charge
  QA   - Mulliken gross atomic charge
  VA   - Mayer's total valence
  BVA  - Mayer's bonded valence
  FA   - Mayer's free valence

  ATOM       NA         ZA         QA         VA         BVA        FA
  0 Ar     2.0000    18.0000    16.0000    -0.0000     0.0000    -0.0000

  Mayer bond orders larger than 0.100000


--------------------------
ATOM BASIS FOR ELEMENT Ar
--------------------------
 NewGTO Ar
 S 35
    1     145700.000000000000         0.000238463759
    2      21840.000000000000         0.001848905127
    3       4972.000000000000         0.009599601901
    4       1408.000000000000         0.038916136903
    5        459.700000000000         0.125005583550
    6        165.900000000000         0.298680139270
    7         64.690000000000         0.425213019221
    8         26.440000000000         0.243512097787
    9          7.628000000000         0.020200308308
   10          2.996000000000        -0.003636899740
   11          0.650400000000         0.000982876688
   12     145700.000000000000        -0.000000135204
   13      21840.000000000000        -0.000001038751
   14       4972.000000000000        -0.000005505546
   15       1408.000000000000        -0.000022237937
   16        459.700000000000        -0.000077090661
   17        165.900000000000        -0.000199848152
   18         64.690000000000        -0.000406844449
   19         26.440000000000        -0.000271662343
   20          7.628000000000         0.001016059393
   21          2.996000000000         0.001227813307
   22          0.650400000000         0.000088739400
   23     145700.000000000000        -0.000000035889
   24      21840.000000000000        -0.000000277223
   25       4972.000000000000        -0.000001458825
   26       1408.000000000000        -0.000005964219
   27        459.700000000000        -0.000020490262
   28        165.900000000000        -0.000054803044
   29         64.690000000000        -0.000111745052
   30         26.440000000000        -0.000085157813
   31          7.628000000000         0.000391826213
   32          2.996000000000         0.000717943616
   33          0.650400000000        -0.001095370234
   34          0.233700000000         0.000028857206
   35          9.548000000000        -0.013471366111
 S 35
    1     145700.000000000000         0.000046022993
    2      21840.000000000000         0.000356834719
    3       4972.000000000000         0.001852702550
    4       1408.000000000000         0.007510730845
    5        459.700000000000         0.024125809159
    6        165.900000000000         0.057644625424
    7         64.690000000000         0.082065199509
    8         26.440000000000         0.046997311899
    9          7.628000000000         0.003898616121
   10          2.996000000000        -0.000701913839
   11          0.650400000000         0.000189693090
   12     145700.000000000000         0.000046369235
   13      21840.000000000000         0.000356247031
   14       4972.000000000000         0.001888166562
   15       1408.000000000000         0.007626660806
   16        459.700000000000         0.026438797655
   17        165.900000000000         0.068539364122
   18         64.690000000000         0.139530235905
   19         26.440000000000         0.093168558608
   20          7.628000000000        -0.348464892065
   21          2.996000000000        -0.421087422820
   22          0.650400000000        -0.030433816640
   23     145700.000000000000         0.000003229673
   24      21840.000000000000         0.000024947222
   25       4972.000000000000         0.000131279339
   26       1408.000000000000         0.000536718623
   27        459.700000000000         0.001843913791
   28        165.900000000000         0.004931712833
   29         64.690000000000         0.010055910525
   30         26.440000000000         0.007663331251
   31          7.628000000000        -0.035260347203
   32          2.996000000000        -0.064607574279
   33          0.650400000000         0.098572105372
   34          0.233700000000        -0.025405084190
   35          9.548000000000        -0.350933592656
 S 35
    1     145700.000000000000         0.000103458822
    2      21840.000000000000         0.000802157729
    3       4972.000000000000         0.004164840451
    4       1408.000000000000         0.016883981529
    5        459.700000000000         0.054234364755
    6        165.900000000000         0.129584032635
    7         64.690000000000         0.184481023392
    8         26.440000000000         0.105649072295
    9          7.628000000000         0.008764015637
   10          2.996000000000        -0.001577889095
   11          0.650400000000         0.000426426495
   12     145700.000000000000        -0.000077091458
   13      21840.000000000000        -0.000592280704
   14       4972.000000000000        -0.003139182992
   15       1408.000000000000        -0.012679752076
   16        459.700000000000        -0.043955986503
   17        165.900000000000        -0.113950543578
   18         64.690000000000        -0.231976856373
   19         26.440000000000        -0.154897963144
   20          7.628000000000         0.579342460747
   21          2.996000000000         0.700081498253
   22          0.650400000000         0.050597930017
   23     145700.000000000000         0.000044698796
   24      21840.000000000000         0.000345270519
   25       4972.000000000000         0.001816911108
   26       1408.000000000000         0.007428206426
   27        459.700000000000         0.025519837920
   28        165.900000000000         0.068255095647
   29         64.690000000000         0.139174189155
   30         26.440000000000         0.106060799809
   31          7.628000000000        -0.488004563979
   32          2.996000000000        -0.894171317552
   33          0.650400000000         1.364241736636
   34          0.233700000000        -0.339689333423
   35          9.548000000000        -0.652639770442
 S 35
    1     145700.000000000000        -0.000094990431
    2      21840.000000000000        -0.000736498898
    3       4972.000000000000        -0.003823936728
    4       1408.000000000000        -0.015501980889
    5        459.700000000000        -0.049795131827
    6        165.900000000000        -0.118977220749
    7         64.690000000000        -0.169380740805
    8         26.440000000000        -0.097001403188
    9          7.628000000000        -0.008046656690
   10          2.996000000000         0.001448734503
   11          0.650400000000        -0.000391522305
   12     145700.000000000000         0.000092503930
   13      21840.000000000000         0.000710692137
   14       4972.000000000000         0.003766782633
   15       1408.000000000000         0.015214745372
   16        459.700000000000         0.052743865830
   17        165.900000000000         0.136732050850
   18         64.690000000000         0.278354717105
   19         26.440000000000         0.185865863454
   20          7.628000000000        -0.695167221806
   21          2.996000000000        -0.840044952948
   22          0.650400000000        -0.060713696686
   23     145700.000000000000        -0.000044182029
   24      21840.000000000000        -0.000341278818
   25       4972.000000000000        -0.001795905645
   26       1408.000000000000        -0.007342328304
   27        459.700000000000        -0.025224800917
   28        165.900000000000        -0.067465992718
   29         64.690000000000        -0.137565184593
   30         26.440000000000        -0.104834621940
   31          7.628000000000         0.482362701973
   32          2.996000000000         0.883833727383
   33          0.650400000000        -1.348469622626
   34          0.233700000000         1.803958427080
   35          9.548000000000         0.464461704225
 S 35
    1     145700.000000000000         0.000377704296
    2      21840.000000000000         0.002928492837
    3       4972.000000000000         0.015204871788
    4       1408.000000000000         0.061639521953
    5        459.700000000000         0.197997155544
    6        165.900000000000         0.473081412153
    7         64.690000000000         0.673497662383
    8         26.440000000000         0.385700392999
    9          7.628000000000         0.031995399506
   10          2.996000000000        -0.005760509115
   11          0.650400000000         0.001556784769
   12     145700.000000000000        -0.000100839390
   13      21840.000000000000        -0.000774732069
   14       4972.000000000000        -0.004106204575
   15       1408.000000000000        -0.016585734604
   16        459.700000000000        -0.057496575804
   17        165.900000000000        -0.149052872837
   18         64.690000000000        -0.303437050746
   19         26.440000000000        -0.202614096242
   20          7.628000000000         0.757808215911
   21          2.996000000000         0.915740770149
   22          0.650400000000         0.066184562108
   23     145700.000000000000        -0.000060153459
   24      21840.000000000000        -0.000464648222
   25       4972.000000000000        -0.002445110336
   26       1408.000000000000        -0.009996517846
   27        459.700000000000        -0.034343352966
   28        165.900000000000        -0.091854378109
   29         64.690000000000        -0.187293834585
   30         26.440000000000        -0.142731450537
   31          7.628000000000         0.656732736417
   32          2.996000000000         1.203332139793
   33          0.650400000000        -1.835929978873
   34          0.233700000000         0.878449197844
   35          9.548000000000        -3.061618134326
 P 16
    1        453.700000000000         0.007724357941
    2        106.800000000000         0.058277065650
    3         33.730000000000         0.239074601592
    4         12.130000000000         0.550824275458
    5          4.594000000000         0.612675458409
    6          1.678000000000         0.166251961595
    7          0.590900000000        -0.006038037953
    8        453.700000000000         0.000239849085
    9        106.800000000000         0.001817123126
   10         33.730000000000         0.007775093542
   11         12.130000000000         0.018473254037
   12          4.594000000000         0.022635883396
   13          1.678000000000        -0.021263269727
   14          0.590900000000        -0.087262786861
   15          0.185200000000         0.033468089368
   16          4.361000000000        -0.430072747180
 P 16
    1        453.700000000000         0.004353581978
    2        106.800000000000         0.032845963988
    3         33.730000000000         0.134746587991
    4         12.130000000000         0.310454105983
    5          4.594000000000         0.345314504412
    6          1.678000000000         0.093702486264
    7          0.590900000000        -0.003403142813
    8        453.700000000000         0.001969996611
    9        106.800000000000         0.014924911614
   10         33.730000000000         0.063860605966
   11         12.130000000000         0.151729775406
   12          4.594000000000         0.185919464811
   13          1.678000000000        -0.174645524477
   14          0.590900000000        -0.716731498700
   15          0.185200000000         0.224723913554
   16          4.361000000000        -1.152404982384
 P 16
    1        453.700000000000         0.008429906025
    2        106.800000000000         0.063600132284
    3         33.730000000000         0.260911837575
    4         12.130000000000         0.601136937732
    5          4.594000000000         0.668637649611
    6          1.678000000000         0.181437528334
    7          0.590900000000        -0.006589556428
    8        453.700000000000        -0.001244708925
    9        106.800000000000        -0.009430052107
   10         33.730000000000        -0.040349240079
   11         12.130000000000        -0.095867883532
   12          4.594000000000        -0.117470058537
   13          1.678000000000         0.110346810671
   14          0.590900000000         0.452854633556
   15          0.185200000000         0.403936063799
   16          4.361000000000        -1.725395255984
 P 16
    1        453.700000000000         0.007183890275
    2        106.800000000000         0.054199462064
    3         33.730000000000         0.222346726881
    4         12.130000000000         0.512283504477
    5          4.594000000000         0.569807005473
    6          1.678000000000         0.154619433650
    7          0.590900000000        -0.005615560861
    8        453.700000000000        -0.002286196121
    9        106.800000000000        -0.017320473978
   10         33.730000000000        -0.074110721219
   11         12.130000000000        -0.176083563814
   12          4.594000000000        -0.215760959632
   13          1.678000000000         0.202677465723
   14          0.590900000000         0.831772381203
   15          0.185200000000        -1.224569324050
   16          4.361000000000        -1.255915066731
 D 2
    1          0.738000000000         0.894848101565
    2         11.459000000000         0.384371196154
 D 2
    1          0.738000000000        -0.452641617359
    2         11.459000000000         0.926226938827
 end
  // -----------------------------------------------
  // The basis set
  // -----------------------------------------------
  BAS[ATNO] = new BFNGauss[NSH];
  // Basis function   1 L = s
  InitBFNGauss(BAS[ATNO][  0]);
  BAS[ATNO][  0].l  = 0;
  BAS[ATNO][  0].ng = 35;
  BAS[ATNO][  0].a[  0] =    145700.000000000000;     BAS[ATNO][  0].d[  0] =         0.000238463759;
  BAS[ATNO][  0].a[  1] =     21840.000000000000;     BAS[ATNO][  0].d[  1] =         0.001848905127;
  BAS[ATNO][  0].a[  2] =      4972.000000000000;     BAS[ATNO][  0].d[  2] =         0.009599601901;
  BAS[ATNO][  0].a[  3] =      1408.000000000000;     BAS[ATNO][  0].d[  3] =         0.038916136903;
  BAS[ATNO][  0].a[  4] =       459.700000000000;     BAS[ATNO][  0].d[  4] =         0.125005583550;
  BAS[ATNO][  0].a[  5] =       165.900000000000;     BAS[ATNO][  0].d[  5] =         0.298680139270;
  BAS[ATNO][  0].a[  6] =        64.690000000000;     BAS[ATNO][  0].d[  6] =         0.425213019221;
  BAS[ATNO][  0].a[  7] =        26.440000000000;     BAS[ATNO][  0].d[  7] =         0.243512097787;
  BAS[ATNO][  0].a[  8] =         7.628000000000;     BAS[ATNO][  0].d[  8] =         0.020200308308;
  BAS[ATNO][  0].a[  9] =         2.996000000000;     BAS[ATNO][  0].d[  9] =        -0.003636899740;
  BAS[ATNO][  0].a[ 10] =         0.650400000000;     BAS[ATNO][  0].d[ 10] =         0.000982876688;
  BAS[ATNO][  0].a[ 11] =    145700.000000000000;     BAS[ATNO][  0].d[ 11] =        -0.000000135204;
  BAS[ATNO][  0].a[ 12] =     21840.000000000000;     BAS[ATNO][  0].d[ 12] =        -0.000001038751;
  BAS[ATNO][  0].a[ 13] =      4972.000000000000;     BAS[ATNO][  0].d[ 13] =        -0.000005505546;
  BAS[ATNO][  0].a[ 14] =      1408.000000000000;     BAS[ATNO][  0].d[ 14] =        -0.000022237937;
  BAS[ATNO][  0].a[ 15] =       459.700000000000;     BAS[ATNO][  0].d[ 15] =        -0.000077090661;
  BAS[ATNO][  0].a[ 16] =       165.900000000000;     BAS[ATNO][  0].d[ 16] =        -0.000199848152;
  BAS[ATNO][  0].a[ 17] =        64.690000000000;     BAS[ATNO][  0].d[ 17] =        -0.000406844449;
  BAS[ATNO][  0].a[ 18] =        26.440000000000;     BAS[ATNO][  0].d[ 18] =        -0.000271662343;
  BAS[ATNO][  0].a[ 19] =         7.628000000000;     BAS[ATNO][  0].d[ 19] =         0.001016059393;
  BAS[ATNO][  0].a[ 20] =         2.996000000000;     BAS[ATNO][  0].d[ 20] =         0.001227813307;
  BAS[ATNO][  0].a[ 21] =         0.650400000000;     BAS[ATNO][  0].d[ 21] =         0.000088739400;
  BAS[ATNO][  0].a[ 22] =    145700.000000000000;     BAS[ATNO][  0].d[ 22] =        -0.000000035889;
  BAS[ATNO][  0].a[ 23] =     21840.000000000000;     BAS[ATNO][  0].d[ 23] =        -0.000000277223;
  BAS[ATNO][  0].a[ 24] =      4972.000000000000;     BAS[ATNO][  0].d[ 24] =        -0.000001458825;
  BAS[ATNO][  0].a[ 25] =      1408.000000000000;     BAS[ATNO][  0].d[ 25] =        -0.000005964219;
  BAS[ATNO][  0].a[ 26] =       459.700000000000;     BAS[ATNO][  0].d[ 26] =        -0.000020490262;
  BAS[ATNO][  0].a[ 27] =       165.900000000000;     BAS[ATNO][  0].d[ 27] =        -0.000054803044;
  BAS[ATNO][  0].a[ 28] =        64.690000000000;     BAS[ATNO][  0].d[ 28] =        -0.000111745052;
  BAS[ATNO][  0].a[ 29] =        26.440000000000;     BAS[ATNO][  0].d[ 29] =        -0.000085157813;
  BAS[ATNO][  0].a[ 30] =         7.628000000000;     BAS[ATNO][  0].d[ 30] =         0.000391826213;
  BAS[ATNO][  0].a[ 31] =         2.996000000000;     BAS[ATNO][  0].d[ 31] =         0.000717943616;
  BAS[ATNO][  0].a[ 32] =         0.650400000000;     BAS[ATNO][  0].d[ 32] =        -0.001095370234;
  BAS[ATNO][  0].a[ 33] =         0.233700000000;     BAS[ATNO][  0].d[ 33] =         0.000028857206;
  BAS[ATNO][  0].a[ 34] =         9.548000000000;     BAS[ATNO][  0].d[ 34] =        -0.013471366111;

  // Basis function   2 L = s
  InitBFNGauss(BAS[ATNO][  1]);
  BAS[ATNO][  1].l  = 0;
  BAS[ATNO][  1].ng = 35;
  BAS[ATNO][  1].a[  0] =    145700.000000000000;     BAS[ATNO][  1].d[  0] =        -0.000046022993;
  BAS[ATNO][  1].a[  1] =     21840.000000000000;     BAS[ATNO][  1].d[  1] =        -0.000356834719;
  BAS[ATNO][  1].a[  2] =      4972.000000000000;     BAS[ATNO][  1].d[  2] =        -0.001852702550;
  BAS[ATNO][  1].a[  3] =      1408.000000000000;     BAS[ATNO][  1].d[  3] =        -0.007510730845;
  BAS[ATNO][  1].a[  4] =       459.700000000000;     BAS[ATNO][  1].d[  4] =        -0.024125809159;
  BAS[ATNO][  1].a[  5] =       165.900000000000;     BAS[ATNO][  1].d[  5] =        -0.057644625424;
  BAS[ATNO][  1].a[  6] =        64.690000000000;     BAS[ATNO][  1].d[  6] =        -0.082065199509;
  BAS[ATNO][  1].a[  7] =        26.440000000000;     BAS[ATNO][  1].d[  7] =        -0.046997311899;
  BAS[ATNO][  1].a[  8] =         7.628000000000;     BAS[ATNO][  1].d[  8] =        -0.003898616121;
  BAS[ATNO][  1].a[  9] =         2.996000000000;     BAS[ATNO][  1].d[  9] =         0.000701913839;
  BAS[ATNO][  1].a[ 10] =         0.650400000000;     BAS[ATNO][  1].d[ 10] =        -0.000189693090;
  BAS[ATNO][  1].a[ 11] =    145700.000000000000;     BAS[ATNO][  1].d[ 11] =        -0.000046369235;
  BAS[ATNO][  1].a[ 12] =     21840.000000000000;     BAS[ATNO][  1].d[ 12] =        -0.000356247031;
  BAS[ATNO][  1].a[ 13] =      4972.000000000000;     BAS[ATNO][  1].d[ 13] =        -0.001888166562;
  BAS[ATNO][  1].a[ 14] =      1408.000000000000;     BAS[ATNO][  1].d[ 14] =        -0.007626660806;
  BAS[ATNO][  1].a[ 15] =       459.700000000000;     BAS[ATNO][  1].d[ 15] =        -0.026438797655;
  BAS[ATNO][  1].a[ 16] =       165.900000000000;     BAS[ATNO][  1].d[ 16] =        -0.068539364122;
  BAS[ATNO][  1].a[ 17] =        64.690000000000;     BAS[ATNO][  1].d[ 17] =        -0.139530235905;
  BAS[ATNO][  1].a[ 18] =        26.440000000000;     BAS[ATNO][  1].d[ 18] =        -0.093168558608;
  BAS[ATNO][  1].a[ 19] =         7.628000000000;     BAS[ATNO][  1].d[ 19] =         0.348464892065;
  BAS[ATNO][  1].a[ 20] =         2.996000000000;     BAS[ATNO][  1].d[ 20] =         0.421087422820;
  BAS[ATNO][  1].a[ 21] =         0.650400000000;     BAS[ATNO][  1].d[ 21] =         0.030433816640;
  BAS[ATNO][  1].a[ 22] =    145700.000000000000;     BAS[ATNO][  1].d[ 22] =        -0.000003229673;
  BAS[ATNO][  1].a[ 23] =     21840.000000000000;     BAS[ATNO][  1].d[ 23] =        -0.000024947222;
  BAS[ATNO][  1].a[ 24] =      4972.000000000000;     BAS[ATNO][  1].d[ 24] =        -0.000131279339;
  BAS[ATNO][  1].a[ 25] =      1408.000000000000;     BAS[ATNO][  1].d[ 25] =        -0.000536718623;
  BAS[ATNO][  1].a[ 26] =       459.700000000000;     BAS[ATNO][  1].d[ 26] =        -0.001843913791;
  BAS[ATNO][  1].a[ 27] =       165.900000000000;     BAS[ATNO][  1].d[ 27] =        -0.004931712833;
  BAS[ATNO][  1].a[ 28] =        64.690000000000;     BAS[ATNO][  1].d[ 28] =        -0.010055910525;
  BAS[ATNO][  1].a[ 29] =        26.440000000000;     BAS[ATNO][  1].d[ 29] =        -0.007663331251;
  BAS[ATNO][  1].a[ 30] =         7.628000000000;     BAS[ATNO][  1].d[ 30] =         0.035260347203;
  BAS[ATNO][  1].a[ 31] =         2.996000000000;     BAS[ATNO][  1].d[ 31] =         0.064607574279;
  BAS[ATNO][  1].a[ 32] =         0.650400000000;     BAS[ATNO][  1].d[ 32] =        -0.098572105372;
  BAS[ATNO][  1].a[ 33] =         0.233700000000;     BAS[ATNO][  1].d[ 33] =         0.025405084190;
  BAS[ATNO][  1].a[ 34] =         9.548000000000;     BAS[ATNO][  1].d[ 34] =         0.350933592656;

  // Basis function   3 L = s
  InitBFNGauss(BAS[ATNO][  2]);
  BAS[ATNO][  2].l  = 0;
  BAS[ATNO][  2].ng = 35;
  BAS[ATNO][  2].a[  0] =    145700.000000000000;     BAS[ATNO][  2].d[  0] =         0.000103458822;
  BAS[ATNO][  2].a[  1] =     21840.000000000000;     BAS[ATNO][  2].d[  1] =         0.000802157729;
  BAS[ATNO][  2].a[  2] =      4972.000000000000;     BAS[ATNO][  2].d[  2] =         0.004164840451;
  BAS[ATNO][  2].a[  3] =      1408.000000000000;     BAS[ATNO][  2].d[  3] =         0.016883981529;
  BAS[ATNO][  2].a[  4] =       459.700000000000;     BAS[ATNO][  2].d[  4] =         0.054234364755;
  BAS[ATNO][  2].a[  5] =       165.900000000000;     BAS[ATNO][  2].d[  5] =         0.129584032635;
  BAS[ATNO][  2].a[  6] =        64.690000000000;     BAS[ATNO][  2].d[  6] =         0.184481023392;
  BAS[ATNO][  2].a[  7] =        26.440000000000;     BAS[ATNO][  2].d[  7] =         0.105649072295;
  BAS[ATNO][  2].a[  8] =         7.628000000000;     BAS[ATNO][  2].d[  8] =         0.008764015637;
  BAS[ATNO][  2].a[  9] =         2.996000000000;     BAS[ATNO][  2].d[  9] =        -0.001577889095;
  BAS[ATNO][  2].a[ 10] =         0.650400000000;     BAS[ATNO][  2].d[ 10] =         0.000426426495;
  BAS[ATNO][  2].a[ 11] =    145700.000000000000;     BAS[ATNO][  2].d[ 11] =        -0.000077091458;
  BAS[ATNO][  2].a[ 12] =     21840.000000000000;     BAS[ATNO][  2].d[ 12] =        -0.000592280704;
  BAS[ATNO][  2].a[ 13] =      4972.000000000000;     BAS[ATNO][  2].d[ 13] =        -0.003139182992;
  BAS[ATNO][  2].a[ 14] =      1408.000000000000;     BAS[ATNO][  2].d[ 14] =        -0.012679752076;
  BAS[ATNO][  2].a[ 15] =       459.700000000000;     BAS[ATNO][  2].d[ 15] =        -0.043955986503;
  BAS[ATNO][  2].a[ 16] =       165.900000000000;     BAS[ATNO][  2].d[ 16] =        -0.113950543578;
  BAS[ATNO][  2].a[ 17] =        64.690000000000;     BAS[ATNO][  2].d[ 17] =        -0.231976856373;
  BAS[ATNO][  2].a[ 18] =        26.440000000000;     BAS[ATNO][  2].d[ 18] =        -0.154897963144;
  BAS[ATNO][  2].a[ 19] =         7.628000000000;     BAS[ATNO][  2].d[ 19] =         0.579342460747;
  BAS[ATNO][  2].a[ 20] =         2.996000000000;     BAS[ATNO][  2].d[ 20] =         0.700081498253;
  BAS[ATNO][  2].a[ 21] =         0.650400000000;     BAS[ATNO][  2].d[ 21] =         0.050597930017;
  BAS[ATNO][  2].a[ 22] =    145700.000000000000;     BAS[ATNO][  2].d[ 22] =         0.000044698796;
  BAS[ATNO][  2].a[ 23] =     21840.000000000000;     BAS[ATNO][  2].d[ 23] =         0.000345270519;
  BAS[ATNO][  2].a[ 24] =      4972.000000000000;     BAS[ATNO][  2].d[ 24] =         0.001816911108;
  BAS[ATNO][  2].a[ 25] =      1408.000000000000;     BAS[ATNO][  2].d[ 25] =         0.007428206426;
  BAS[ATNO][  2].a[ 26] =       459.700000000000;     BAS[ATNO][  2].d[ 26] =         0.025519837920;
  BAS[ATNO][  2].a[ 27] =       165.900000000000;     BAS[ATNO][  2].d[ 27] =         0.068255095647;
  BAS[ATNO][  2].a[ 28] =        64.690000000000;     BAS[ATNO][  2].d[ 28] =         0.139174189155;
  BAS[ATNO][  2].a[ 29] =        26.440000000000;     BAS[ATNO][  2].d[ 29] =         0.106060799809;
  BAS[ATNO][  2].a[ 30] =         7.628000000000;     BAS[ATNO][  2].d[ 30] =        -0.488004563979;
  BAS[ATNO][  2].a[ 31] =         2.996000000000;     BAS[ATNO][  2].d[ 31] =        -0.894171317552;
  BAS[ATNO][  2].a[ 32] =         0.650400000000;     BAS[ATNO][  2].d[ 32] =         1.364241736636;
  BAS[ATNO][  2].a[ 33] =         0.233700000000;     BAS[ATNO][  2].d[ 33] =        -0.339689333423;
  BAS[ATNO][  2].a[ 34] =         9.548000000000;     BAS[ATNO][  2].d[ 34] =        -0.652639770442;

  // Basis function   4 L = s
  InitBFNGauss(BAS[ATNO][  3]);
  BAS[ATNO][  3].l  = 0;
  BAS[ATNO][  3].ng = 35;
  BAS[ATNO][  3].a[  0] =    145700.000000000000;     BAS[ATNO][  3].d[  0] =        -0.000094990431;
  BAS[ATNO][  3].a[  1] =     21840.000000000000;     BAS[ATNO][  3].d[  1] =        -0.000736498898;
  BAS[ATNO][  3].a[  2] =      4972.000000000000;     BAS[ATNO][  3].d[  2] =        -0.003823936728;
  BAS[ATNO][  3].a[  3] =      1408.000000000000;     BAS[ATNO][  3].d[  3] =        -0.015501980889;
  BAS[ATNO][  3].a[  4] =       459.700000000000;     BAS[ATNO][  3].d[  4] =        -0.049795131827;
  BAS[ATNO][  3].a[  5] =       165.900000000000;     BAS[ATNO][  3].d[  5] =        -0.118977220749;
  BAS[ATNO][  3].a[  6] =        64.690000000000;     BAS[ATNO][  3].d[  6] =        -0.169380740805;
  BAS[ATNO][  3].a[  7] =        26.440000000000;     BAS[ATNO][  3].d[  7] =        -0.097001403188;
  BAS[ATNO][  3].a[  8] =         7.628000000000;     BAS[ATNO][  3].d[  8] =        -0.008046656690;
  BAS[ATNO][  3].a[  9] =         2.996000000000;     BAS[ATNO][  3].d[  9] =         0.001448734503;
  BAS[ATNO][  3].a[ 10] =         0.650400000000;     BAS[ATNO][  3].d[ 10] =        -0.000391522305;
  BAS[ATNO][  3].a[ 11] =    145700.000000000000;     BAS[ATNO][  3].d[ 11] =         0.000092503930;
  BAS[ATNO][  3].a[ 12] =     21840.000000000000;     BAS[ATNO][  3].d[ 12] =         0.000710692137;
  BAS[ATNO][  3].a[ 13] =      4972.000000000000;     BAS[ATNO][  3].d[ 13] =         0.003766782633;
  BAS[ATNO][  3].a[ 14] =      1408.000000000000;     BAS[ATNO][  3].d[ 14] =         0.015214745372;
  BAS[ATNO][  3].a[ 15] =       459.700000000000;     BAS[ATNO][  3].d[ 15] =         0.052743865830;
  BAS[ATNO][  3].a[ 16] =       165.900000000000;     BAS[ATNO][  3].d[ 16] =         0.136732050850;
  BAS[ATNO][  3].a[ 17] =        64.690000000000;     BAS[ATNO][  3].d[ 17] =         0.278354717105;
  BAS[ATNO][  3].a[ 18] =        26.440000000000;     BAS[ATNO][  3].d[ 18] =         0.185865863454;
  BAS[ATNO][  3].a[ 19] =         7.628000000000;     BAS[ATNO][  3].d[ 19] =        -0.695167221806;
  BAS[ATNO][  3].a[ 20] =         2.996000000000;     BAS[ATNO][  3].d[ 20] =        -0.840044952948;
  BAS[ATNO][  3].a[ 21] =         0.650400000000;     BAS[ATNO][  3].d[ 21] =        -0.060713696686;
  BAS[ATNO][  3].a[ 22] =    145700.000000000000;     BAS[ATNO][  3].d[ 22] =        -0.000044182029;
  BAS[ATNO][  3].a[ 23] =     21840.000000000000;     BAS[ATNO][  3].d[ 23] =        -0.000341278818;
  BAS[ATNO][  3].a[ 24] =      4972.000000000000;     BAS[ATNO][  3].d[ 24] =        -0.001795905645;
  BAS[ATNO][  3].a[ 25] =      1408.000000000000;     BAS[ATNO][  3].d[ 25] =        -0.007342328304;
  BAS[ATNO][  3].a[ 26] =       459.700000000000;     BAS[ATNO][  3].d[ 26] =        -0.025224800917;
  BAS[ATNO][  3].a[ 27] =       165.900000000000;     BAS[ATNO][  3].d[ 27] =        -0.067465992718;
  BAS[ATNO][  3].a[ 28] =        64.690000000000;     BAS[ATNO][  3].d[ 28] =        -0.137565184593;
  BAS[ATNO][  3].a[ 29] =        26.440000000000;     BAS[ATNO][  3].d[ 29] =        -0.104834621940;
  BAS[ATNO][  3].a[ 30] =         7.628000000000;     BAS[ATNO][  3].d[ 30] =         0.482362701973;
  BAS[ATNO][  3].a[ 31] =         2.996000000000;     BAS[ATNO][  3].d[ 31] =         0.883833727383;
  BAS[ATNO][  3].a[ 32] =         0.650400000000;     BAS[ATNO][  3].d[ 32] =        -1.348469622626;
  BAS[ATNO][  3].a[ 33] =         0.233700000000;     BAS[ATNO][  3].d[ 33] =         1.803958427080;
  BAS[ATNO][  3].a[ 34] =         9.548000000000;     BAS[ATNO][  3].d[ 34] =         0.464461704225;

  // Basis function   5 L = s
  InitBFNGauss(BAS[ATNO][  4]);
  BAS[ATNO][  4].l  = 0;
  BAS[ATNO][  4].ng = 35;
  BAS[ATNO][  4].a[  0] =    145700.000000000000;     BAS[ATNO][  4].d[  0] =        -0.000377704296;
  BAS[ATNO][  4].a[  1] =     21840.000000000000;     BAS[ATNO][  4].d[  1] =        -0.002928492837;
  BAS[ATNO][  4].a[  2] =      4972.000000000000;     BAS[ATNO][  4].d[  2] =        -0.015204871788;
  BAS[ATNO][  4].a[  3] =      1408.000000000000;     BAS[ATNO][  4].d[  3] =        -0.061639521953;
  BAS[ATNO][  4].a[  4] =       459.700000000000;     BAS[ATNO][  4].d[  4] =        -0.197997155544;
  BAS[ATNO][  4].a[  5] =       165.900000000000;     BAS[ATNO][  4].d[  5] =        -0.473081412153;
  BAS[ATNO][  4].a[  6] =        64.690000000000;     BAS[ATNO][  4].d[  6] =        -0.673497662383;
  BAS[ATNO][  4].a[  7] =        26.440000000000;     BAS[ATNO][  4].d[  7] =        -0.385700392999;
  BAS[ATNO][  4].a[  8] =         7.628000000000;     BAS[ATNO][  4].d[  8] =        -0.031995399506;
  BAS[ATNO][  4].a[  9] =         2.996000000000;     BAS[ATNO][  4].d[  9] =         0.005760509115;
  BAS[ATNO][  4].a[ 10] =         0.650400000000;     BAS[ATNO][  4].d[ 10] =        -0.001556784769;
  BAS[ATNO][  4].a[ 11] =    145700.000000000000;     BAS[ATNO][  4].d[ 11] =         0.000100839390;
  BAS[ATNO][  4].a[ 12] =     21840.000000000000;     BAS[ATNO][  4].d[ 12] =         0.000774732069;
  BAS[ATNO][  4].a[ 13] =      4972.000000000000;     BAS[ATNO][  4].d[ 13] =         0.004106204575;
  BAS[ATNO][  4].a[ 14] =      1408.000000000000;     BAS[ATNO][  4].d[ 14] =         0.016585734604;
  BAS[ATNO][  4].a[ 15] =       459.700000000000;     BAS[ATNO][  4].d[ 15] =         0.057496575804;
  BAS[ATNO][  4].a[ 16] =       165.900000000000;     BAS[ATNO][  4].d[ 16] =         0.149052872837;
  BAS[ATNO][  4].a[ 17] =        64.690000000000;     BAS[ATNO][  4].d[ 17] =         0.303437050746;
  BAS[ATNO][  4].a[ 18] =        26.440000000000;     BAS[ATNO][  4].d[ 18] =         0.202614096242;
  BAS[ATNO][  4].a[ 19] =         7.628000000000;     BAS[ATNO][  4].d[ 19] =        -0.757808215911;
  BAS[ATNO][  4].a[ 20] =         2.996000000000;     BAS[ATNO][  4].d[ 20] =        -0.915740770149;
  BAS[ATNO][  4].a[ 21] =         0.650400000000;     BAS[ATNO][  4].d[ 21] =        -0.066184562108;
  BAS[ATNO][  4].a[ 22] =    145700.000000000000;     BAS[ATNO][  4].d[ 22] =         0.000060153459;
  BAS[ATNO][  4].a[ 23] =     21840.000000000000;     BAS[ATNO][  4].d[ 23] =         0.000464648222;
  BAS[ATNO][  4].a[ 24] =      4972.000000000000;     BAS[ATNO][  4].d[ 24] =         0.002445110336;
  BAS[ATNO][  4].a[ 25] =      1408.000000000000;     BAS[ATNO][  4].d[ 25] =         0.009996517846;
  BAS[ATNO][  4].a[ 26] =       459.700000000000;     BAS[ATNO][  4].d[ 26] =         0.034343352966;
  BAS[ATNO][  4].a[ 27] =       165.900000000000;     BAS[ATNO][  4].d[ 27] =         0.091854378109;
  BAS[ATNO][  4].a[ 28] =        64.690000000000;     BAS[ATNO][  4].d[ 28] =         0.187293834585;
  BAS[ATNO][  4].a[ 29] =        26.440000000000;     BAS[ATNO][  4].d[ 29] =         0.142731450537;
  BAS[ATNO][  4].a[ 30] =         7.628000000000;     BAS[ATNO][  4].d[ 30] =        -0.656732736417;
  BAS[ATNO][  4].a[ 31] =         2.996000000000;     BAS[ATNO][  4].d[ 31] =        -1.203332139793;
  BAS[ATNO][  4].a[ 32] =         0.650400000000;     BAS[ATNO][  4].d[ 32] =         1.835929978873;
  BAS[ATNO][  4].a[ 33] =         0.233700000000;     BAS[ATNO][  4].d[ 33] =        -0.878449197844;
  BAS[ATNO][  4].a[ 34] =         9.548000000000;     BAS[ATNO][  4].d[ 34] =         3.061618134326;

  // Basis function   6 L = p
  InitBFNGauss(BAS[ATNO][  5]);
  BAS[ATNO][  5].l  = 1;
  BAS[ATNO][  5].ng = 16;
  BAS[ATNO][  5].a[  0] =       453.700000000000;     BAS[ATNO][  5].d[  0] =         0.007724357941;
  BAS[ATNO][  5].a[  1] =       106.800000000000;     BAS[ATNO][  5].d[  1] =         0.058277065650;
  BAS[ATNO][  5].a[  2] =        33.730000000000;     BAS[ATNO][  5].d[  2] =         0.239074601592;
  BAS[ATNO][  5].a[  3] =        12.130000000000;     BAS[ATNO][  5].d[  3] =         0.550824275458;
  BAS[ATNO][  5].a[  4] =         4.594000000000;     BAS[ATNO][  5].d[  4] =         0.612675458409;
  BAS[ATNO][  5].a[  5] =         1.678000000000;     BAS[ATNO][  5].d[  5] =         0.166251961595;
  BAS[ATNO][  5].a[  6] =         0.590900000000;     BAS[ATNO][  5].d[  6] =        -0.006038037953;
  BAS[ATNO][  5].a[  7] =       453.700000000000;     BAS[ATNO][  5].d[  7] =         0.000239849085;
  BAS[ATNO][  5].a[  8] =       106.800000000000;     BAS[ATNO][  5].d[  8] =         0.001817123126;
  BAS[ATNO][  5].a[  9] =        33.730000000000;     BAS[ATNO][  5].d[  9] =         0.007775093542;
  BAS[ATNO][  5].a[ 10] =        12.130000000000;     BAS[ATNO][  5].d[ 10] =         0.018473254037;
  BAS[ATNO][  5].a[ 11] =         4.594000000000;     BAS[ATNO][  5].d[ 11] =         0.022635883396;
  BAS[ATNO][  5].a[ 12] =         1.678000000000;     BAS[ATNO][  5].d[ 12] =        -0.021263269727;
  BAS[ATNO][  5].a[ 13] =         0.590900000000;     BAS[ATNO][  5].d[ 13] =        -0.087262786861;
  BAS[ATNO][  5].a[ 14] =         0.185200000000;     BAS[ATNO][  5].d[ 14] =         0.033468089368;
  BAS[ATNO][  5].a[ 15] =         4.361000000000;     BAS[ATNO][  5].d[ 15] =        -0.430072747180;

  // Basis function   7 L = p
  InitBFNGauss(BAS[ATNO][  6]);
  BAS[ATNO][  6].l  = 1;
  BAS[ATNO][  6].ng = 16;
  BAS[ATNO][  6].a[  0] =       453.700000000000;     BAS[ATNO][  6].d[  0] =        -0.004353581978;
  BAS[ATNO][  6].a[  1] =       106.800000000000;     BAS[ATNO][  6].d[  1] =        -0.032845963988;
  BAS[ATNO][  6].a[  2] =        33.730000000000;     BAS[ATNO][  6].d[  2] =        -0.134746587991;
  BAS[ATNO][  6].a[  3] =        12.130000000000;     BAS[ATNO][  6].d[  3] =        -0.310454105983;
  BAS[ATNO][  6].a[  4] =         4.594000000000;     BAS[ATNO][  6].d[  4] =        -0.345314504412;
  BAS[ATNO][  6].a[  5] =         1.678000000000;     BAS[ATNO][  6].d[  5] =        -0.093702486264;
  BAS[ATNO][  6].a[  6] =         0.590900000000;     BAS[ATNO][  6].d[  6] =         0.003403142813;
  BAS[ATNO][  6].a[  7] =       453.700000000000;     BAS[ATNO][  6].d[  7] =        -0.001969996611;
  BAS[ATNO][  6].a[  8] =       106.800000000000;     BAS[ATNO][  6].d[  8] =        -0.014924911614;
  BAS[ATNO][  6].a[  9] =        33.730000000000;     BAS[ATNO][  6].d[  9] =        -0.063860605966;
  BAS[ATNO][  6].a[ 10] =        12.130000000000;     BAS[ATNO][  6].d[ 10] =        -0.151729775406;
  BAS[ATNO][  6].a[ 11] =         4.594000000000;     BAS[ATNO][  6].d[ 11] =        -0.185919464811;
  BAS[ATNO][  6].a[ 12] =         1.678000000000;     BAS[ATNO][  6].d[ 12] =         0.174645524477;
  BAS[ATNO][  6].a[ 13] =         0.590900000000;     BAS[ATNO][  6].d[ 13] =         0.716731498700;
  BAS[ATNO][  6].a[ 14] =         0.185200000000;     BAS[ATNO][  6].d[ 14] =        -0.224723913554;
  BAS[ATNO][  6].a[ 15] =         4.361000000000;     BAS[ATNO][  6].d[ 15] =         1.152404982384;

  // Basis function   8 L = p
  InitBFNGauss(BAS[ATNO][  7]);
  BAS[ATNO][  7].l  = 1;
  BAS[ATNO][  7].ng = 16;
  BAS[ATNO][  7].a[  0] =       453.700000000000;     BAS[ATNO][  7].d[  0] =        -0.008429906025;
  BAS[ATNO][  7].a[  1] =       106.800000000000;     BAS[ATNO][  7].d[  1] =        -0.063600132284;
  BAS[ATNO][  7].a[  2] =        33.730000000000;     BAS[ATNO][  7].d[  2] =        -0.260911837575;
  BAS[ATNO][  7].a[  3] =        12.130000000000;     BAS[ATNO][  7].d[  3] =        -0.601136937732;
  BAS[ATNO][  7].a[  4] =         4.594000000000;     BAS[ATNO][  7].d[  4] =        -0.668637649611;
  BAS[ATNO][  7].a[  5] =         1.678000000000;     BAS[ATNO][  7].d[  5] =        -0.181437528334;
  BAS[ATNO][  7].a[  6] =         0.590900000000;     BAS[ATNO][  7].d[  6] =         0.006589556428;
  BAS[ATNO][  7].a[  7] =       453.700000000000;     BAS[ATNO][  7].d[  7] =         0.001244708925;
  BAS[ATNO][  7].a[  8] =       106.800000000000;     BAS[ATNO][  7].d[  8] =         0.009430052107;
  BAS[ATNO][  7].a[  9] =        33.730000000000;     BAS[ATNO][  7].d[  9] =         0.040349240079;
  BAS[ATNO][  7].a[ 10] =        12.130000000000;     BAS[ATNO][  7].d[ 10] =         0.095867883532;
  BAS[ATNO][  7].a[ 11] =         4.594000000000;     BAS[ATNO][  7].d[ 11] =         0.117470058537;
  BAS[ATNO][  7].a[ 12] =         1.678000000000;     BAS[ATNO][  7].d[ 12] =        -0.110346810671;
  BAS[ATNO][  7].a[ 13] =         0.590900000000;     BAS[ATNO][  7].d[ 13] =        -0.452854633556;
  BAS[ATNO][  7].a[ 14] =         0.185200000000;     BAS[ATNO][  7].d[ 14] =        -0.403936063799;
  BAS[ATNO][  7].a[ 15] =         4.361000000000;     BAS[ATNO][  7].d[ 15] =         1.725395255984;

  // Basis function   9 L = p
  InitBFNGauss(BAS[ATNO][  8]);
  BAS[ATNO][  8].l  = 1;
  BAS[ATNO][  8].ng = 16;
  BAS[ATNO][  8].a[  0] =       453.700000000000;     BAS[ATNO][  8].d[  0] =        -0.007183890275;
  BAS[ATNO][  8].a[  1] =       106.800000000000;     BAS[ATNO][  8].d[  1] =        -0.054199462064;
  BAS[ATNO][  8].a[  2] =        33.730000000000;     BAS[ATNO][  8].d[  2] =        -0.222346726881;
  BAS[ATNO][  8].a[  3] =        12.130000000000;     BAS[ATNO][  8].d[  3] =        -0.512283504477;
  BAS[ATNO][  8].a[  4] =         4.594000000000;     BAS[ATNO][  8].d[  4] =        -0.569807005473;
  BAS[ATNO][  8].a[  5] =         1.678000000000;     BAS[ATNO][  8].d[  5] =        -0.154619433650;
  BAS[ATNO][  8].a[  6] =         0.590900000000;     BAS[ATNO][  8].d[  6] =         0.005615560861;
  BAS[ATNO][  8].a[  7] =       453.700000000000;     BAS[ATNO][  8].d[  7] =         0.002286196121;
  BAS[ATNO][  8].a[  8] =       106.800000000000;     BAS[ATNO][  8].d[  8] =         0.017320473978;
  BAS[ATNO][  8].a[  9] =        33.730000000000;     BAS[ATNO][  8].d[  9] =         0.074110721219;
  BAS[ATNO][  8].a[ 10] =        12.130000000000;     BAS[ATNO][  8].d[ 10] =         0.176083563814;
  BAS[ATNO][  8].a[ 11] =         4.594000000000;     BAS[ATNO][  8].d[ 11] =         0.215760959632;
  BAS[ATNO][  8].a[ 12] =         1.678000000000;     BAS[ATNO][  8].d[ 12] =        -0.202677465723;
  BAS[ATNO][  8].a[ 13] =         0.590900000000;     BAS[ATNO][  8].d[ 13] =        -0.831772381203;
  BAS[ATNO][  8].a[ 14] =         0.185200000000;     BAS[ATNO][  8].d[ 14] =         1.224569324050;
  BAS[ATNO][  8].a[ 15] =         4.361000000000;     BAS[ATNO][  8].d[ 15] =         1.255915066731;

  // Basis function  10 L = d
  InitBFNGauss(BAS[ATNO][  9]);
  BAS[ATNO][  9].l  = 2;
  BAS[ATNO][  9].ng = 2;
  BAS[ATNO][  9].a[  0] =         0.738000000000;     BAS[ATNO][  9].d[  0] =         0.894848101565;
  BAS[ATNO][  9].a[  1] =        11.459000000000;     BAS[ATNO][  9].d[  1] =         0.384371196154;

  // Basis function  11 L = d
  InitBFNGauss(BAS[ATNO][ 10]);
  BAS[ATNO][ 10].l  = 2;
  BAS[ATNO][ 10].ng = 2;
  BAS[ATNO][ 10].a[  0] =         0.738000000000;     BAS[ATNO][ 10].d[  0] =        -0.452641617359;
  BAS[ATNO][ 10].a[  1] =        11.459000000000;     BAS[ATNO][ 10].d[  1] =         0.926226938827;

-------
TIMINGS
-------

Total SCF time: 0 days 0 hours 0 min 1 sec 

Total time                  ....       1.620 sec
Sum of individual times     ....       1.431 sec  ( 88.3%)

Fock matrix formation       ....       0.976 sec  ( 60.3%)
  XC integration            ....       0.018 sec  (  1.9% of F)
    Basis function eval.    ....       0.004 sec  ( 22.4% of XC)
    Density eval.           ....       0.001 sec  (  5.0% of XC)
    XC-Functional eval.     ....       0.002 sec  (  8.3% of XC)
    XC-Potential eval.      ....       0.001 sec  (  3.0% of XC)
Diagonalization             ....       0.001 sec  (  0.0%)
Density matrix formation    ....       0.000 sec  (  0.0%)
Population analysis         ....       0.001 sec  (  0.0%)
Initial guess               ....       0.080 sec  (  5.0%)
Orbital Transformation      ....       0.000 sec  (  0.0%)
Orbital Orthonormalization  ....       0.000 sec  (  0.0%)
DIIS solution               ....       0.000 sec  (  0.0%)
SOSCF solution              ....       0.000 sec  (  0.0%)
Grid generation             ....       0.372 sec  ( 23.0%)

-------------------------   --------------------
FINAL SINGLE POINT ENERGY      -311.698773524816
-------------------------   --------------------


                            ***************************************
                            *     ORCA property calculations      *
                            ***************************************

                                    ---------------------
                                    Active property flags
                                    ---------------------
   (+) Dipole Moment


------------------------------------------------------------------------------
                       ORCA ELECTRIC PROPERTIES CALCULATION
------------------------------------------------------------------------------

Dipole Moment Calculation                       ... on
Quadrupole Moment Calculation                   ... off
Polarizability Calculation                      ... off
GBWName                                         ... Ar_cc-pcvdz_548.143956_.gbw
Electron density file                           ... Ar_cc-pcvdz_548.143956_.scfp
The origin for moment calculation is the CENTER OF MASS  = ( 0.000000,  0.000000  0.000000)

-------------
DIPOLE MOMENT
-------------
                                X             Y             Z
Electronic contribution:      0.00000      -0.00000      -0.00000
Nuclear contribution   :      0.00000       0.00000       0.00000
                        -----------------------------------------
Total Dipole Moment    :      0.00000      -0.00000      -0.00000
                        -----------------------------------------
Magnitude (a.u.)       :      0.00000
Magnitude (Debye)      :      0.00000



--------------------
Rotational spectrum 
--------------------
 
Rotational constants in cm-1:     0.000000     0.000000     0.000000 
Rotational constants in MHz :     0.000000     0.000000     0.000000 

 Dipole components along the rotational axes: 
x,y,z [a.u.] :     0.000000    -0.000000    -0.000000 
x,y,z [Debye]:     0.000000    -0.000000    -0.000000 

 

Timings for individual modules:

Sum of individual times         ...        2.772 sec (=   0.046 min)
GTO integral calculation        ...        0.547 sec (=   0.009 min)  19.7 %
Relativistic integrals          ...        0.357 sec (=   0.006 min)  12.9 %
SCF iterations                  ...        1.867 sec (=   0.031 min)  67.4 %
                             ****ORCA TERMINATED NORMALLY****
TOTAL RUN TIME: 0 days 0 hours 0 minutes 3 seconds 104 msec
