
                                 *****************
                                 * O   R   C   A *
                                 *****************

           --- An Ab Initio, DFT and Semiempirical electronic structure package ---

                  #######################################################
                  #                        -***-                        #
                  #          Department of theory and spectroscopy      #
                  #               Directorship: Frank Neese             #
                  #        Max Planck Institute fuer Kohlenforschung    #
                  #                Kaiser Wilhelm Platz 1               #
                  #                 D-45470 Muelheim/Ruhr               #
                  #                      Germany                        #
                  #                                                     #
                  #                  All rights reserved                #
                  #                        -***-                        #
                  #######################################################


                         Program Version 4.2.1 -  RELEASE  -


 With contributions from (in alphabetic order):
   Daniel Aravena         : Magnetic Suceptibility
   Michael Atanasov       : Ab Initio Ligand Field Theory (pilot matlab implementation)
   Alexander A. Auer      : GIAO ZORA, VPT2
   Ute Becker             : Parallelization
   Giovanni Bistoni       : ED, misc. LED, open-shell LED, HFLD
   Martin Brehm           : Molecular dynamics
   Dmytro Bykov           : SCF Hessian
   Vijay G. Chilkuri      : MRCI spin determinant printing, contributions to CSF-ICE
   Dipayan Datta          : RHF DLPNO-CCSD density
   Achintya Kumar Dutta   : EOM-CC, STEOM-CC
   Dmitry Ganyushin       : Spin-Orbit,Spin-Spin,Magnetic field MRCI
   Miquel Garcia          : C-PCM Hessian, Gaussian charge scheme
   Yang Guo               : DLPNO-NEVPT2, CIM, IAO-localization
   Andreas Hansen         : Spin unrestricted coupled pair/coupled cluster methods
   Benjamin Helmich-Paris : CASSCF linear response (MC-RPA)
   Lee Huntington         : MR-EOM, pCC
   Robert Izsak           : Overlap fitted RIJCOSX, COSX-SCS-MP3, EOM
   Christian Kollmar      : KDIIS, OOCD, Brueckner-CCSD(T), CCSD density
   Simone Kossmann        : Meta GGA functionals, TD-DFT gradient, OOMP2, MP2 Hessian
   Martin Krupicka        : AUTO-CI
   Lucas Lang             : DCDCAS
   Dagmar Lenk            : GEPOL surface, SMD
   Dimitrios Liakos       : Extrapolation schemes; Compound Job, initial MDCI parallelization
   Dimitrios Manganas     : Further ROCIS development; embedding schemes
   Dimitrios Pantazis     : SARC Basis sets
   Taras Petrenko         : DFT Hessian,TD-DFT gradient, ASA, ECA, R-Raman, ABS, FL, XAS/XES, NRVS
   Peter Pinski           : DLPNO-MP2, DLPNO-MP2 Gradient
   Christoph Reimann      : Effective Core Potentials
   Marius Retegan         : Local ZFS, SOC
   Christoph Riplinger    : Optimizer, TS searches, QM/MM, DLPNO-CCSD(T), (RO)-DLPNO pert. Triples
   Tobias Risthaus        : Range-separated hybrids, TD-DFT gradient, RPA, STAB
   Michael Roemelt        : Original ROCIS implementation
   Masaaki Saitow         : Open-shell DLPNO-CCSD energy and density
   Barbara Sandhoefer     : DKH picture change effects
   Avijit Sen             : IP-ROCIS
   Kantharuban Sivalingam : CASSCF convergence, NEVPT2, FIC-MRCI
   Bernardo de Souza      : ESD, SOC TD-DFT
   Georgi Stoychev        : AutoAux, RI-MP2 NMR
   Willem Van den Heuvel  : Paramagnetic NMR
   Boris Wezisla          : Elementary symmetry handling
   Frank Wennmohs         : Technical directorship


 We gratefully acknowledge several colleagues who have allowed us to
 interface, adapt or use parts of their codes:
   Stefan Grimme, W. Hujo, H. Kruse,             : VdW corrections, initial TS optimization,
                  C. Bannwarth                     DFT functionals, gCP, sTDA/sTD-DF
   Ed Valeev, F. Pavosevic, A. Kumar             : LibInt (2-el integral package), F12 methods
   Garnet Chan, S. Sharma, J. Yang, R. Olivares  : DMRG
   Ulf Ekstrom                                   : XCFun DFT Library
   Mihaly Kallay                                 : mrcc  (arbitrary order and MRCC methods)
   Andreas Klamt, Michael Diedenhofen            : otool_cosmo (COSMO solvation model)
   Jiri Pittner, Ondrej Demel                    : Mk-CCSD
   Frank Weinhold                                : gennbo (NPA and NBO analysis)
   Christopher J. Cramer and Donald G. Truhlar   : smd solvation model
   Lars Goerigk                                  : TD-DFT with DH, B97 family of functionals
   V. Asgeirsson, H. Jonsson                     : NEB implementation
   FAccTs GmbH                                   : IRC, NEB, NEB-TS, Multilevel, MM, QM/MM, CI optimization
   S Lehtola, MJT Oliveira, MAL Marques          : LibXC Library


 Your calculation uses the libint2 library for the computation of 2-el integrals
 For citations please refer to: http://libint.valeyev.net

 Your ORCA version has been built with support for libXC version: 4.2.3
 For citations please refer to: https://tddft.org/programs/libxc/

 This ORCA versions uses:
   CBLAS   interface :  Fast vector & matrix operations
   LAPACKE interface :  Fast linear algebra routines
   SCALAPACK package :  Parallel linear algebra routines


----- Orbital basis set information -----
Your calculation utilizes the basis: cc-pCV5Z 
             H : cc-pV5Z. Obtained from the ccRepo (grant-hill.group.shef.ac.uk/ccrepo) Feb. 2017
                 T. H. Dunning, Jr., J. Chem. Phys. 90, 1007 (1989)
            He : cc-pV5Z. Obtained from the ccRepo (grant-hill.group.shef.ac.uk/ccrepo) Feb. 2017
                 D. E. Woon, T. H. Dunning, Jr., J. Chem. Phys. 100, 2975 (1994)
  Li-Be, Na-Mg : Obtained from the ccRepo (grant-hill.group.shef.ac.uk/ccrepo) Feb. 2017
                 B. P. Prascher, D. E. Woon, K. A. Peterson, T. H. Dunning, Jr., A. K. Wilson, Theor. Chem. Acc. 128, 69 (2011)
          B-Ne : Obtained from the ccRepo (grant-hill.group.shef.ac.uk/ccrepo) Feb. 2017
                 D. E. Woon, T. H. Dunning, Jr., J. Chem. Phys. 103, 4572 (1995)
                  K. A. Peterson, T. H. Dunning, Jr., J. Chem. Phys. 117, 10548 (2002)
         Al-Ar : Obtained from the EMSL Basis Set Exchange (bse.pnl.gov) Feb. 2017
                 K. A. Peterson, T. H. Dunning, Jr., J. Chem. Phys. 117, 10548 (2002)
            Ca : Obtained from the Peterson Research Group Website (tyr0.chem.wsu.edu/~kipeters) Feb. 2017
                 J. Koput, K. A. Peterson, J. Phys. Chem. A 106, 9595 (2002)
         Ga-Kr : Obtained from the Peterson Research Group Website (tyr0.chem.wsu.edu/~kipeters) Feb. 2017
                 N. J. DeYonker, K. A. Peterson, A. K. Wilson, J. Phys. Chem. A 111, 11383 (2007)

================================================================================
                                        WARNINGS
                       Please study these warnings very carefully!
================================================================================


INFO   : the flag for use of LIBINT has been found!

================================================================================
                                       INPUT FILE
================================================================================
NAME = Ar_cc-pcv5z_68.5179945_.inp
|  1> ! LDA cc-pcv5z nori grid5 finalgrid6 verytightscf
|  2> %Pal NProcs 18 End
|  3> 
|  4> % REL
|  5>   Method ZORA
|  6>   ModelPot 1, 0, 0, 0
|  7>   velit 68.5179945
|  8> END
|  9> 
| 10> *xyz 16 1
| 11> Ar 0.0 0.0 0.0
| 12> **                         ****END OF INPUT****
================================================================================

                       ****************************
                       * Single Point Calculation *
                       ****************************

---------------------------------
CARTESIAN COORDINATES (ANGSTROEM)
---------------------------------
  Ar     0.000000    0.000000    0.000000

----------------------------
CARTESIAN COORDINATES (A.U.)
----------------------------
  NO LB      ZA    FRAG     MASS         X           Y           Z
   0 Ar   18.0000    0    39.948    0.000000    0.000000    0.000000

--------------------------------
INTERNAL COORDINATES (ANGSTROEM)
--------------------------------
 Ar     0   0   0     0.000000000000     0.00000000     0.00000000

---------------------------
INTERNAL COORDINATES (A.U.)
---------------------------
 Ar     0   0   0     0.000000000000     0.00000000     0.00000000

---------------------
BASIS SET INFORMATION
---------------------
There are 1 groups of distinct atoms

 Group   1 Type Ar  : 31s12p8d6f4g2h contracted to 11s10p8d6f4g2h pattern {1111111111111/3111111111/11111111/111111/1111/11}

Atom   0Ar   basis set group =>   1


           ************************************************************
           *        Program running with 18 parallel MPI-processes    *
           *              working on a common directory               *
           ************************************************************
------------------------------------------------------------------------------
                           ORCA GTO INTEGRAL CALCULATION
------------------------------------------------------------------------------

                         BASIS SET STATISTICS AND STARTUP INFO

 # of primitive gaussian shells          ...   63
 # of primitive gaussian functions       ...  207
 # of contracted shells                  ...   41
 # of contracted basis functions         ...  181
 Highest angular momentum                ...    5
 Maximum contraction depth               ...   11
 Integral package used                   ... LIBINT
 Integral threshhold            Thresh   ...  1.000e-12
 Primitive cut-off              TCut     ...  1.000e-14


------------------------------ INTEGRAL EVALUATION ----------------------------


 * One electron integrals 
 Pre-screening matrix                    ... done
 Shell pair data                         ... done (   0.000 sec)



           ************************************************************
           *        Program running with 18 parallel MPI-processes    *
           *              working on a common directory               *
           ************************************************************
------------------------------------------------------------------------------
                          ORCA RELATIVISTIC HAMILTONIAN
------------------------------------------------------------------------------

Relativistic Method            ... ZORA(MP)
Treatment of potential         ... Van Wuellen
Nucleus model                  ... Point Nucleus
Speed of light used            ...  68.51799450000000


            *************************************************
            *         ZERO ORDER REGULAR APPROXIMATION      *
            *                     ZORA(MP)                  *
            *            Programmed by FN according to      *
            *                   C. van Wuellen              *
            *       J. Chem. Phys. (1998) vol 109, 392-399  *
            *************************************************

Terms included in model potential: +V(e,N)
Basis function cutoff value   ... 1.000000e-12
Loading the fitted atomic densities  (DKH4)  ... done
Calculating the cutoffs                      ... done
Number of fit functions                      ... 15
Setting up the integration grid ... done


           ************************************************************
           *        Program running with 18 parallel MPI-processes    *
           *              working on a common directory               *
           ************************************************************
-------------------------------------------------------------------------------
                                 ORCA SCF
-------------------------------------------------------------------------------

------------
SCF SETTINGS
------------
Hamiltonian:
 Density Functional     Method          .... DFT(GTOs)
 Exchange Functional    Exchange        .... Slater
   X-Alpha parameter    XAlpha          ....  0.666667
 Correlation Functional Correlation     .... VWN-5
 Gradients option       PostSCFGGA      .... off
   Density functional embedding theory  .... OFF

Relativistic Settings:
 Scalar relativistic method             .... ZORA
 Speed of light used       Velit        ....       68.5179945
Orbital energies will be scaled


General Settings:
 Integral files         IntName         .... Ar_cc-pcv5z_68.5179945_
 Hartree-Fock type      HFTyp           .... RHF
 Total Charge           Charge          ....   16
 Multiplicity           Mult            ....    1
 Number of Electrons    NEL             ....    2
 Basis Dimension        Dim             ....  181
 Nuclear Repulsion      ENuc            ....      0.0000000000 Eh

Convergence Acceleration:
 DIIS                   CNVDIIS         .... on
   Start iteration      DIISMaxIt       ....    12
   Startup error        DIISStart       ....  0.200000
   # of expansion vecs  DIISMaxEq       ....     5
   Bias factor          DIISBfac        ....   1.050
   Max. coefficient     DIISMaxC        ....  10.000
 Newton-Raphson         CNVNR           .... off
 SOSCF                  CNVSOSCF        .... on
   Start iteration      SOSCFMaxIt      ....   150
   Startup grad/error   SOSCFStart      ....  0.003300
 Level Shifting         CNVShift        .... on
   Level shift para.    LevelShift      ....    0.2500
   Turn off err/grad.   ShiftErr        ....    0.0010
 Zerner damping         CNVZerner       .... off
 Static damping         CNVDamp         .... on
   Fraction old density DampFac         ....    0.7000
   Max. Damping (<1)    DampMax         ....    0.9800
   Min. Damping (>=0)   DampMin         ....    0.0000
   Turn off err/grad.   DampErr         ....    0.1000
 Fernandez-Rico         CNVRico         .... off

SCF Procedure:
 Maximum # iterations   MaxIter         ....   125
 SCF integral mode      SCFMode         .... Direct
   Integral package                     .... LIBINT
 Reset frequency        DirectResetFreq ....    20
 Integral Threshold     Thresh          ....  1.000e-12 Eh
 Primitive CutOff       TCut            ....  1.000e-14 Eh

Convergence Tolerance:
 Convergence Check Mode ConvCheckMode   .... Total+1el-Energy
 Convergence forced     ConvForced      .... 0
 Energy Change          TolE            ....  1.000e-09 Eh
 1-El. energy change                    ....  1.000e-06 Eh
 Orbital Gradient       TolG            ....  2.000e-06
 Orbital Rotation angle TolX            ....  2.000e-06
 DIIS Error             TolErr          ....  1.000e-08


Diagonalization of the overlap matrix:
Smallest eigenvalue                        ... 8.204e-05
Time for diagonalization                   ...    0.007 sec
Threshold for overlap eigenvalues          ... 1.000e-08
Number of eigenvalues below threshold      ... 0
Time for construction of square roots      ...    0.004 sec
Total time needed                          ...    0.011 sec

-------------------
DFT GRID GENERATION
-------------------

General Integration Accuracy     IntAcc      ...  5.010
Radial Grid Type                 RadialGrid  ... Gauss-Chebyshev
Angular Grid (max. acc.)         AngularGrid ... Lebedev-434
Angular grid pruning method      GridPruning ... 3 (G Style)
Weight generation scheme         WeightScheme... Becke
Basis function cutoff            BFCut       ...    1.0000e-12
Integration weight cutoff        WCut        ...    1.0000e-14
Grids for H and He will be reduced by one unit

# of grid points (after initial pruning)     ...  11992 (   0.0 sec)
# of grid points (after weights+screening)   ...  11992 (   0.0 sec)
Grid point division into batches done        ...    0.1 sec
Reduced shell lists constructed in    0.1 sec

Total number of grid points                  ...    11992
Total number of batches                      ...      188
Average number of points per batch           ...       63
Average number of grid points per atom       ...    11992
Average number of shells per batch           ...     0.42 ( 1.02%)
Average number of basis functions per batch  ...     1.25 ( 0.69%)
Average number of large shells per batch     ...     0.42 (100.00%)
Average number of large basis fcns per batch ...     1.25 (100.00%)
Maximum spatial batch extension              ...  18.71, 18.71, 18.71 au
Average spatial batch extension              ...   0.97,  0.98,  0.97 au

Time for grid setup =    0.155 sec

------------------------------
INITIAL GUESS: MODEL POTENTIAL
------------------------------
Loading ZORA relativistic densities                ... done
Calculating cut-offs                               ... done
Setting up the integral package                    ... done
Initializing the effective Hamiltonian             ... done
Starting the Coulomb interaction                   ... done (   0.0 sec)
Reading the grid                                   ... done
Mapping shells                                     ... done
Starting the XC term evaluation                    ... done (   0.0 sec)
  promolecular density results
     # of electrons  =     18.000000116
     EX              =    -28.047870263
     EC              =     -1.433252902
     EX+EC           =    -29.481123164
Transforming the Hamiltonian                       ... done (   0.0 sec)
Diagonalizing the Hamiltonian                      ... done (   0.0 sec)
Back transforming the eigenvectors                 ... done (   0.0 sec)
Now organizing SCF variables                       ... done
                      ------------------
                      INITIAL GUESS DONE (   0.2 sec)
                      ------------------
--------------
SCF ITERATIONS
--------------
ITER       Energy         Delta-E        Max-DP      RMS-DP      [F,P]     Damp
               ***  Starting incremental Fock matrix formation  ***
  0   -322.5137169836   0.000000000000 0.00721333  0.00006697  2.3142292 0.7000
  1   -322.5210871404  -0.007370156797 0.00503368  0.00004667  1.6034987 0.7000
  2   -322.5261882344  -0.005101094044 0.00350200  0.00003246  1.1101861 0.7000
  3   -322.5297313486  -0.003543114200 0.00243653  0.00002258  0.7686832 0.7000
                      *** Initiating the SOSCF procedure ***
                      *** Re-Reading the Fockian *** 
                      *** Removing any level shift *** 
ITER      Energy       Delta-E        Grad      Rot      Max-DP    RMS-DP
  4   -322.53219835  -0.0024670025  0.002700  0.002700  0.005651  0.000052
               *** Restarting incremental Fock matrix formation ***
  5   -322.53791381  -0.0057154590  0.006222  0.000032  0.000163  0.000002
  6   -322.53791467  -0.0000008587  0.000186  0.000001  0.000003  0.000000
                 **** Energy Check signals convergence ****
              ***Rediagonalizing the Fockian in SOSCF/NRSCF***

               *****************************************************
               *                     SUCCESS                       *
               *           SCF CONVERGED AFTER   7 CYCLES          *
               *****************************************************

Setting up the final grid:

General Integration Accuracy     IntAcc      ...  5.340
Radial Grid Type                 RadialGrid  ... Gauss-Chebyshev
Angular Grid (max. acc.)         AngularGrid ... Lebedev-590
Angular grid pruning method      GridPruning ... 3 (G Style)
Weight generation scheme         WeightScheme... Becke
Basis function cutoff            BFCut       ...    1.0000e-12
Integration weight cutoff        WCut        ...    1.0000e-14
Grids for H and He will be reduced by one unit

# of grid points (after initial pruning)     ...  18110 (   0.0 sec)
# of grid points (after weights+screening)   ...  18110 (   0.0 sec)
Grid point division into batches done        ...    0.2 sec
Reduced shell lists constructed in    0.2 sec

Total number of grid points                  ...    18110
Total number of batches                      ...      283
Average number of points per batch           ...       63
Average number of grid points per atom       ...    18110
Average number of shells per batch           ...     0.00 ( 0.00%)
Average number of basis functions per batch  ...     0.00 ( 0.00%)
Average number of large shells per batch     ...     0.00 ( -nan%)
Average number of large basis fcns per batch ...     0.00 ( -nan%)
Maximum spatial batch extension              ...  19.03, 19.03, 19.03 au
Average spatial batch extension              ...   0.84,  0.84,  0.80 au

Final grid set up in    0.3 sec
Final integration                            ... done (   0.0 sec)
Change in XC energy                          ...     0.000021032
Integrated number of electrons               ...     2.000000097
Previous integrated no of electrons          ...     2.000001752

----------------
TOTAL SCF ENERGY
----------------

Total Energy       :         -322.53789364 Eh           -8776.70228 eV

Components:
Nuclear Repulsion  :            0.00000000 Eh               0.00000 eV
Electronic Energy  :         -322.53789364 Eh           -8776.70228 eV
One Electron Energy:         -335.39214839 Eh           -9126.48434 eV
Two Electron Energy:           12.85425475 Eh             349.78205 eV

Virial components:
Potential Energy   :         -656.04100354 Eh          -17851.78327 eV
Kinetic Energy     :          333.50310990 Eh            9075.08099 eV
Virial Ratio       :            1.96712110


DFT components:
N(Alpha)           :        1.000000048368 electrons
N(Beta)            :        1.000000048368 electrons
N(Total)           :        2.000000096736 electrons
E(X)               :       -9.861705381540 Eh       
E(C)               :       -0.239235554348 Eh       
E(XC)              :      -10.100940935888 Eh       
DFET-embed. en.    :        0.000000000000 Eh       

---------------
SCF CONVERGENCE
---------------

  Last Energy change         ...   -8.0786e-10  Tolerance :   1.0000e-09
  Last MAX-Density change    ...    5.1387e-09  Tolerance :   1.0000e-08
  Last RMS-Density change    ...    4.2088e-11  Tolerance :   1.0000e-09
  Last Orbital Gradient      ...    1.7492e-08  Tolerance :   2.0000e-06
  Last Orbital Rotation      ...    3.5503e-11  Tolerance :   2.0000e-06

================================================================================
                                        WARNING
Number of found core electrons (2) does not match given number of chemical core electrons (10)
================================================================================
             **** THE GBW FILE WAS UPDATED (Ar_cc-pcv5z_68.5179945_.gbw) ****
             **** DENSITY FILE WAS UPDATED (Ar_cc-pcv5z_68.5179945_.scfp) ****
             **** ENERGY FILE WAS UPDATED (Ar_cc-pcv5z_68.5179945_.en.tmp) ****
             **** THE GBW FILE WAS UPDATED (Ar_cc-pcv5z_68.5179945_.gbw) ****
             **** DENSITY FILE WAS UPDATED (Ar_cc-pcv5z_68.5179945_.scfp) ****
----------------
ORBITAL ENERGIES
----------------

  NO   OCC          E(Eh)            E(eV) 
   0   2.0000    -151.444549     -4121.0157 
   1   0.0000     -34.987947      -952.0704 
   2   0.0000     -33.685410      -916.6266 
   3   0.0000     -33.685410      -916.6266 
   4   0.0000     -33.685410      -916.6266 
   5   0.0000     -15.077633      -410.2832 
   6   0.0000     -14.684440      -399.5839 
   7   0.0000     -14.684440      -399.5839 
   8   0.0000     -14.684440      -399.5839 
   9   0.0000     -14.389182      -391.5496 
  10   0.0000     -14.389182      -391.5496 
  11   0.0000     -14.389182      -391.5496 
  12   0.0000     -14.389182      -391.5496 
  13   0.0000     -14.389182      -391.5496 
  14   0.0000      -8.358231      -227.4390 
  15   0.0000      -8.192092      -222.9181 
  16   0.0000      -8.192092      -222.9181 
  17   0.0000      -8.192092      -222.9181 
  18   0.0000      -8.067988      -219.5411 
  19   0.0000      -8.067988      -219.5411 
  20   0.0000      -8.067988      -219.5411 
  21   0.0000      -8.067988      -219.5411 
  22   0.0000      -8.067988      -219.5411 
  23   0.0000      -7.975529      -217.0252 
  24   0.0000      -7.975529      -217.0252 
  25   0.0000      -7.975529      -217.0252 
  26   0.0000      -7.975529      -217.0252 
  27   0.0000      -7.975529      -217.0252 
  28   0.0000      -7.975529      -217.0252 
  29   0.0000      -7.975529      -217.0252 
  30   0.0000      -5.289707      -143.9402 
  31   0.0000      -5.194875      -141.3597 
  32   0.0000      -5.194875      -141.3597 
  33   0.0000      -5.194875      -141.3597 
  34   0.0000      -5.104624      -138.9039 
  35   0.0000      -5.104624      -138.9039 
  36   0.0000      -5.104624      -138.9039 
  37   0.0000      -5.104624      -138.9039 
  38   0.0000      -5.104624      -138.9039 
  39   0.0000      -5.104624      -138.9039 
  40   0.0000      -5.104624      -138.9039 
  41   0.0000      -5.104624      -138.9039 
  42   0.0000      -5.104624      -138.9039 
  43   0.0000      -5.102637      -138.8498 
  44   0.0000      -5.102637      -138.8498 
  45   0.0000      -5.102637      -138.8498 
  46   0.0000      -5.102637      -138.8498 
  47   0.0000      -5.102637      -138.8498 
  48   0.0000      -5.095022      -138.6426 
  49   0.0000      -5.095022      -138.6426 
  50   0.0000      -5.095022      -138.6426 
  51   0.0000      -5.095022      -138.6426 
  52   0.0000      -5.095022      -138.6426 
  53   0.0000      -5.095022      -138.6426 
  54   0.0000      -5.095022      -138.6426 
  55   0.0000      -3.650384       -99.3320 
  56   0.0000      -3.467871       -94.3656 
  57   0.0000      -3.467871       -94.3656 
  58   0.0000      -3.467871       -94.3656 
  59   0.0000      -3.194057       -86.9147 
  60   0.0000      -3.194057       -86.9147 
  61   0.0000      -3.194057       -86.9147 
  62   0.0000      -3.194057       -86.9147 
  63   0.0000      -3.194057       -86.9147 
  64   0.0000      -3.194057       -86.9147 
  65   0.0000      -3.194057       -86.9147 
  66   0.0000      -2.646663       -72.0194 
  67   0.0000      -2.646663       -72.0194 
  68   0.0000      -2.646663       -72.0194 
  69   0.0000      -2.646663       -72.0194 
  70   0.0000      -2.646663       -72.0194 
  71   0.0000      -2.646663       -72.0194 
  72   0.0000      -2.646663       -72.0194 
  73   0.0000      -2.646663       -72.0194 
  74   0.0000      -2.646663       -72.0194 
  75   0.0000      -2.558363       -69.6166 
  76   0.0000      -2.558363       -69.6166 
  77   0.0000      -2.558363       -69.6166 
  78   0.0000      -2.558363       -69.6166 
  79   0.0000      -2.558363       -69.6166 
  80   0.0000      -2.403771       -65.4099 
  81   0.0000      -2.403771       -65.4099 
  82   0.0000      -2.403771       -65.4099 
  83   0.0000      -2.403771       -65.4099 
  84   0.0000      -2.403771       -65.4099 
  85   0.0000      -2.403771       -65.4099 
  86   0.0000      -2.403771       -65.4099 
  87   0.0000      -2.403771       -65.4099 
  88   0.0000      -2.403771       -65.4099 
  89   0.0000      -2.403771       -65.4099 
  90   0.0000      -2.403771       -65.4099 
  91   0.0000      -1.668881       -45.4126 
  92   0.0000      -1.668881       -45.4126 
  93   0.0000      -1.668881       -45.4126 
  94   0.0000       2.310514        62.8723 
  95   0.0000       4.108189       111.7895 
  96   0.0000       4.108189       111.7895 
  97   0.0000       4.108189       111.7895 
  98   0.0000       4.108189       111.7895 
  99   0.0000       4.108189       111.7895 
 100   0.0000       4.108189       111.7895 
 101   0.0000       4.108189       111.7895 
 102   0.0000      11.092112       301.8317 
 103   0.0000      11.092112       301.8317 
 104   0.0000      11.092112       301.8317 
 105   0.0000      11.092112       301.8317 
 106   0.0000      11.092112       301.8317 
 107   0.0000      14.181232       385.8909 
 108   0.0000      14.181232       385.8909 
 109   0.0000      14.181232       385.8909 
 110   0.0000      22.960096       624.7760 
 111   0.0000      22.960096       624.7760 
 112   0.0000      22.960096       624.7760 
 113   0.0000      22.960096       624.7760 
 114   0.0000      22.960096       624.7760 
 115   0.0000      22.960096       624.7760 
 116   0.0000      22.960096       624.7760 
 117   0.0000      22.960096       624.7760 
 118   0.0000      22.960096       624.7760 
 119   0.0000      27.869094       758.3566 
 120   0.0000      38.276527      1041.5572 
 121   0.0000      38.276527      1041.5572 
 122   0.0000      38.276527      1041.5572 
 123   0.0000      38.276527      1041.5572 
 124   0.0000      38.276527      1041.5572 
 125   0.0000      38.276527      1041.5572 
 126   0.0000      38.276527      1041.5572 
 127   0.0000      48.312704      1314.6555 
 128   0.0000      48.312704      1314.6555 
 129   0.0000      48.312704      1314.6555 
 130   0.0000      48.312704      1314.6555 
 131   0.0000      48.312704      1314.6555 
 132   0.0000      66.793357      1817.5396 
 133   0.0000      66.793357      1817.5396 
 134   0.0000      66.793357      1817.5396 
 135   0.0000      92.823342      2525.8515 
 136   0.0000      92.823342      2525.8515 
 137   0.0000      92.823342      2525.8515 
 138   0.0000      92.823342      2525.8515 
 139   0.0000      92.823342      2525.8515 
 140   0.0000      92.823342      2525.8515 
 141   0.0000      92.823342      2525.8515 
 142   0.0000      92.823342      2525.8515 
 143   0.0000      92.823342      2525.8515 
 144   0.0000      92.823342      2525.8515 
 145   0.0000      92.823342      2525.8515 
 146   0.0000     102.582678      2791.4166 
 147   0.0000     110.467807      3005.9818 
 148   0.0000     110.467807      3005.9818 
 149   0.0000     110.467807      3005.9818 
 150   0.0000     110.467807      3005.9818 
 151   0.0000     110.467807      3005.9818 
 152   0.0000     110.467807      3005.9818 
 153   0.0000     110.467807      3005.9818 
 154   0.0000     110.467807      3005.9818 
 155   0.0000     110.467807      3005.9818 
 156   0.0000     134.794925      3667.9564 
 157   0.0000     134.794925      3667.9564 
 158   0.0000     134.794925      3667.9564 
 159   0.0000     134.794925      3667.9564 
 160   0.0000     134.794925      3667.9564 
 161   0.0000     135.720742      3693.1491 
 162   0.0000     135.720742      3693.1491 
 163   0.0000     135.720742      3693.1491 
 164   0.0000     135.720742      3693.1491 
 165   0.0000     135.720742      3693.1491 
 166   0.0000     135.720742      3693.1491 
 167   0.0000     135.720742      3693.1491 
 168   0.0000     219.243812      5965.9274 
 169   0.0000     219.243812      5965.9274 
 170   0.0000     219.243812      5965.9274 
 171   0.0000     320.582496      8723.4932 
 172   0.0000     327.366413      8908.0930 
 173   0.0000     327.366413      8908.0930 
 174   0.0000     327.366413      8908.0930 
 175   0.0000     327.366413      8908.0930 
 176   0.0000     327.366413      8908.0930 
 177   0.0000     744.682002     20263.8275 
 178   0.0000     744.682002     20263.8275 
 179   0.0000     744.682002     20263.8275 
 180   0.0000    1366.448380     37182.9508 

                    ********************************
                    * MULLIKEN POPULATION ANALYSIS *
                    ********************************

-----------------------
MULLIKEN ATOMIC CHARGES
-----------------------
   0 Ar:   16.000000
Sum of atomic charges:   16.0000000

--------------------------------
MULLIKEN REDUCED ORBITAL CHARGES
--------------------------------
  0 Ars       :     2.000000  s :     2.000000
      pz      :     0.000000  p :     0.000000
      px      :     0.000000
      py      :     0.000000
      dz2     :     0.000000  d :     0.000000
      dxz     :     0.000000
      dyz     :     0.000000
      dx2y2   :     0.000000
      dxy     :     0.000000
      f0      :     0.000000  f :     0.000000
      f+1     :     0.000000
      f-1     :     0.000000
      f+2     :     0.000000
      f-2     :     0.000000
      f+3     :     0.000000
      f-3     :     0.000000
      g0      :     0.000000  g :     0.000000
      g+1     :     0.000000
      g-1     :     0.000000
      g+2     :     0.000000
      g-2     :     0.000000
      g+3     :     0.000000
      g-3     :     0.000000
      g+4     :     0.000000
      g-4     :     0.000000
      h0      :     0.000000  h :     0.000000
      h+1     :     0.000000
      h-1     :     0.000000
      h+2     :     0.000000
      h-2     :     0.000000
      h+3     :     0.000000
      h-3     :     0.000000
      h+4     :     0.000000
      h-4     :     0.000000
      h+5     :     0.000000
      h-5     :     0.000000


                     *******************************
                     * LOEWDIN POPULATION ANALYSIS *
                     *******************************

----------------------
LOEWDIN ATOMIC CHARGES
----------------------
   0 Ar:   16.000000

-------------------------------
LOEWDIN REDUCED ORBITAL CHARGES
-------------------------------
  0 Ars       :     2.000000  s :     2.000000
      pz      :     0.000000  p :     0.000000
      px      :     0.000000
      py      :     0.000000
      dz2     :     0.000000  d :     0.000000
      dxz     :     0.000000
      dyz     :     0.000000
      dx2y2   :     0.000000
      dxy     :     0.000000
      f0      :     0.000000  f :     0.000000
      f+1     :     0.000000
      f-1     :     0.000000
      f+2     :     0.000000
      f-2     :     0.000000
      f+3     :     0.000000
      f-3     :     0.000000
      g0      :     0.000000  g :     0.000000
      g+1     :     0.000000
      g-1     :     0.000000
      g+2     :     0.000000
      g-2     :     0.000000
      g+3     :     0.000000
      g-3     :     0.000000
      g+4     :     0.000000
      g-4     :     0.000000
      h0      :     0.000000  h :     0.000000
      h+1     :     0.000000
      h-1     :     0.000000
      h+2     :     0.000000
      h-2     :     0.000000
      h+3     :     0.000000
      h-3     :     0.000000
      h+4     :     0.000000
      h-4     :     0.000000
      h+5     :     0.000000
      h-5     :     0.000000


                      *****************************
                      * MAYER POPULATION ANALYSIS *
                      *****************************

  NA   - Mulliken gross atomic population
  ZA   - Total nuclear charge
  QA   - Mulliken gross atomic charge
  VA   - Mayer's total valence
  BVA  - Mayer's bonded valence
  FA   - Mayer's free valence

  ATOM       NA         ZA         QA         VA         BVA        FA
  0 Ar     2.0000    18.0000    16.0000    -0.0000     0.0000    -0.0000

  Mayer bond orders larger than 0.100000


--------------------------
ATOM BASIS FOR ELEMENT Ar
--------------------------
 NewGTO Ar
 S 31
    1    7401000.000000000000         0.000004375845
    2    1108000.000000000000         0.000033061940
    3     252100.000000000000         0.000174061391
    4      71380.000000000000         0.000736600579
    5      23260.000000000000         0.002688956768
    6       8390.000000000000         0.008767977917
    7       3271.000000000000         0.026044057178
    8       1357.000000000000         0.070759358872
    9        592.000000000000         0.174207495593
   10        269.100000000000         0.374719411144
   11        126.500000000000         0.657390734267
   12    7401000.000000000000        -0.000002061775
   13    1108000.000000000000        -0.000016081841
   14     252100.000000000000        -0.000083708046
   15      71380.000000000000        -0.000355037572
   16      23260.000000000000        -0.001296443818
   17       8390.000000000000        -0.004240657833
   18       3271.000000000000        -0.012670429135
   19       1357.000000000000        -0.034948315179
   20        592.000000000000        -0.088739187697
   21        269.100000000000        -0.203906613546
   22        126.500000000000        -0.407307267625
   23         61.030000000000         0.387974987084
   24         29.860000000000         0.139606898975
   25         14.170000000000         0.097261886981
   26          7.022000000000        -0.055977230467
   27          3.511000000000         0.040047699396
   28          1.758000000000        -0.022808663028
   29          0.784100000000         0.010458305879
   30          0.348000000000        -0.004351091992
   31          0.149100000000         0.001105610869
 S 31
    1    7401000.000000000000         0.000000787511
    2    1108000.000000000000         0.000005950085
    3     252100.000000000000         0.000031325448
    4      71380.000000000000         0.000132564395
    5      23260.000000000000         0.000483925666
    6       8390.000000000000         0.001577953801
    7       3271.000000000000         0.004687091986
    8       1357.000000000000         0.012734406994
    9        592.000000000000         0.031351741815
   10        269.100000000000         0.067437432536
   11        126.500000000000         0.118309172072
   12    7401000.000000000000        -0.000000005134
   13    1108000.000000000000        -0.000000040046
   14     252100.000000000000        -0.000000208443
   15      71380.000000000000        -0.000000884086
   16      23260.000000000000        -0.000003228300
   17       8390.000000000000        -0.000010559744
   18       3271.000000000000        -0.000031550882
   19       1357.000000000000        -0.000087025478
   20        592.000000000000        -0.000220971174
   21        269.100000000000        -0.000507751817
   22        126.500000000000        -0.001014243734
   23         61.030000000000         0.221084847378
   24         29.860000000000         0.137919430932
   25         14.170000000000        -0.195122616533
   26          7.022000000000        -0.684637792218
   27          3.511000000000        -0.288132952832
   28          1.758000000000        -0.018758209393
   29          0.784100000000         0.003747145600
   30          0.348000000000        -0.001682933177
   31          0.149100000000         0.000445028539
 S 31
    1    7401000.000000000000        -0.000000342712
    2    1108000.000000000000        -0.000002589382
    3     252100.000000000000        -0.000013632336
    4      71380.000000000000        -0.000057689913
    5      23260.000000000000        -0.000210596741
    6       8390.000000000000        -0.000686700357
    7       3271.000000000000        -0.002039747765
    8       1357.000000000000        -0.005541811061
    9        592.000000000000        -0.013643778595
   10        269.100000000000        -0.029347696341
   11        126.500000000000        -0.051486266985
   12    7401000.000000000000        -0.000000071573
   13    1108000.000000000000        -0.000000558273
   14     252100.000000000000        -0.000002905880
   15      71380.000000000000        -0.000012324940
   16      23260.000000000000        -0.000045005355
   17       8390.000000000000        -0.000147212172
   18       3271.000000000000        -0.000439847181
   19       1357.000000000000        -0.001213212097
   20        592.000000000000        -0.003080533508
   21        269.100000000000        -0.007078509190
   22        126.500000000000        -0.014139454267
   23         61.030000000000        -0.130165329202
   24         29.860000000000        -0.089912636606
   25         14.170000000000         0.173020743501
   26          7.022000000000         0.835006762407
   27          3.511000000000         0.286620598247
   28          1.758000000000        -1.256445734141
   29          0.784100000000        -0.294465361384
   30          0.348000000000         0.035580672868
   31          0.149100000000        -0.007183529551
 S 31
    1    7401000.000000000000         0.000000189112
    2    1108000.000000000000         0.000001428845
    3     252100.000000000000         0.000007522446
    4      71380.000000000000         0.000031833817
    5      23260.000000000000         0.000116209190
    6       8390.000000000000         0.000378927481
    7       3271.000000000000         0.001125551304
    8       1357.000000000000         0.003058021572
    9        592.000000000000         0.007528760689
   10        269.100000000000         0.016194324833
   11        126.500000000000         0.028410588767
   12    7401000.000000000000         0.000000076275
   13    1108000.000000000000         0.000000594947
   14     252100.000000000000         0.000003096775
   15      71380.000000000000         0.000013134597
   16      23260.000000000000         0.000047961873
   17       8390.000000000000         0.000156882920
   18       3271.000000000000         0.000468741879
   19       1357.000000000000         0.001292911135
   20        592.000000000000         0.003282901717
   21        269.100000000000         0.007543514755
   22        126.500000000000         0.015068311565
   23         61.030000000000         0.083958159586
   24         29.860000000000         0.071895707960
   25         14.170000000000        -0.157764026637
   26          7.022000000000        -0.666083950175
   27          3.511000000000        -0.368026705775
   28          1.758000000000         2.632993983114
   29          0.784100000000        -1.438751363084
   30          0.348000000000        -0.759375121388
   31          0.149100000000         0.082006326432
 S 31
    1    7401000.000000000000         0.000000105792
    2    1108000.000000000000         0.000000799316
    3     252100.000000000000         0.000004208162
    4      71380.000000000000         0.000017808282
    5      23260.000000000000         0.000065009046
    6       8390.000000000000         0.000211977332
    7       3271.000000000000         0.000629649141
    8       1357.000000000000         0.001710700034
    9        592.000000000000         0.004211694020
   10        269.100000000000         0.009059331792
   11        126.500000000000         0.015893280683
   12    7401000.000000000000         0.000000086042
   13    1108000.000000000000         0.000000671127
   14     252100.000000000000         0.000003493303
   15      71380.000000000000         0.000014816422
   16      23260.000000000000         0.000054103170
   17       8390.000000000000         0.000176971057
   18       3271.000000000000         0.000528762123
   19       1357.000000000000         0.001458462466
   20        592.000000000000         0.003703262200
   21        269.100000000000         0.008509427163
   22        126.500000000000         0.016997739636
   23         61.030000000000         0.057044106779
   24         29.860000000000         0.072281913191
   25         14.170000000000        -0.174182664846
   26          7.022000000000        -0.440682576733
   27          3.511000000000        -0.582447436575
   28          1.758000000000         3.669736156847
   29          0.784100000000        -4.739573322580
   30          0.348000000000         1.849280840139
   31          0.149100000000         0.672417329814
 S 31
    1    7401000.000000000000         0.000000079290
    2    1108000.000000000000         0.000000599082
    3     252100.000000000000         0.000003153990
    4      71380.000000000000         0.000013347191
    5      23260.000000000000         0.000048723854
    6       8390.000000000000         0.000158875621
    7       3271.000000000000         0.000471917905
    8       1357.000000000000         0.001282158466
    9        592.000000000000         0.003156637070
   10        269.100000000000         0.006789909815
   11        126.500000000000         0.011911909728
   12    7401000.000000000000         0.000000075267
   13    1108000.000000000000         0.000000587081
   14     252100.000000000000         0.000003055832
   15      71380.000000000000         0.000012960943
   16      23260.000000000000         0.000047327765
   17       8390.000000000000         0.000154808759
   18       3271.000000000000         0.000462544607
   19       1357.000000000000         0.001275817460
   20        592.000000000000         0.003239498226
   21        269.100000000000         0.007443781379
   22        126.500000000000         0.014869092284
   23         61.030000000000         0.045759075061
   24         29.860000000000         0.061732427900
   25         14.170000000000        -0.152292814927
   26          7.022000000000        -0.371389658194
   27          3.511000000000        -0.555339818799
   28          1.758000000000         3.942234079767
   29          0.784100000000        -7.196081304472
   30          0.348000000000         7.136366081815
   31          0.149100000000        -3.301055388014
 S 31
    1    7401000.000000000000         0.000001427492
    2    1108000.000000000000         0.000010785491
    3     252100.000000000000         0.000056782440
    4      71380.000000000000         0.000240294404
    5      23260.000000000000         0.000877193532
    6       8390.000000000000         0.002860296458
    7       3271.000000000000         0.008496112241
    8       1357.000000000000         0.023083172139
    9        592.000000000000         0.056830102375
   10        269.100000000000         0.122241252736
   11        126.500000000000         0.214454507836
   12    7401000.000000000000        -0.000000866196
   13    1108000.000000000000        -0.000006756330
   14     252100.000000000000        -0.000035167564
   15      71380.000000000000        -0.000149158977
   16      23260.000000000000        -0.000544664137
   17       8390.000000000000        -0.001781592236
   18       3271.000000000000        -0.005323121804
   19       1357.000000000000        -0.014682544415
   20        592.000000000000        -0.037281255420
   21        269.100000000000        -0.085665586295
   22        126.500000000000        -0.171118608055
   23         61.030000000000         0.392409378772
   24         29.860000000000        -0.665963338619
   25         14.170000000000         2.059027718727
   26          7.022000000000        -8.566162597738
   27          3.511000000000        16.074537580617
   28          1.758000000000       -15.795108801239
   29          0.784100000000        10.001851778574
   30          0.348000000000        -4.816430783750
   31          0.149100000000         1.311480383007
 S 31
    1    7401000.000000000000         0.000004029466
    2    1108000.000000000000         0.000030444856
    3     252100.000000000000         0.000160283211
    4      71380.000000000000         0.000678293477
    5      23260.000000000000         0.002476106982
    6       8390.000000000000         0.008073930974
    7       3271.000000000000         0.023982487402
    8       1357.000000000000         0.065158259372
    9        592.000000000000         0.160417750574
   10        269.100000000000         0.345057741788
   11        126.500000000000         0.605353647268
   12    7401000.000000000000        -0.000004487166
   13    1108000.000000000000        -0.000034999895
   14     252100.000000000000        -0.000182178940
   15      71380.000000000000        -0.000772689987
   16      23260.000000000000        -0.002821529987
   17       8390.000000000000        -0.009229203048
   18       3271.000000000000        -0.027575429993
   19       1357.000000000000        -0.076060156155
   20        592.000000000000        -0.193128522469
   21        269.100000000000        -0.443774436277
   22        126.500000000000        -0.886447722014
   23         61.030000000000         0.614339645389
   24         29.860000000000        -3.713708185919
   25         14.170000000000        12.186806456600
   26          7.022000000000       -18.918989900310
   27          3.511000000000        17.655120389693
   28          1.758000000000       -10.976744582199
   29          0.784100000000         5.085050066977
   30          0.348000000000        -2.090382415069
   31          0.149100000000         0.526384940108
 S 31
    1    7401000.000000000000        -0.000013599954
    2    1108000.000000000000        -0.000102755206
    3     252100.000000000000        -0.000540975939
    4      71380.000000000000        -0.002289325554
    5      23260.000000000000        -0.008357171601
    6       8390.000000000000        -0.027250529620
    7       3271.000000000000        -0.080943902715
    8       1357.000000000000        -0.219917297125
    9        592.000000000000        -0.541430026787
   10        269.100000000000        -1.164613153539
   11        126.500000000000        -2.043144479238
   12    7401000.000000000000         0.000011008669
   13    1108000.000000000000         0.000085867618
   14     252100.000000000000         0.000446951963
   15      71380.000000000000         0.001895692807
   16      23260.000000000000         0.006922251086
   17       8390.000000000000         0.022642630461
   18       3271.000000000000         0.067652674656
   19       1357.000000000000         0.186603545257
   20        592.000000000000         0.473815316778
   21        269.100000000000         1.088741954915
   22        126.500000000000         2.174782382450
   23         61.030000000000        -4.335818705271
   24         29.860000000000        12.219748176704
   25         14.170000000000       -16.798227791338
   26          7.022000000000        15.675322429792
   27          3.511000000000       -11.044450979278
   28          1.758000000000         6.018994585274
   29          0.784100000000        -2.639914699141
   30          0.348000000000         1.069872754346
   31          0.149100000000        -0.268383356423
 S 31
    1    7401000.000000000000        -0.000066270406
    2    1108000.000000000000        -0.000500709733
    3     252100.000000000000        -0.002636089477
    4      71380.000000000000        -0.011155518318
    5      23260.000000000000        -0.040723164394
    6       8390.000000000000        -0.132787484876
    7       3271.000000000000        -0.394426728857
    8       1357.000000000000        -1.071621916095
    9        592.000000000000        -2.638302172329
   10        269.100000000000        -5.674974162663
   11        126.500000000000        -9.955917203086
   12    7401000.000000000000         0.000064008972
   13    1108000.000000000000         0.000499269982
   14     252100.000000000000         0.002598764263
   15      71380.000000000000         0.011022344977
   16      23260.000000000000         0.040248841589
   17       8390.000000000000         0.131653653593
   18       3271.000000000000         0.393360736480
   19       1357.000000000000         1.084990480648
   20        592.000000000000         2.754958956331
   21        269.100000000000         6.330397717451
   22        126.500000000000        12.645087633175
   23         61.030000000000        -9.819742975045
   24         29.860000000000        13.048531225565
   25         14.170000000000       -11.885878078229
   26          7.022000000000         9.279563522113
   27          3.511000000000        -6.135612260404
   28          1.758000000000         3.297108698407
   29          0.784100000000        -1.449261464585
   30          0.348000000000         0.589901386593
   31          0.149100000000        -0.148365745265
 S 31
    1    7401000.000000000000        -0.000260266918
    2    1108000.000000000000        -0.001966461158
    3     252100.000000000000        -0.010352839628
    4      71380.000000000000        -0.043811597866
    5      23260.000000000000        -0.159934021120
    6       8390.000000000000        -0.521502607334
    7       3271.000000000000        -1.549050858925
    8       1357.000000000000        -4.208631738470
    9        592.000000000000       -10.361529650869
   10        269.100000000000       -22.287596042285
   11        126.500000000000       -39.100347330689
   12    7401000.000000000000         0.000223173359
   13    1108000.000000000000         0.001740752202
   14     252100.000000000000         0.009060838383
   15      71380.000000000000         0.038430452453
   16      23260.000000000000         0.140331408261
   17       8390.000000000000         0.459022965190
   18       3271.000000000000         1.371489561591
   19       1357.000000000000         3.782922342354
   20        592.000000000000         9.605426014382
   21        269.100000000000        22.071532781584
   22        126.500000000000        44.088298820822
   23         61.030000000000        -8.533865105657
   24         29.860000000000         8.584215861324
   25         14.170000000000        -7.089237587942
   26          7.022000000000         5.452800050737
   27          3.511000000000        -3.636039597159
   28          1.758000000000         1.976156136214
   29          0.784100000000        -0.876924956726
   30          0.348000000000         0.358804695453
   31          0.149100000000        -0.090468479505
 P 12
    1       2927.000000000000         0.000381579623
    2        693.500000000000         0.003327801945
    3        224.700000000000         0.018148058452
    4         85.170000000000         0.064731553263
    5         35.530000000000         0.197283210205
    6         15.730000000000         0.395309130769
    7          7.165000000000         0.395546656740
    8          3.322000000000         0.094993301621
    9          1.478000000000        -0.000049678430
   10          0.655200000000         0.000204149834
   11          0.275100000000        -0.000017691836
   12          0.109700000000        -0.000002761854
 P 12
    1       2927.000000000000         0.000226167409
    2        693.500000000000         0.001972433273
    3        224.700000000000         0.010756599975
    4         85.170000000000         0.038878324661
    5         35.530000000000         0.130106352583
    6         15.730000000000         0.273285502340
    7          7.165000000000         0.262350726594
    8          3.322000000000        -0.567776022531
    9          1.478000000000        -0.635397694617
   10          0.655200000000         0.012126174598
   11          0.275100000000        -0.014399468855
   12          0.109700000000         0.004189018142
 P 12
    1       2927.000000000000         0.000153276964
    2        693.500000000000         0.001336746900
    3        224.700000000000         0.007289905249
    4         85.170000000000         0.025095856892
    5         35.530000000000         0.094053308629
    6         15.730000000000         0.180016406393
    7          7.165000000000         0.217458391091
    8          3.322000000000        -0.844249717754
    9          1.478000000000        -0.321152618110
   10          0.655200000000         1.291136381762
   11          0.275100000000        -0.014656763373
   12          0.109700000000         0.015081886612
 P 12
    1       2927.000000000000         0.000112846566
    2        693.500000000000         0.000984148521
    3        224.700000000000         0.005367021589
    4         85.170000000000         0.016385088588
    5         35.530000000000         0.074371359877
    6         15.730000000000         0.110676547387
    7          7.165000000000         0.218716079433
    8          3.322000000000        -0.953152774963
    9          1.478000000000         0.329887517328
   10          0.655200000000         1.462721312457
   11          0.275100000000        -1.787501923324
   12          0.109700000000         0.106896988985
 P 12
    1       2927.000000000000         0.000084601064
    2        693.500000000000         0.000737816088
    3        224.700000000000         0.004023655769
    4         85.170000000000         0.009895958859
    5         35.530000000000         0.060734063344
    6         15.730000000000         0.055212686648
    7          7.165000000000         0.230659439429
    8          3.322000000000        -0.977385621116
    9          1.478000000000         0.966815599317
   10          0.655200000000         0.295580344429
   11          0.275100000000        -1.783479164584
   12          0.109700000000         1.726708657189
 P 12
    1       2927.000000000000        -0.000217992183
    2        693.500000000000        -0.001901136139
    3        224.700000000000        -0.010367783403
    4         85.170000000000        -0.019979558430
    5         35.530000000000        -0.168362546318
    6         15.730000000000        -0.075948945018
    7          7.165000000000        -0.766331476889
    8          3.322000000000         3.289031683190
    9          1.478000000000        -5.155734072824
   10          0.655200000000         4.823299309678
   11          0.275100000000        -3.036022801752
   12          0.109700000000         1.151484282156
 P 12
    1       2927.000000000000         0.000204854666
    2        693.500000000000         0.001786562263
    3        224.700000000000         0.009742958539
    4         85.170000000000         0.172995436443
    5         35.530000000000        -0.124625604787
    6         15.730000000000         2.280353237736
    7          7.165000000000        -5.245584910491
    8          3.322000000000         5.585471989737
    9          1.478000000000        -3.913974657536
   10          0.655200000000         2.173711713368
   11          0.275100000000        -0.946206844199
   12          0.109700000000         0.275051082479
 P 12
    1       2927.000000000000         0.001770829096
    2        693.500000000000         0.015443614269
    3        224.700000000000         0.084221242449
    4         85.170000000000        -0.185696845099
    5         35.530000000000         2.691540927937
    6         15.730000000000        -5.024952311341
    7          7.165000000000         4.905330959930
    8          3.322000000000        -3.371253844297
    9          1.478000000000         1.907354885116
   10          0.655200000000        -0.976665340504
   11          0.275100000000         0.412378269419
   12          0.109700000000        -0.118112427902
 P 12
    1       2927.000000000000        -0.000843380754
    2        693.500000000000        -0.007355225346
    3        224.700000000000        -0.040111479498
    4         85.170000000000         2.351113849578
    5         35.530000000000        -4.025793452690
    6         15.730000000000         3.816334981773
    7          7.165000000000        -2.782117788977
    8          3.322000000000         1.725809803008
    9          1.478000000000        -0.952487984038
   10          0.655200000000         0.487334325145
   11          0.275100000000        -0.206150964327
   12          0.109700000000         0.059055798368
 P 12
    1       2927.000000000000         0.032402143049
    2        693.500000000000         0.282583000135
    3        224.700000000000         1.541057096571
    4         85.170000000000        -2.634111538333
    5         35.530000000000         2.541293662085
    6         15.730000000000        -1.989590864254
    7          7.165000000000         1.387837808119
    8          3.322000000000        -0.862588561209
    9          1.478000000000         0.480841856519
   10          0.655200000000        -0.247754499820
   11          0.275100000000         0.105172596866
   12          0.109700000000        -0.030163114001
 D 8
    1          0.309000000000         0.006304067675
    2          0.770000000000        -0.000319565410
    3          1.917000000000         0.428155754439
    4          4.776000000000         0.509514686648
    5         76.808000000000         0.007427038301
    6         38.737000000000         0.006721846733
    7         19.537000000000         0.074752038892
    8          9.853000000000         0.141812187431
 D 8
    1          0.309000000000         0.005537587835
    2          0.770000000000        -0.881989709113
    3          1.917000000000        -0.185739267561
    4          4.776000000000         0.473662429900
    5         76.808000000000         0.006766118118
    6         38.737000000000         0.001328697954
    7         19.537000000000         0.071499730655
    8          9.853000000000         0.096760740422
 D 8
    1          0.309000000000         1.165302145042
    2          0.770000000000        -0.412114143856
    3          1.917000000000        -0.570393805454
    4          4.776000000000         0.429535259253
    5         76.808000000000         0.006301162939
    6         38.737000000000        -0.004022533049
    7         19.537000000000         0.068788892946
    8          9.853000000000         0.046011505133
 D 8
    1          0.309000000000        -1.106120267662
    2          0.770000000000         2.140584437112
    3          1.917000000000        -2.125174581175
    4          4.776000000000         0.954242835529
    5         76.808000000000         0.014312711134
    6         38.737000000000        -0.020056458321
    7         19.537000000000         0.160713573329
    8          9.853000000000         0.007439406541
 D 8
    1          0.309000000000         0.333815185472
    2          0.770000000000        -0.979367922602
    3          1.917000000000         1.933837645231
    4          4.776000000000        -3.077816998662
    5         76.808000000000        -0.038526805690
    6         38.737000000000         0.281449858368
    7         19.537000000000        -0.527563337217
    8          9.853000000000         2.489521501750
 D 8
    1          0.309000000000        -0.153812581007
    2          0.770000000000         0.471860295907
    3          1.917000000000        -1.071814947734
    4          4.776000000000         2.538529967575
    5         76.808000000000         0.216049815316
    6         38.737000000000        -0.698435528799
    7         19.537000000000         3.228060187916
    8          9.853000000000        -4.113015483787
 D 8
    1          0.309000000000         0.084279005850
    2          0.770000000000        -0.259024455268
    3          1.917000000000         0.598107741313
    4          4.776000000000        -1.562141536238
    5         76.808000000000        -0.391082764705
    6         38.737000000000         3.144954083951
    7         19.537000000000        -4.440121716609
    8          9.853000000000         3.267054656527
 D 8
    1          0.309000000000        -0.048982426097
    2          0.770000000000         0.150172953407
    3          1.917000000000        -0.345383723325
    4          4.776000000000         0.911091488770
    5         76.808000000000         2.549515388254
    6         38.737000000000        -4.066096635556
    7         19.537000000000         3.409394534042
    8          9.853000000000        -2.037432067142
 F 6
    1          0.408000000000         0.074285326235
    2          0.825000000000         0.160713030193
    3          1.668000000000         0.757207918911
    4         35.873000000000         0.007860011962
    5         15.140000000000        -0.014590301615
    6          6.390000000000         0.190146182468
 F 6
    1          0.408000000000        -0.677225376967
    2          0.825000000000        -0.560917052692
    3          1.668000000000         0.705785476687
    4         35.873000000000         0.007051417566
    5         15.140000000000        -0.012398898832
    6          6.390000000000         0.180673624878
 F 6
    1          0.408000000000         1.620602027914
    2          0.825000000000        -2.300319905613
    3          1.668000000000         1.030539901478
    4         35.873000000000         0.007605754333
    5         15.140000000000        -0.009907221232
    6          6.390000000000         0.218412490500
 F 6
    1          0.408000000000        -0.579980662980
    2          0.825000000000         1.409346352784
    3          1.668000000000        -1.474570590566
    4         35.873000000000         0.043398942826
    5         15.140000000000        -0.094814076602
    6          6.390000000000         1.161154114024
 F 6
    1          0.408000000000         0.179721183452
    2          0.825000000000        -0.467078673265
    3          1.668000000000         0.579463436312
    4         35.873000000000        -0.147465522580
    5         15.140000000000         1.539933168371
    6          6.390000000000        -1.129907111493
 F 6
    1          0.408000000000        -0.077735592202
    2          0.825000000000         0.202089311493
    3          1.668000000000        -0.254035611876
    4         35.873000000000         1.473736685624
    5         15.140000000000        -1.300443098924
    6          6.390000000000         0.588938790451
 G 4
    1          0.665000000000        -0.670433758681
    2          1.562000000000        -0.435316062089
    3         26.560000000000         0.002591373133
    4         10.306000000000        -0.016744971148
 G 4
    1          0.665000000000         1.073452202512
    2          1.562000000000        -1.182787974978
    3         26.560000000000         0.005137522631
    4         10.306000000000        -0.035408901825
 G 4
    1          0.665000000000        -0.116843200972
    2          1.562000000000         0.224642654174
    3         26.560000000000         0.117898946025
    4         10.306000000000        -1.069742046625
 G 4
    1          0.665000000000        -0.037416640620
    2          1.562000000000         0.074121229760
    3         26.560000000000         1.196349175531
    4         10.306000000000        -0.570764679020
 H 2
    1          1.264000000000         0.999993246522
    2         21.104000000000         0.000955349283
 H 2
    1          1.264000000000        -0.007546934316
    2         21.104000000000         1.000021268081
 end
  // -----------------------------------------------
  // The basis set
  // -----------------------------------------------
  BAS[ATNO] = new BFNGauss[NSH];
  // Basis function   1 L = s
  InitBFNGauss(BAS[ATNO][  0]);
  BAS[ATNO][  0].l  = 0;
  BAS[ATNO][  0].ng = 31;
  BAS[ATNO][  0].a[  0] =   7401000.000000000000;     BAS[ATNO][  0].d[  0] =         0.000004375845;
  BAS[ATNO][  0].a[  1] =   1108000.000000000000;     BAS[ATNO][  0].d[  1] =         0.000033061940;
  BAS[ATNO][  0].a[  2] =    252100.000000000000;     BAS[ATNO][  0].d[  2] =         0.000174061391;
  BAS[ATNO][  0].a[  3] =     71380.000000000000;     BAS[ATNO][  0].d[  3] =         0.000736600579;
  BAS[ATNO][  0].a[  4] =     23260.000000000000;     BAS[ATNO][  0].d[  4] =         0.002688956768;
  BAS[ATNO][  0].a[  5] =      8390.000000000000;     BAS[ATNO][  0].d[  5] =         0.008767977917;
  BAS[ATNO][  0].a[  6] =      3271.000000000000;     BAS[ATNO][  0].d[  6] =         0.026044057178;
  BAS[ATNO][  0].a[  7] =      1357.000000000000;     BAS[ATNO][  0].d[  7] =         0.070759358872;
  BAS[ATNO][  0].a[  8] =       592.000000000000;     BAS[ATNO][  0].d[  8] =         0.174207495593;
  BAS[ATNO][  0].a[  9] =       269.100000000000;     BAS[ATNO][  0].d[  9] =         0.374719411144;
  BAS[ATNO][  0].a[ 10] =       126.500000000000;     BAS[ATNO][  0].d[ 10] =         0.657390734267;
  BAS[ATNO][  0].a[ 11] =   7401000.000000000000;     BAS[ATNO][  0].d[ 11] =        -0.000002061775;
  BAS[ATNO][  0].a[ 12] =   1108000.000000000000;     BAS[ATNO][  0].d[ 12] =        -0.000016081841;
  BAS[ATNO][  0].a[ 13] =    252100.000000000000;     BAS[ATNO][  0].d[ 13] =        -0.000083708046;
  BAS[ATNO][  0].a[ 14] =     71380.000000000000;     BAS[ATNO][  0].d[ 14] =        -0.000355037572;
  BAS[ATNO][  0].a[ 15] =     23260.000000000000;     BAS[ATNO][  0].d[ 15] =        -0.001296443818;
  BAS[ATNO][  0].a[ 16] =      8390.000000000000;     BAS[ATNO][  0].d[ 16] =        -0.004240657833;
  BAS[ATNO][  0].a[ 17] =      3271.000000000000;     BAS[ATNO][  0].d[ 17] =        -0.012670429135;
  BAS[ATNO][  0].a[ 18] =      1357.000000000000;     BAS[ATNO][  0].d[ 18] =        -0.034948315179;
  BAS[ATNO][  0].a[ 19] =       592.000000000000;     BAS[ATNO][  0].d[ 19] =        -0.088739187697;
  BAS[ATNO][  0].a[ 20] =       269.100000000000;     BAS[ATNO][  0].d[ 20] =        -0.203906613546;
  BAS[ATNO][  0].a[ 21] =       126.500000000000;     BAS[ATNO][  0].d[ 21] =        -0.407307267625;
  BAS[ATNO][  0].a[ 22] =        61.030000000000;     BAS[ATNO][  0].d[ 22] =         0.387974987084;
  BAS[ATNO][  0].a[ 23] =        29.860000000000;     BAS[ATNO][  0].d[ 23] =         0.139606898975;
  BAS[ATNO][  0].a[ 24] =        14.170000000000;     BAS[ATNO][  0].d[ 24] =         0.097261886981;
  BAS[ATNO][  0].a[ 25] =         7.022000000000;     BAS[ATNO][  0].d[ 25] =        -0.055977230467;
  BAS[ATNO][  0].a[ 26] =         3.511000000000;     BAS[ATNO][  0].d[ 26] =         0.040047699396;
  BAS[ATNO][  0].a[ 27] =         1.758000000000;     BAS[ATNO][  0].d[ 27] =        -0.022808663028;
  BAS[ATNO][  0].a[ 28] =         0.784100000000;     BAS[ATNO][  0].d[ 28] =         0.010458305879;
  BAS[ATNO][  0].a[ 29] =         0.348000000000;     BAS[ATNO][  0].d[ 29] =        -0.004351091992;
  BAS[ATNO][  0].a[ 30] =         0.149100000000;     BAS[ATNO][  0].d[ 30] =         0.001105610869;

  // Basis function   2 L = s
  InitBFNGauss(BAS[ATNO][  1]);
  BAS[ATNO][  1].l  = 0;
  BAS[ATNO][  1].ng = 31;
  BAS[ATNO][  1].a[  0] =   7401000.000000000000;     BAS[ATNO][  1].d[  0] =        -0.000000787511;
  BAS[ATNO][  1].a[  1] =   1108000.000000000000;     BAS[ATNO][  1].d[  1] =        -0.000005950085;
  BAS[ATNO][  1].a[  2] =    252100.000000000000;     BAS[ATNO][  1].d[  2] =        -0.000031325448;
  BAS[ATNO][  1].a[  3] =     71380.000000000000;     BAS[ATNO][  1].d[  3] =        -0.000132564395;
  BAS[ATNO][  1].a[  4] =     23260.000000000000;     BAS[ATNO][  1].d[  4] =        -0.000483925666;
  BAS[ATNO][  1].a[  5] =      8390.000000000000;     BAS[ATNO][  1].d[  5] =        -0.001577953801;
  BAS[ATNO][  1].a[  6] =      3271.000000000000;     BAS[ATNO][  1].d[  6] =        -0.004687091986;
  BAS[ATNO][  1].a[  7] =      1357.000000000000;     BAS[ATNO][  1].d[  7] =        -0.012734406994;
  BAS[ATNO][  1].a[  8] =       592.000000000000;     BAS[ATNO][  1].d[  8] =        -0.031351741815;
  BAS[ATNO][  1].a[  9] =       269.100000000000;     BAS[ATNO][  1].d[  9] =        -0.067437432536;
  BAS[ATNO][  1].a[ 10] =       126.500000000000;     BAS[ATNO][  1].d[ 10] =        -0.118309172072;
  BAS[ATNO][  1].a[ 11] =   7401000.000000000000;     BAS[ATNO][  1].d[ 11] =         0.000000005134;
  BAS[ATNO][  1].a[ 12] =   1108000.000000000000;     BAS[ATNO][  1].d[ 12] =         0.000000040046;
  BAS[ATNO][  1].a[ 13] =    252100.000000000000;     BAS[ATNO][  1].d[ 13] =         0.000000208443;
  BAS[ATNO][  1].a[ 14] =     71380.000000000000;     BAS[ATNO][  1].d[ 14] =         0.000000884086;
  BAS[ATNO][  1].a[ 15] =     23260.000000000000;     BAS[ATNO][  1].d[ 15] =         0.000003228300;
  BAS[ATNO][  1].a[ 16] =      8390.000000000000;     BAS[ATNO][  1].d[ 16] =         0.000010559744;
  BAS[ATNO][  1].a[ 17] =      3271.000000000000;     BAS[ATNO][  1].d[ 17] =         0.000031550882;
  BAS[ATNO][  1].a[ 18] =      1357.000000000000;     BAS[ATNO][  1].d[ 18] =         0.000087025478;
  BAS[ATNO][  1].a[ 19] =       592.000000000000;     BAS[ATNO][  1].d[ 19] =         0.000220971174;
  BAS[ATNO][  1].a[ 20] =       269.100000000000;     BAS[ATNO][  1].d[ 20] =         0.000507751817;
  BAS[ATNO][  1].a[ 21] =       126.500000000000;     BAS[ATNO][  1].d[ 21] =         0.001014243734;
  BAS[ATNO][  1].a[ 22] =        61.030000000000;     BAS[ATNO][  1].d[ 22] =        -0.221084847378;
  BAS[ATNO][  1].a[ 23] =        29.860000000000;     BAS[ATNO][  1].d[ 23] =        -0.137919430932;
  BAS[ATNO][  1].a[ 24] =        14.170000000000;     BAS[ATNO][  1].d[ 24] =         0.195122616533;
  BAS[ATNO][  1].a[ 25] =         7.022000000000;     BAS[ATNO][  1].d[ 25] =         0.684637792218;
  BAS[ATNO][  1].a[ 26] =         3.511000000000;     BAS[ATNO][  1].d[ 26] =         0.288132952832;
  BAS[ATNO][  1].a[ 27] =         1.758000000000;     BAS[ATNO][  1].d[ 27] =         0.018758209393;
  BAS[ATNO][  1].a[ 28] =         0.784100000000;     BAS[ATNO][  1].d[ 28] =        -0.003747145600;
  BAS[ATNO][  1].a[ 29] =         0.348000000000;     BAS[ATNO][  1].d[ 29] =         0.001682933177;
  BAS[ATNO][  1].a[ 30] =         0.149100000000;     BAS[ATNO][  1].d[ 30] =        -0.000445028539;

  // Basis function   3 L = s
  InitBFNGauss(BAS[ATNO][  2]);
  BAS[ATNO][  2].l  = 0;
  BAS[ATNO][  2].ng = 31;
  BAS[ATNO][  2].a[  0] =   7401000.000000000000;     BAS[ATNO][  2].d[  0] =         0.000000342712;
  BAS[ATNO][  2].a[  1] =   1108000.000000000000;     BAS[ATNO][  2].d[  1] =         0.000002589382;
  BAS[ATNO][  2].a[  2] =    252100.000000000000;     BAS[ATNO][  2].d[  2] =         0.000013632336;
  BAS[ATNO][  2].a[  3] =     71380.000000000000;     BAS[ATNO][  2].d[  3] =         0.000057689913;
  BAS[ATNO][  2].a[  4] =     23260.000000000000;     BAS[ATNO][  2].d[  4] =         0.000210596741;
  BAS[ATNO][  2].a[  5] =      8390.000000000000;     BAS[ATNO][  2].d[  5] =         0.000686700357;
  BAS[ATNO][  2].a[  6] =      3271.000000000000;     BAS[ATNO][  2].d[  6] =         0.002039747765;
  BAS[ATNO][  2].a[  7] =      1357.000000000000;     BAS[ATNO][  2].d[  7] =         0.005541811061;
  BAS[ATNO][  2].a[  8] =       592.000000000000;     BAS[ATNO][  2].d[  8] =         0.013643778595;
  BAS[ATNO][  2].a[  9] =       269.100000000000;     BAS[ATNO][  2].d[  9] =         0.029347696341;
  BAS[ATNO][  2].a[ 10] =       126.500000000000;     BAS[ATNO][  2].d[ 10] =         0.051486266985;
  BAS[ATNO][  2].a[ 11] =   7401000.000000000000;     BAS[ATNO][  2].d[ 11] =         0.000000071573;
  BAS[ATNO][  2].a[ 12] =   1108000.000000000000;     BAS[ATNO][  2].d[ 12] =         0.000000558273;
  BAS[ATNO][  2].a[ 13] =    252100.000000000000;     BAS[ATNO][  2].d[ 13] =         0.000002905880;
  BAS[ATNO][  2].a[ 14] =     71380.000000000000;     BAS[ATNO][  2].d[ 14] =         0.000012324940;
  BAS[ATNO][  2].a[ 15] =     23260.000000000000;     BAS[ATNO][  2].d[ 15] =         0.000045005355;
  BAS[ATNO][  2].a[ 16] =      8390.000000000000;     BAS[ATNO][  2].d[ 16] =         0.000147212172;
  BAS[ATNO][  2].a[ 17] =      3271.000000000000;     BAS[ATNO][  2].d[ 17] =         0.000439847181;
  BAS[ATNO][  2].a[ 18] =      1357.000000000000;     BAS[ATNO][  2].d[ 18] =         0.001213212097;
  BAS[ATNO][  2].a[ 19] =       592.000000000000;     BAS[ATNO][  2].d[ 19] =         0.003080533508;
  BAS[ATNO][  2].a[ 20] =       269.100000000000;     BAS[ATNO][  2].d[ 20] =         0.007078509190;
  BAS[ATNO][  2].a[ 21] =       126.500000000000;     BAS[ATNO][  2].d[ 21] =         0.014139454267;
  BAS[ATNO][  2].a[ 22] =        61.030000000000;     BAS[ATNO][  2].d[ 22] =         0.130165329202;
  BAS[ATNO][  2].a[ 23] =        29.860000000000;     BAS[ATNO][  2].d[ 23] =         0.089912636606;
  BAS[ATNO][  2].a[ 24] =        14.170000000000;     BAS[ATNO][  2].d[ 24] =        -0.173020743501;
  BAS[ATNO][  2].a[ 25] =         7.022000000000;     BAS[ATNO][  2].d[ 25] =        -0.835006762407;
  BAS[ATNO][  2].a[ 26] =         3.511000000000;     BAS[ATNO][  2].d[ 26] =        -0.286620598247;
  BAS[ATNO][  2].a[ 27] =         1.758000000000;     BAS[ATNO][  2].d[ 27] =         1.256445734141;
  BAS[ATNO][  2].a[ 28] =         0.784100000000;     BAS[ATNO][  2].d[ 28] =         0.294465361384;
  BAS[ATNO][  2].a[ 29] =         0.348000000000;     BAS[ATNO][  2].d[ 29] =        -0.035580672868;
  BAS[ATNO][  2].a[ 30] =         0.149100000000;     BAS[ATNO][  2].d[ 30] =         0.007183529551;

  // Basis function   4 L = s
  InitBFNGauss(BAS[ATNO][  3]);
  BAS[ATNO][  3].l  = 0;
  BAS[ATNO][  3].ng = 31;
  BAS[ATNO][  3].a[  0] =   7401000.000000000000;     BAS[ATNO][  3].d[  0] =         0.000000189112;
  BAS[ATNO][  3].a[  1] =   1108000.000000000000;     BAS[ATNO][  3].d[  1] =         0.000001428845;
  BAS[ATNO][  3].a[  2] =    252100.000000000000;     BAS[ATNO][  3].d[  2] =         0.000007522446;
  BAS[ATNO][  3].a[  3] =     71380.000000000000;     BAS[ATNO][  3].d[  3] =         0.000031833817;
  BAS[ATNO][  3].a[  4] =     23260.000000000000;     BAS[ATNO][  3].d[  4] =         0.000116209190;
  BAS[ATNO][  3].a[  5] =      8390.000000000000;     BAS[ATNO][  3].d[  5] =         0.000378927481;
  BAS[ATNO][  3].a[  6] =      3271.000000000000;     BAS[ATNO][  3].d[  6] =         0.001125551304;
  BAS[ATNO][  3].a[  7] =      1357.000000000000;     BAS[ATNO][  3].d[  7] =         0.003058021572;
  BAS[ATNO][  3].a[  8] =       592.000000000000;     BAS[ATNO][  3].d[  8] =         0.007528760689;
  BAS[ATNO][  3].a[  9] =       269.100000000000;     BAS[ATNO][  3].d[  9] =         0.016194324833;
  BAS[ATNO][  3].a[ 10] =       126.500000000000;     BAS[ATNO][  3].d[ 10] =         0.028410588767;
  BAS[ATNO][  3].a[ 11] =   7401000.000000000000;     BAS[ATNO][  3].d[ 11] =         0.000000076275;
  BAS[ATNO][  3].a[ 12] =   1108000.000000000000;     BAS[ATNO][  3].d[ 12] =         0.000000594947;
  BAS[ATNO][  3].a[ 13] =    252100.000000000000;     BAS[ATNO][  3].d[ 13] =         0.000003096775;
  BAS[ATNO][  3].a[ 14] =     71380.000000000000;     BAS[ATNO][  3].d[ 14] =         0.000013134597;
  BAS[ATNO][  3].a[ 15] =     23260.000000000000;     BAS[ATNO][  3].d[ 15] =         0.000047961873;
  BAS[ATNO][  3].a[ 16] =      8390.000000000000;     BAS[ATNO][  3].d[ 16] =         0.000156882920;
  BAS[ATNO][  3].a[ 17] =      3271.000000000000;     BAS[ATNO][  3].d[ 17] =         0.000468741879;
  BAS[ATNO][  3].a[ 18] =      1357.000000000000;     BAS[ATNO][  3].d[ 18] =         0.001292911135;
  BAS[ATNO][  3].a[ 19] =       592.000000000000;     BAS[ATNO][  3].d[ 19] =         0.003282901717;
  BAS[ATNO][  3].a[ 20] =       269.100000000000;     BAS[ATNO][  3].d[ 20] =         0.007543514755;
  BAS[ATNO][  3].a[ 21] =       126.500000000000;     BAS[ATNO][  3].d[ 21] =         0.015068311565;
  BAS[ATNO][  3].a[ 22] =        61.030000000000;     BAS[ATNO][  3].d[ 22] =         0.083958159586;
  BAS[ATNO][  3].a[ 23] =        29.860000000000;     BAS[ATNO][  3].d[ 23] =         0.071895707960;
  BAS[ATNO][  3].a[ 24] =        14.170000000000;     BAS[ATNO][  3].d[ 24] =        -0.157764026637;
  BAS[ATNO][  3].a[ 25] =         7.022000000000;     BAS[ATNO][  3].d[ 25] =        -0.666083950175;
  BAS[ATNO][  3].a[ 26] =         3.511000000000;     BAS[ATNO][  3].d[ 26] =        -0.368026705775;
  BAS[ATNO][  3].a[ 27] =         1.758000000000;     BAS[ATNO][  3].d[ 27] =         2.632993983114;
  BAS[ATNO][  3].a[ 28] =         0.784100000000;     BAS[ATNO][  3].d[ 28] =        -1.438751363084;
  BAS[ATNO][  3].a[ 29] =         0.348000000000;     BAS[ATNO][  3].d[ 29] =        -0.759375121388;
  BAS[ATNO][  3].a[ 30] =         0.149100000000;     BAS[ATNO][  3].d[ 30] =         0.082006326432;

  // Basis function   5 L = s
  InitBFNGauss(BAS[ATNO][  4]);
  BAS[ATNO][  4].l  = 0;
  BAS[ATNO][  4].ng = 31;
  BAS[ATNO][  4].a[  0] =   7401000.000000000000;     BAS[ATNO][  4].d[  0] =        -0.000000105792;
  BAS[ATNO][  4].a[  1] =   1108000.000000000000;     BAS[ATNO][  4].d[  1] =        -0.000000799316;
  BAS[ATNO][  4].a[  2] =    252100.000000000000;     BAS[ATNO][  4].d[  2] =        -0.000004208162;
  BAS[ATNO][  4].a[  3] =     71380.000000000000;     BAS[ATNO][  4].d[  3] =        -0.000017808282;
[...]
  BAS[ATNO][ 19].a[  7] =         3.322000000000;     BAS[ATNO][ 19].d[  7] =        -1.725809803008;
  BAS[ATNO][ 19].a[  8] =         1.478000000000;     BAS[ATNO][ 19].d[  8] =         0.952487984038;
  BAS[ATNO][ 19].a[  9] =         0.655200000000;     BAS[ATNO][ 19].d[  9] =        -0.487334325145;
  BAS[ATNO][ 19].a[ 10] =         0.275100000000;     BAS[ATNO][ 19].d[ 10] =         0.206150964327;
  BAS[ATNO][ 19].a[ 11] =         0.109700000000;     BAS[ATNO][ 19].d[ 11] =        -0.059055798368;

  // Basis function  21 L = p
  InitBFNGauss(BAS[ATNO][ 20]);
  BAS[ATNO][ 20].l  = 1;
  BAS[ATNO][ 20].ng = 12;
  BAS[ATNO][ 20].a[  0] =      2927.000000000000;     BAS[ATNO][ 20].d[  0] =        -0.032402143049;
  BAS[ATNO][ 20].a[  1] =       693.500000000000;     BAS[ATNO][ 20].d[  1] =        -0.282583000135;
  BAS[ATNO][ 20].a[  2] =       224.700000000000;     BAS[ATNO][ 20].d[  2] =        -1.541057096571;
  BAS[ATNO][ 20].a[  3] =        85.170000000000;     BAS[ATNO][ 20].d[  3] =         2.634111538333;
  BAS[ATNO][ 20].a[  4] =        35.530000000000;     BAS[ATNO][ 20].d[  4] =        -2.541293662085;
  BAS[ATNO][ 20].a[  5] =        15.730000000000;     BAS[ATNO][ 20].d[  5] =         1.989590864254;
  BAS[ATNO][ 20].a[  6] =         7.165000000000;     BAS[ATNO][ 20].d[  6] =        -1.387837808119;
  BAS[ATNO][ 20].a[  7] =         3.322000000000;     BAS[ATNO][ 20].d[  7] =         0.862588561209;
  BAS[ATNO][ 20].a[  8] =         1.478000000000;     BAS[ATNO][ 20].d[  8] =        -0.480841856519;
  BAS[ATNO][ 20].a[  9] =         0.655200000000;     BAS[ATNO][ 20].d[  9] =         0.247754499820;
  BAS[ATNO][ 20].a[ 10] =         0.275100000000;     BAS[ATNO][ 20].d[ 10] =        -0.105172596866;
  BAS[ATNO][ 20].a[ 11] =         0.109700000000;     BAS[ATNO][ 20].d[ 11] =         0.030163114001;

  // Basis function  22 L = d
  InitBFNGauss(BAS[ATNO][ 21]);
  BAS[ATNO][ 21].l  = 2;
  BAS[ATNO][ 21].ng = 8;
  BAS[ATNO][ 21].a[  0] =         0.309000000000;     BAS[ATNO][ 21].d[  0] =         0.006304067675;
  BAS[ATNO][ 21].a[  1] =         0.770000000000;     BAS[ATNO][ 21].d[  1] =        -0.000319565410;
  BAS[ATNO][ 21].a[  2] =         1.917000000000;     BAS[ATNO][ 21].d[  2] =         0.428155754439;
  BAS[ATNO][ 21].a[  3] =         4.776000000000;     BAS[ATNO][ 21].d[  3] =         0.509514686648;
  BAS[ATNO][ 21].a[  4] =        76.808000000000;     BAS[ATNO][ 21].d[  4] =         0.007427038301;
  BAS[ATNO][ 21].a[  5] =        38.737000000000;     BAS[ATNO][ 21].d[  5] =         0.006721846733;
  BAS[ATNO][ 21].a[  6] =        19.537000000000;     BAS[ATNO][ 21].d[  6] =         0.074752038892;
  BAS[ATNO][ 21].a[  7] =         9.853000000000;     BAS[ATNO][ 21].d[  7] =         0.141812187431;

  // Basis function  23 L = d
  InitBFNGauss(BAS[ATNO][ 22]);
  BAS[ATNO][ 22].l  = 2;
  BAS[ATNO][ 22].ng = 8;
  BAS[ATNO][ 22].a[  0] =         0.309000000000;     BAS[ATNO][ 22].d[  0] =        -0.005537587835;
  BAS[ATNO][ 22].a[  1] =         0.770000000000;     BAS[ATNO][ 22].d[  1] =         0.881989709113;
  BAS[ATNO][ 22].a[  2] =         1.917000000000;     BAS[ATNO][ 22].d[  2] =         0.185739267561;
  BAS[ATNO][ 22].a[  3] =         4.776000000000;     BAS[ATNO][ 22].d[  3] =        -0.473662429900;
  BAS[ATNO][ 22].a[  4] =        76.808000000000;     BAS[ATNO][ 22].d[  4] =        -0.006766118118;
  BAS[ATNO][ 22].a[  5] =        38.737000000000;     BAS[ATNO][ 22].d[  5] =        -0.001328697954;
  BAS[ATNO][ 22].a[  6] =        19.537000000000;     BAS[ATNO][ 22].d[  6] =        -0.071499730655;
  BAS[ATNO][ 22].a[  7] =         9.853000000000;     BAS[ATNO][ 22].d[  7] =        -0.096760740422;

  // Basis function  24 L = d
  InitBFNGauss(BAS[ATNO][ 23]);
  BAS[ATNO][ 23].l  = 2;
  BAS[ATNO][ 23].ng = 8;
  BAS[ATNO][ 23].a[  0] =         0.309000000000;     BAS[ATNO][ 23].d[  0] =         1.165302145042;
  BAS[ATNO][ 23].a[  1] =         0.770000000000;     BAS[ATNO][ 23].d[  1] =        -0.412114143856;
  BAS[ATNO][ 23].a[  2] =         1.917000000000;     BAS[ATNO][ 23].d[  2] =        -0.570393805454;
  BAS[ATNO][ 23].a[  3] =         4.776000000000;     BAS[ATNO][ 23].d[  3] =         0.429535259253;
  BAS[ATNO][ 23].a[  4] =        76.808000000000;     BAS[ATNO][ 23].d[  4] =         0.006301162939;
  BAS[ATNO][ 23].a[  5] =        38.737000000000;     BAS[ATNO][ 23].d[  5] =        -0.004022533049;
  BAS[ATNO][ 23].a[  6] =        19.537000000000;     BAS[ATNO][ 23].d[  6] =         0.068788892946;
  BAS[ATNO][ 23].a[  7] =         9.853000000000;     BAS[ATNO][ 23].d[  7] =         0.046011505133;

  // Basis function  25 L = d
  InitBFNGauss(BAS[ATNO][ 24]);
  BAS[ATNO][ 24].l  = 2;
  BAS[ATNO][ 24].ng = 8;
  BAS[ATNO][ 24].a[  0] =         0.309000000000;     BAS[ATNO][ 24].d[  0] =        -1.106120267662;
  BAS[ATNO][ 24].a[  1] =         0.770000000000;     BAS[ATNO][ 24].d[  1] =         2.140584437112;
  BAS[ATNO][ 24].a[  2] =         1.917000000000;     BAS[ATNO][ 24].d[  2] =        -2.125174581175;
  BAS[ATNO][ 24].a[  3] =         4.776000000000;     BAS[ATNO][ 24].d[  3] =         0.954242835529;
  BAS[ATNO][ 24].a[  4] =        76.808000000000;     BAS[ATNO][ 24].d[  4] =         0.014312711134;
  BAS[ATNO][ 24].a[  5] =        38.737000000000;     BAS[ATNO][ 24].d[  5] =        -0.020056458321;
  BAS[ATNO][ 24].a[  6] =        19.537000000000;     BAS[ATNO][ 24].d[  6] =         0.160713573329;
  BAS[ATNO][ 24].a[  7] =         9.853000000000;     BAS[ATNO][ 24].d[  7] =         0.007439406541;

  // Basis function  26 L = d
  InitBFNGauss(BAS[ATNO][ 25]);
  BAS[ATNO][ 25].l  = 2;
  BAS[ATNO][ 25].ng = 8;
  BAS[ATNO][ 25].a[  0] =         0.309000000000;     BAS[ATNO][ 25].d[  0] =        -0.333815185472;
  BAS[ATNO][ 25].a[  1] =         0.770000000000;     BAS[ATNO][ 25].d[  1] =         0.979367922602;
  BAS[ATNO][ 25].a[  2] =         1.917000000000;     BAS[ATNO][ 25].d[  2] =        -1.933837645231;
  BAS[ATNO][ 25].a[  3] =         4.776000000000;     BAS[ATNO][ 25].d[  3] =         3.077816998662;
  BAS[ATNO][ 25].a[  4] =        76.808000000000;     BAS[ATNO][ 25].d[  4] =         0.038526805690;
  BAS[ATNO][ 25].a[  5] =        38.737000000000;     BAS[ATNO][ 25].d[  5] =        -0.281449858368;
  BAS[ATNO][ 25].a[  6] =        19.537000000000;     BAS[ATNO][ 25].d[  6] =         0.527563337217;
  BAS[ATNO][ 25].a[  7] =         9.853000000000;     BAS[ATNO][ 25].d[  7] =        -2.489521501750;

  // Basis function  27 L = d
  InitBFNGauss(BAS[ATNO][ 26]);
  BAS[ATNO][ 26].l  = 2;
  BAS[ATNO][ 26].ng = 8;
  BAS[ATNO][ 26].a[  0] =         0.309000000000;     BAS[ATNO][ 26].d[  0] =         0.153812581007;
  BAS[ATNO][ 26].a[  1] =         0.770000000000;     BAS[ATNO][ 26].d[  1] =        -0.471860295907;
  BAS[ATNO][ 26].a[  2] =         1.917000000000;     BAS[ATNO][ 26].d[  2] =         1.071814947734;
  BAS[ATNO][ 26].a[  3] =         4.776000000000;     BAS[ATNO][ 26].d[  3] =        -2.538529967575;
  BAS[ATNO][ 26].a[  4] =        76.808000000000;     BAS[ATNO][ 26].d[  4] =        -0.216049815316;
  BAS[ATNO][ 26].a[  5] =        38.737000000000;     BAS[ATNO][ 26].d[  5] =         0.698435528799;
  BAS[ATNO][ 26].a[  6] =        19.537000000000;     BAS[ATNO][ 26].d[  6] =        -3.228060187916;
  BAS[ATNO][ 26].a[  7] =         9.853000000000;     BAS[ATNO][ 26].d[  7] =         4.113015483787;

  // Basis function  28 L = d
  InitBFNGauss(BAS[ATNO][ 27]);
  BAS[ATNO][ 27].l  = 2;
  BAS[ATNO][ 27].ng = 8;
  BAS[ATNO][ 27].a[  0] =         0.309000000000;     BAS[ATNO][ 27].d[  0] =        -0.084279005850;
  BAS[ATNO][ 27].a[  1] =         0.770000000000;     BAS[ATNO][ 27].d[  1] =         0.259024455268;
  BAS[ATNO][ 27].a[  2] =         1.917000000000;     BAS[ATNO][ 27].d[  2] =        -0.598107741313;
  BAS[ATNO][ 27].a[  3] =         4.776000000000;     BAS[ATNO][ 27].d[  3] =         1.562141536238;
  BAS[ATNO][ 27].a[  4] =        76.808000000000;     BAS[ATNO][ 27].d[  4] =         0.391082764705;
  BAS[ATNO][ 27].a[  5] =        38.737000000000;     BAS[ATNO][ 27].d[  5] =        -3.144954083951;
  BAS[ATNO][ 27].a[  6] =        19.537000000000;     BAS[ATNO][ 27].d[  6] =         4.440121716609;
  BAS[ATNO][ 27].a[  7] =         9.853000000000;     BAS[ATNO][ 27].d[  7] =        -3.267054656527;

  // Basis function  29 L = d
  InitBFNGauss(BAS[ATNO][ 28]);
  BAS[ATNO][ 28].l  = 2;
  BAS[ATNO][ 28].ng = 8;
  BAS[ATNO][ 28].a[  0] =         0.309000000000;     BAS[ATNO][ 28].d[  0] =         0.048982426097;
  BAS[ATNO][ 28].a[  1] =         0.770000000000;     BAS[ATNO][ 28].d[  1] =        -0.150172953407;
  BAS[ATNO][ 28].a[  2] =         1.917000000000;     BAS[ATNO][ 28].d[  2] =         0.345383723325;
  BAS[ATNO][ 28].a[  3] =         4.776000000000;     BAS[ATNO][ 28].d[  3] =        -0.911091488770;
  BAS[ATNO][ 28].a[  4] =        76.808000000000;     BAS[ATNO][ 28].d[  4] =        -2.549515388254;
  BAS[ATNO][ 28].a[  5] =        38.737000000000;     BAS[ATNO][ 28].d[  5] =         4.066096635556;
  BAS[ATNO][ 28].a[  6] =        19.537000000000;     BAS[ATNO][ 28].d[  6] =        -3.409394534042;
  BAS[ATNO][ 28].a[  7] =         9.853000000000;     BAS[ATNO][ 28].d[  7] =         2.037432067142;

  // Basis function  30 L = f
  InitBFNGauss(BAS[ATNO][ 29]);
  BAS[ATNO][ 29].l  = 3;
  BAS[ATNO][ 29].ng = 6;
  BAS[ATNO][ 29].a[  0] =         0.408000000000;     BAS[ATNO][ 29].d[  0] =         0.074285326235;
  BAS[ATNO][ 29].a[  1] =         0.825000000000;     BAS[ATNO][ 29].d[  1] =         0.160713030193;
  BAS[ATNO][ 29].a[  2] =         1.668000000000;     BAS[ATNO][ 29].d[  2] =         0.757207918911;
  BAS[ATNO][ 29].a[  3] =        35.873000000000;     BAS[ATNO][ 29].d[  3] =         0.007860011962;
  BAS[ATNO][ 29].a[  4] =        15.140000000000;     BAS[ATNO][ 29].d[  4] =        -0.014590301615;
  BAS[ATNO][ 29].a[  5] =         6.390000000000;     BAS[ATNO][ 29].d[  5] =         0.190146182468;

  // Basis function  31 L = f
  InitBFNGauss(BAS[ATNO][ 30]);
  BAS[ATNO][ 30].l  = 3;
  BAS[ATNO][ 30].ng = 6;
  BAS[ATNO][ 30].a[  0] =         0.408000000000;     BAS[ATNO][ 30].d[  0] =        -0.677225376967;
  BAS[ATNO][ 30].a[  1] =         0.825000000000;     BAS[ATNO][ 30].d[  1] =        -0.560917052692;
  BAS[ATNO][ 30].a[  2] =         1.668000000000;     BAS[ATNO][ 30].d[  2] =         0.705785476687;
  BAS[ATNO][ 30].a[  3] =        35.873000000000;     BAS[ATNO][ 30].d[  3] =         0.007051417566;
  BAS[ATNO][ 30].a[  4] =        15.140000000000;     BAS[ATNO][ 30].d[  4] =        -0.012398898832;
  BAS[ATNO][ 30].a[  5] =         6.390000000000;     BAS[ATNO][ 30].d[  5] =         0.180673624878;

  // Basis function  32 L = f
  InitBFNGauss(BAS[ATNO][ 31]);
  BAS[ATNO][ 31].l  = 3;
  BAS[ATNO][ 31].ng = 6;
  BAS[ATNO][ 31].a[  0] =         0.408000000000;     BAS[ATNO][ 31].d[  0] =        -1.620602027914;
  BAS[ATNO][ 31].a[  1] =         0.825000000000;     BAS[ATNO][ 31].d[  1] =         2.300319905613;
  BAS[ATNO][ 31].a[  2] =         1.668000000000;     BAS[ATNO][ 31].d[  2] =        -1.030539901478;
  BAS[ATNO][ 31].a[  3] =        35.873000000000;     BAS[ATNO][ 31].d[  3] =        -0.007605754333;
  BAS[ATNO][ 31].a[  4] =        15.140000000000;     BAS[ATNO][ 31].d[  4] =         0.009907221232;
  BAS[ATNO][ 31].a[  5] =         6.390000000000;     BAS[ATNO][ 31].d[  5] =        -0.218412490500;

  // Basis function  33 L = f
  InitBFNGauss(BAS[ATNO][ 32]);
  BAS[ATNO][ 32].l  = 3;
  BAS[ATNO][ 32].ng = 6;
  BAS[ATNO][ 32].a[  0] =         0.408000000000;     BAS[ATNO][ 32].d[  0] =         0.579980662980;
  BAS[ATNO][ 32].a[  1] =         0.825000000000;     BAS[ATNO][ 32].d[  1] =        -1.409346352784;
  BAS[ATNO][ 32].a[  2] =         1.668000000000;     BAS[ATNO][ 32].d[  2] =         1.474570590566;
  BAS[ATNO][ 32].a[  3] =        35.873000000000;     BAS[ATNO][ 32].d[  3] =        -0.043398942826;
  BAS[ATNO][ 32].a[  4] =        15.140000000000;     BAS[ATNO][ 32].d[  4] =         0.094814076602;
  BAS[ATNO][ 32].a[  5] =         6.390000000000;     BAS[ATNO][ 32].d[  5] =        -1.161154114024;

  // Basis function  34 L = f
  InitBFNGauss(BAS[ATNO][ 33]);
  BAS[ATNO][ 33].l  = 3;
  BAS[ATNO][ 33].ng = 6;
  BAS[ATNO][ 33].a[  0] =         0.408000000000;     BAS[ATNO][ 33].d[  0] =         0.179721183452;
  BAS[ATNO][ 33].a[  1] =         0.825000000000;     BAS[ATNO][ 33].d[  1] =        -0.467078673265;
  BAS[ATNO][ 33].a[  2] =         1.668000000000;     BAS[ATNO][ 33].d[  2] =         0.579463436312;
  BAS[ATNO][ 33].a[  3] =        35.873000000000;     BAS[ATNO][ 33].d[  3] =        -0.147465522580;
  BAS[ATNO][ 33].a[  4] =        15.140000000000;     BAS[ATNO][ 33].d[  4] =         1.539933168371;
  BAS[ATNO][ 33].a[  5] =         6.390000000000;     BAS[ATNO][ 33].d[  5] =        -1.129907111493;

  // Basis function  35 L = f
  InitBFNGauss(BAS[ATNO][ 34]);
  BAS[ATNO][ 34].l  = 3;
  BAS[ATNO][ 34].ng = 6;
  BAS[ATNO][ 34].a[  0] =         0.408000000000;     BAS[ATNO][ 34].d[  0] =        -0.077735592202;
  BAS[ATNO][ 34].a[  1] =         0.825000000000;     BAS[ATNO][ 34].d[  1] =         0.202089311493;
  BAS[ATNO][ 34].a[  2] =         1.668000000000;     BAS[ATNO][ 34].d[  2] =        -0.254035611876;
  BAS[ATNO][ 34].a[  3] =        35.873000000000;     BAS[ATNO][ 34].d[  3] =         1.473736685624;
  BAS[ATNO][ 34].a[  4] =        15.140000000000;     BAS[ATNO][ 34].d[  4] =        -1.300443098924;
  BAS[ATNO][ 34].a[  5] =         6.390000000000;     BAS[ATNO][ 34].d[  5] =         0.588938790451;

  // Basis function  36 L = g
  InitBFNGauss(BAS[ATNO][ 35]);
  BAS[ATNO][ 35].l  = 4;
  BAS[ATNO][ 35].ng = 4;
  BAS[ATNO][ 35].a[  0] =         0.665000000000;     BAS[ATNO][ 35].d[  0] =         0.670433758681;
  BAS[ATNO][ 35].a[  1] =         1.562000000000;     BAS[ATNO][ 35].d[  1] =         0.435316062089;
  BAS[ATNO][ 35].a[  2] =        26.560000000000;     BAS[ATNO][ 35].d[  2] =        -0.002591373133;
  BAS[ATNO][ 35].a[  3] =        10.306000000000;     BAS[ATNO][ 35].d[  3] =         0.016744971148;

  // Basis function  37 L = g
  InitBFNGauss(BAS[ATNO][ 36]);
  BAS[ATNO][ 36].l  = 4;
  BAS[ATNO][ 36].ng = 4;
  BAS[ATNO][ 36].a[  0] =         0.665000000000;     BAS[ATNO][ 36].d[  0] =        -1.073452202512;
  BAS[ATNO][ 36].a[  1] =         1.562000000000;     BAS[ATNO][ 36].d[  1] =         1.182787974978;
  BAS[ATNO][ 36].a[  2] =        26.560000000000;     BAS[ATNO][ 36].d[  2] =        -0.005137522631;
  BAS[ATNO][ 36].a[  3] =        10.306000000000;     BAS[ATNO][ 36].d[  3] =         0.035408901825;

  // Basis function  38 L = g
  InitBFNGauss(BAS[ATNO][ 37]);
  BAS[ATNO][ 37].l  = 4;
  BAS[ATNO][ 37].ng = 4;
  BAS[ATNO][ 37].a[  0] =         0.665000000000;     BAS[ATNO][ 37].d[  0] =         0.116843200972;
  BAS[ATNO][ 37].a[  1] =         1.562000000000;     BAS[ATNO][ 37].d[  1] =        -0.224642654174;
  BAS[ATNO][ 37].a[  2] =        26.560000000000;     BAS[ATNO][ 37].d[  2] =        -0.117898946025;
  BAS[ATNO][ 37].a[  3] =        10.306000000000;     BAS[ATNO][ 37].d[  3] =         1.069742046625;

  // Basis function  39 L = g
  InitBFNGauss(BAS[ATNO][ 38]);
  BAS[ATNO][ 38].l  = 4;
  BAS[ATNO][ 38].ng = 4;
  BAS[ATNO][ 38].a[  0] =         0.665000000000;     BAS[ATNO][ 38].d[  0] =        -0.037416640620;
  BAS[ATNO][ 38].a[  1] =         1.562000000000;     BAS[ATNO][ 38].d[  1] =         0.074121229760;
  BAS[ATNO][ 38].a[  2] =        26.560000000000;     BAS[ATNO][ 38].d[  2] =         1.196349175531;
  BAS[ATNO][ 38].a[  3] =        10.306000000000;     BAS[ATNO][ 38].d[  3] =        -0.570764679020;

  // Basis function  40 L = h
  InitBFNGauss(BAS[ATNO][ 39]);
  BAS[ATNO][ 39].l  = 5;
  BAS[ATNO][ 39].ng = 2;
  BAS[ATNO][ 39].a[  0] =         1.264000000000;     BAS[ATNO][ 39].d[  0] =         0.999993246522;
  BAS[ATNO][ 39].a[  1] =        21.104000000000;     BAS[ATNO][ 39].d[  1] =         0.000955349283;

  // Basis function  41 L = h
  InitBFNGauss(BAS[ATNO][ 40]);
  BAS[ATNO][ 40].l  = 5;
  BAS[ATNO][ 40].ng = 2;
  BAS[ATNO][ 40].a[  0] =         1.264000000000;     BAS[ATNO][ 40].d[  0] =        -0.007546934316;
  BAS[ATNO][ 40].a[  1] =        21.104000000000;     BAS[ATNO][ 40].d[  1] =         1.000021268081;

-------
TIMINGS
-------

Total SCF time: 0 days 0 hours 0 min 2 sec 

Total time                  ....       2.157 sec
Sum of individual times     ....       1.886 sec  ( 87.5%)

Fock matrix formation       ....       1.338 sec  ( 62.0%)
  XC integration            ....       0.062 sec  (  4.6% of F)
    Basis function eval.    ....       0.007 sec  ( 11.5% of XC)
    Density eval.           ....       0.007 sec  ( 11.3% of XC)
    XC-Functional eval.     ....       0.002 sec  (  3.2% of XC)
    XC-Potential eval.      ....       0.017 sec  ( 28.0% of XC)
Diagonalization             ....       0.018 sec  (  0.8%)
Density matrix formation    ....       0.006 sec  (  0.3%)
Population analysis         ....       0.004 sec  (  0.2%)
Initial guess               ....       0.078 sec  (  3.6%)
Orbital Transformation      ....       0.000 sec  (  0.0%)
Orbital Orthonormalization  ....       0.000 sec  (  0.0%)
DIIS solution               ....       0.003 sec  (  0.2%)
SOSCF solution              ....       0.012 sec  (  0.5%)
Grid generation             ....       0.428 sec  ( 19.8%)

-------------------------   --------------------
FINAL SINGLE POINT ENERGY      -322.537893637564
-------------------------   --------------------


                            ***************************************
                            *     ORCA property calculations      *
                            ***************************************

                                    ---------------------
                                    Active property flags
                                    ---------------------
   (+) Dipole Moment


------------------------------------------------------------------------------
                       ORCA ELECTRIC PROPERTIES CALCULATION
------------------------------------------------------------------------------

Dipole Moment Calculation                       ... on
Quadrupole Moment Calculation                   ... off
Polarizability Calculation                      ... off
GBWName                                         ... Ar_cc-pcv5z_68.5179945_.gbw
Electron density file                           ... Ar_cc-pcv5z_68.5179945_.scfp
The origin for moment calculation is the CENTER OF MASS  = ( 0.000000,  0.000000  0.000000)

-------------
DIPOLE MOMENT
-------------
                                X             Y             Z
Electronic contribution:      0.00000       0.00000      -0.00000
Nuclear contribution   :      0.00000       0.00000       0.00000
                        -----------------------------------------
Total Dipole Moment    :      0.00000       0.00000      -0.00000
                        -----------------------------------------
Magnitude (a.u.)       :      0.00000
Magnitude (Debye)      :      0.00000



--------------------
Rotational spectrum 
--------------------
 
Rotational constants in cm-1:     0.000000     0.000000     0.000000 
Rotational constants in MHz :     0.000000     0.000000     0.000000 

 Dipole components along the rotational axes: 
x,y,z [a.u.] :     0.000000     0.000000    -0.000000 
x,y,z [Debye]:     0.000000     0.000000    -0.000000 

 

Timings for individual modules:

Sum of individual times         ...        3.522 sec (=   0.059 min)
GTO integral calculation        ...        0.733 sec (=   0.012 min)  20.8 %
Relativistic integrals          ...        0.370 sec (=   0.006 min)  10.5 %
SCF iterations                  ...        2.419 sec (=   0.040 min)  68.7 %
                             ****ORCA TERMINATED NORMALLY****
TOTAL RUN TIME: 0 days 0 hours 0 minutes 3 seconds 856 msec
