
                                 *****************
                                 * O   R   C   A *
                                 *****************

           --- An Ab Initio, DFT and Semiempirical electronic structure package ---

                  #######################################################
                  #                        -***-                        #
                  #          Department of theory and spectroscopy      #
                  #               Directorship: Frank Neese             #
                  #        Max Planck Institute fuer Kohlenforschung    #
                  #                Kaiser Wilhelm Platz 1               #
                  #                 D-45470 Muelheim/Ruhr               #
                  #                      Germany                        #
                  #                                                     #
                  #                  All rights reserved                #
                  #                        -***-                        #
                  #######################################################


                         Program Version 4.2.1 -  RELEASE  -


 With contributions from (in alphabetic order):
   Daniel Aravena         : Magnetic Suceptibility
   Michael Atanasov       : Ab Initio Ligand Field Theory (pilot matlab implementation)
   Alexander A. Auer      : GIAO ZORA, VPT2
   Ute Becker             : Parallelization
   Giovanni Bistoni       : ED, misc. LED, open-shell LED, HFLD
   Martin Brehm           : Molecular dynamics
   Dmytro Bykov           : SCF Hessian
   Vijay G. Chilkuri      : MRCI spin determinant printing, contributions to CSF-ICE
   Dipayan Datta          : RHF DLPNO-CCSD density
   Achintya Kumar Dutta   : EOM-CC, STEOM-CC
   Dmitry Ganyushin       : Spin-Orbit,Spin-Spin,Magnetic field MRCI
   Miquel Garcia          : C-PCM Hessian, Gaussian charge scheme
   Yang Guo               : DLPNO-NEVPT2, CIM, IAO-localization
   Andreas Hansen         : Spin unrestricted coupled pair/coupled cluster methods
   Benjamin Helmich-Paris : CASSCF linear response (MC-RPA)
   Lee Huntington         : MR-EOM, pCC
   Robert Izsak           : Overlap fitted RIJCOSX, COSX-SCS-MP3, EOM
   Christian Kollmar      : KDIIS, OOCD, Brueckner-CCSD(T), CCSD density
   Simone Kossmann        : Meta GGA functionals, TD-DFT gradient, OOMP2, MP2 Hessian
   Martin Krupicka        : AUTO-CI
   Lucas Lang             : DCDCAS
   Dagmar Lenk            : GEPOL surface, SMD
   Dimitrios Liakos       : Extrapolation schemes; Compound Job, initial MDCI parallelization
   Dimitrios Manganas     : Further ROCIS development; embedding schemes
   Dimitrios Pantazis     : SARC Basis sets
   Taras Petrenko         : DFT Hessian,TD-DFT gradient, ASA, ECA, R-Raman, ABS, FL, XAS/XES, NRVS
   Peter Pinski           : DLPNO-MP2, DLPNO-MP2 Gradient
   Christoph Reimann      : Effective Core Potentials
   Marius Retegan         : Local ZFS, SOC
   Christoph Riplinger    : Optimizer, TS searches, QM/MM, DLPNO-CCSD(T), (RO)-DLPNO pert. Triples
   Tobias Risthaus        : Range-separated hybrids, TD-DFT gradient, RPA, STAB
   Michael Roemelt        : Original ROCIS implementation
   Masaaki Saitow         : Open-shell DLPNO-CCSD energy and density
   Barbara Sandhoefer     : DKH picture change effects
   Avijit Sen             : IP-ROCIS
   Kantharuban Sivalingam : CASSCF convergence, NEVPT2, FIC-MRCI
   Bernardo de Souza      : ESD, SOC TD-DFT
   Georgi Stoychev        : AutoAux, RI-MP2 NMR
   Willem Van den Heuvel  : Paramagnetic NMR
   Boris Wezisla          : Elementary symmetry handling
   Frank Wennmohs         : Technical directorship


 We gratefully acknowledge several colleagues who have allowed us to
 interface, adapt or use parts of their codes:
   Stefan Grimme, W. Hujo, H. Kruse,             : VdW corrections, initial TS optimization,
                  C. Bannwarth                     DFT functionals, gCP, sTDA/sTD-DF
   Ed Valeev, F. Pavosevic, A. Kumar             : LibInt (2-el integral package), F12 methods
   Garnet Chan, S. Sharma, J. Yang, R. Olivares  : DMRG
   Ulf Ekstrom                                   : XCFun DFT Library
   Mihaly Kallay                                 : mrcc  (arbitrary order and MRCC methods)
   Andreas Klamt, Michael Diedenhofen            : otool_cosmo (COSMO solvation model)
   Jiri Pittner, Ondrej Demel                    : Mk-CCSD
   Frank Weinhold                                : gennbo (NPA and NBO analysis)
   Christopher J. Cramer and Donald G. Truhlar   : smd solvation model
   Lars Goerigk                                  : TD-DFT with DH, B97 family of functionals
   V. Asgeirsson, H. Jonsson                     : NEB implementation
   FAccTs GmbH                                   : IRC, NEB, NEB-TS, Multilevel, MM, QM/MM, CI optimization
   S Lehtola, MJT Oliveira, MAL Marques          : LibXC Library


 Your calculation uses the libint2 library for the computation of 2-el integrals
 For citations please refer to: http://libint.valeyev.net

 Your ORCA version has been built with support for libXC version: 4.2.3
 For citations please refer to: https://tddft.org/programs/libxc/

 This ORCA versions uses:
   CBLAS   interface :  Fast vector & matrix operations
   LAPACKE interface :  Fast linear algebra routines
   SCALAPACK package :  Parallel linear algebra routines


----- Orbital basis set information -----
Your calculation utilizes the basis: cc-pCVTZ 
             H : cc-pVTZ. Obtained from the ccRepo (grant-hill.group.shef.ac.uk/ccrepo) Feb. 2017
                 T. H. Dunning, Jr., J. Chem. Phys. 90, 1007 (1989)
            He : cc-pVTZ. Obtained from the ccRepo (grant-hill.group.shef.ac.uk/ccrepo) Feb. 2017
                 D. E. Woon, T. H. Dunning, Jr., J. Chem. Phys. 100, 2975 (1994)
  Li-Be, Na-Mg : Obtained from the ccRepo (grant-hill.group.shef.ac.uk/ccrepo) Feb. 2017
                 B. P. Prascher, D. E. Woon, K. A. Peterson, T. H. Dunning, Jr., A. K. Wilson, Theor. Chem. Acc. 128, 69 (2011)
          B-Ne : Obtained from the ccRepo (grant-hill.group.shef.ac.uk/ccrepo) Feb. 2017
                 D. E. Woon, T. H. Dunning, Jr., J. Chem. Phys. 103, 4572 (1995)
                  K. A. Peterson, T. H. Dunning, Jr., J. Chem. Phys. 117, 10548 (2002)
         Al-Ar : Obtained from the EMSL Basis Set Exchange (bse.pnl.gov) Feb. 2017
                 K. A. Peterson, T. H. Dunning, Jr., J. Chem. Phys. 117, 10548 (2002)
            Ca : Obtained from the Peterson Research Group Website (tyr0.chem.wsu.edu/~kipeters) Feb. 2017
                 J. Koput, K. A. Peterson, J. Phys. Chem. 106, 9595 (2002)
         Ga-Kr : Obtained from the Peterson Research Group Website (tyr0.chem.wsu.edu/~kipeters) Feb. 2017
                 N. J. DeYonker, K. A. Peterson, A. K. Wilson, J. Phys. Chem. A 111, 11383 (2007)

================================================================================
                                        WARNINGS
                       Please study these warnings very carefully!
================================================================================


INFO   : the flag for use of LIBINT has been found!

================================================================================
                                       INPUT FILE
================================================================================
NAME = Ar_cc-pcvtz_34.25899725_.inp
|  1> ! LDA cc-pcvtz nori grid5 finalgrid6 verytightscf
|  2> %Pal NProcs 18 End
|  3> 
|  4> % REL
|  5>   Method ZORA
|  6>   ModelPot 1, 0, 0, 0
|  7>   velit 34.25899725
|  8> END
|  9> 
| 10> *xyz 16 1
| 11> Ar 0.0 0.0 0.0
| 12> **                         ****END OF INPUT****
================================================================================

                       ****************************
                       * Single Point Calculation *
                       ****************************

---------------------------------
CARTESIAN COORDINATES (ANGSTROEM)
---------------------------------
  Ar     0.000000    0.000000    0.000000

----------------------------
CARTESIAN COORDINATES (A.U.)
----------------------------
  NO LB      ZA    FRAG     MASS         X           Y           Z
   0 Ar   18.0000    0    39.948    0.000000    0.000000    0.000000

--------------------------------
INTERNAL COORDINATES (ANGSTROEM)
--------------------------------
 Ar     0   0   0     0.000000000000     0.00000000     0.00000000

---------------------------
INTERNAL COORDINATES (A.U.)
---------------------------
 Ar     0   0   0     0.000000000000     0.00000000     0.00000000

---------------------
BASIS SET INFORMATION
---------------------
There are 1 groups of distinct atoms

 Group   1 Type Ar  : 43s18p4d2f contracted to 7s6p4d2f pattern {1313131111/771111/1111/11}

Atom   0Ar   basis set group =>   1


           ************************************************************
           *        Program running with 18 parallel MPI-processes    *
           *              working on a common directory               *
           ************************************************************
------------------------------------------------------------------------------
                           ORCA GTO INTEGRAL CALCULATION
------------------------------------------------------------------------------

                         BASIS SET STATISTICS AND STARTUP INFO

 # of primitive gaussian shells          ...   67
 # of primitive gaussian functions       ...  131
 # of contracted shells                  ...   19
 # of contracted basis functions         ...   59
 Highest angular momentum                ...    3
 Maximum contraction depth               ...   13
 Integral package used                   ... LIBINT
 Integral threshhold            Thresh   ...  1.000e-12
 Primitive cut-off              TCut     ...  1.000e-14


------------------------------ INTEGRAL EVALUATION ----------------------------


 * One electron integrals 
 Pre-screening matrix                    ... done
 Shell pair data                         ... done (   0.000 sec)



           ************************************************************
           *        Program running with 18 parallel MPI-processes    *
           *              working on a common directory               *
           ************************************************************
------------------------------------------------------------------------------
                          ORCA RELATIVISTIC HAMILTONIAN
------------------------------------------------------------------------------

Relativistic Method            ... ZORA(MP)
Treatment of potential         ... Van Wuellen
Nucleus model                  ... Point Nucleus
Speed of light used            ...  34.25899725000000


            *************************************************
            *         ZERO ORDER REGULAR APPROXIMATION      *
            *                     ZORA(MP)                  *
            *            Programmed by FN according to      *
            *                   C. van Wuellen              *
            *       J. Chem. Phys. (1998) vol 109, 392-399  *
            *************************************************

Terms included in model potential: +V(e,N)
Basis function cutoff value   ... 1.000000e-12
Loading the fitted atomic densities  (DKH4)  ... done
Calculating the cutoffs                      ... done
Number of fit functions                      ... 15
Setting up the integration grid ... done


           ************************************************************
           *        Program running with 18 parallel MPI-processes    *
           *              working on a common directory               *
           ************************************************************
-------------------------------------------------------------------------------
                                 ORCA SCF
-------------------------------------------------------------------------------

------------
SCF SETTINGS
------------
Hamiltonian:
 Density Functional     Method          .... DFT(GTOs)
 Exchange Functional    Exchange        .... Slater
   X-Alpha parameter    XAlpha          ....  0.666667
 Correlation Functional Correlation     .... VWN-5
 Gradients option       PostSCFGGA      .... off
   Density functional embedding theory  .... OFF

Relativistic Settings:
 Scalar relativistic method             .... ZORA
 Speed of light used       Velit        ....       34.2589973
Orbital energies will be scaled


General Settings:
 Integral files         IntName         .... Ar_cc-pcvtz_34.25899725_
 Hartree-Fock type      HFTyp           .... RHF
 Total Charge           Charge          ....   16
 Multiplicity           Mult            ....    1
 Number of Electrons    NEL             ....    2
 Basis Dimension        Dim             ....   59
 Nuclear Repulsion      ENuc            ....      0.0000000000 Eh

Convergence Acceleration:
 DIIS                   CNVDIIS         .... on
   Start iteration      DIISMaxIt       ....    12
   Startup error        DIISStart       ....  0.200000
   # of expansion vecs  DIISMaxEq       ....     5
   Bias factor          DIISBfac        ....   1.050
   Max. coefficient     DIISMaxC        ....  10.000
 Newton-Raphson         CNVNR           .... off
 SOSCF                  CNVSOSCF        .... on
   Start iteration      SOSCFMaxIt      ....   150
   Startup grad/error   SOSCFStart      ....  0.003300
 Level Shifting         CNVShift        .... on
   Level shift para.    LevelShift      ....    0.2500
   Turn off err/grad.   ShiftErr        ....    0.0010
 Zerner damping         CNVZerner       .... off
 Static damping         CNVDamp         .... on
   Fraction old density DampFac         ....    0.7000
   Max. Damping (<1)    DampMax         ....    0.9800
   Min. Damping (>=0)   DampMin         ....    0.0000
   Turn off err/grad.   DampErr         ....    0.1000
 Fernandez-Rico         CNVRico         .... off

SCF Procedure:
 Maximum # iterations   MaxIter         ....   125
 SCF integral mode      SCFMode         .... Direct
   Integral package                     .... LIBINT
 Reset frequency        DirectResetFreq ....    20
 Integral Threshold     Thresh          ....  1.000e-12 Eh
 Primitive CutOff       TCut            ....  1.000e-14 Eh

Convergence Tolerance:
 Convergence Check Mode ConvCheckMode   .... Total+1el-Energy
 Convergence forced     ConvForced      .... 0
 Energy Change          TolE            ....  1.000e-09 Eh
 1-El. energy change                    ....  1.000e-06 Eh
 Orbital Gradient       TolG            ....  2.000e-06
 Orbital Rotation angle TolX            ....  2.000e-06
 DIIS Error             TolErr          ....  1.000e-08


Diagonalization of the overlap matrix:
Smallest eigenvalue                        ... 2.200e-03
Time for diagonalization                   ...    0.002 sec
Threshold for overlap eigenvalues          ... 1.000e-08
Number of eigenvalues below threshold      ... 0
Time for construction of square roots      ...    0.001 sec
Total time needed                          ...    0.003 sec

-------------------
DFT GRID GENERATION
-------------------

General Integration Accuracy     IntAcc      ...  5.010
Radial Grid Type                 RadialGrid  ... Gauss-Chebyshev
Angular Grid (max. acc.)         AngularGrid ... Lebedev-434
Angular grid pruning method      GridPruning ... 3 (G Style)
Weight generation scheme         WeightScheme... Becke
Basis function cutoff            BFCut       ...    1.0000e-12
Integration weight cutoff        WCut        ...    1.0000e-14
Grids for H and He will be reduced by one unit

# of grid points (after initial pruning)     ...  11992 (   0.0 sec)
# of grid points (after weights+screening)   ...  11992 (   0.0 sec)
Grid point division into batches done        ...    0.1 sec
Reduced shell lists constructed in    0.1 sec

Total number of grid points                  ...    11992
Total number of batches                      ...      188
Average number of points per batch           ...       63
Average number of grid points per atom       ...    11992
Average number of shells per batch           ...     0.00 ( 0.00%)
Average number of basis functions per batch  ...     0.00 ( 0.00%)
Average number of large shells per batch     ...     0.00 ( -nan%)
Average number of large basis fcns per batch ...     0.00 ( -nan%)
Maximum spatial batch extension              ...  18.71, 18.71, 18.71 au
Average spatial batch extension              ...   0.97,  0.98,  0.97 au

Time for grid setup =    0.152 sec

------------------------------
INITIAL GUESS: MODEL POTENTIAL
------------------------------
Loading ZORA relativistic densities                ... done
Calculating cut-offs                               ... done
Setting up the integral package                    ... done
Initializing the effective Hamiltonian             ... done
Starting the Coulomb interaction                   ... done (   0.0 sec)
Reading the grid                                   ... done
Mapping shells                                     ... done
Starting the XC term evaluation                    ... done (   0.0 sec)
  promolecular density results
     # of electrons  =     18.000000116
     EX              =    -28.047870263
     EC              =     -1.433252902
     EX+EC           =    -29.481123164
Transforming the Hamiltonian                       ... done (   0.0 sec)
Diagonalizing the Hamiltonian                      ... done (   0.0 sec)
Back transforming the eigenvectors                 ... done (   0.0 sec)
Now organizing SCF variables                       ... done
                      ------------------
                      INITIAL GUESS DONE (   0.2 sec)
                      ------------------
--------------
SCF ITERATIONS
--------------
ITER       Energy         Delta-E        Max-DP      RMS-DP      [F,P]     Damp
               ***  Starting incremental Fock matrix formation  ***
  0   -353.7435195903   0.000000000000 0.08484312  0.00259362  1.0129251 0.7000
                      *** Initiating the SOSCF procedure ***
                      *** Re-Reading the Fockian *** 
                      *** Removing any level shift *** 
ITER      Energy       Delta-E        Grad      Rot      Max-DP    RMS-DP
  1   -353.74757862  -0.0040590301  0.003010  0.003010  0.198827  0.006082
               *** Restarting incremental Fock matrix formation ***
  2   -353.75700900  -0.0094303814  0.005719  0.000030  0.001173  0.000047
  3   -353.75700968  -0.0000006740  0.000130  0.000001  0.000026  0.000001
                 **** Energy Check signals convergence ****
              ***Rediagonalizing the Fockian in SOSCF/NRSCF***

               *****************************************************
               *                     SUCCESS                       *
               *           SCF CONVERGED AFTER   4 CYCLES          *
               *****************************************************

Setting up the final grid:

General Integration Accuracy     IntAcc      ...  5.340
Radial Grid Type                 RadialGrid  ... Gauss-Chebyshev
Angular Grid (max. acc.)         AngularGrid ... Lebedev-590
Angular grid pruning method      GridPruning ... 3 (G Style)
Weight generation scheme         WeightScheme... Becke
Basis function cutoff            BFCut       ...    1.0000e-12
Integration weight cutoff        WCut        ...    1.0000e-14
Grids for H and He will be reduced by one unit

# of grid points (after initial pruning)     ...  18110 (   0.0 sec)
# of grid points (after weights+screening)   ...  18110 (   0.0 sec)
Grid point division into batches done        ...    0.2 sec
Reduced shell lists constructed in    0.2 sec

Total number of grid points                  ...    18110
Total number of batches                      ...      283
Average number of points per batch           ...       63
Average number of grid points per atom       ...    18110
Average number of shells per batch           ...     0.00 ( 0.00%)
Average number of basis functions per batch  ...     0.00 ( 0.00%)
Average number of large shells per batch     ...     0.00 ( -nan%)
Average number of large basis fcns per batch ...     0.00 ( -nan%)
Maximum spatial batch extension              ...  19.03, 19.03, 19.03 au
Average spatial batch extension              ...   0.84,  0.84,  0.80 au

Final grid set up in    0.2 sec
Final integration                            ... done (   0.0 sec)
Change in XC energy                          ...    -0.000004203
Integrated number of electrons               ...     1.999999987
Previous integrated no of electrons          ...     2.000000031

----------------
TOTAL SCF ENERGY
----------------

Total Energy       :         -353.75701388 Eh           -9626.21774 eV

Components:
Nuclear Repulsion  :            0.00000000 Eh               0.00000 eV
Electronic Energy  :         -353.75701388 Eh           -9626.21774 eV
One Electron Energy:         -367.98601129 Eh          -10013.40844 eV
Two Electron Energy:           14.22899741 Eh             387.19070 eV

Virial components:
Potential Energy   :         -712.84866349 Eh          -19397.59829 eV
Kinetic Energy     :          359.09164961 Eh            9771.38055 eV
Virial Ratio       :            1.98514408


DFT components:
N(Alpha)           :        0.999999993307 electrons
N(Beta)            :        0.999999993307 electrons
N(Total)           :        1.999999986615 electrons
E(X)               :      -10.876620971711 Eh       
E(C)               :       -0.244942232359 Eh       
E(XC)              :      -11.121563204070 Eh       
DFET-embed. en.    :        0.000000000000 Eh       

---------------
SCF CONVERGENCE
---------------

  Last Energy change         ...   -3.6636e-10  Tolerance :   1.0000e-09
  Last MAX-Density change    ...    5.7050e-10  Tolerance :   1.0000e-08
  Last RMS-Density change    ...    1.8654e-11  Tolerance :   1.0000e-09
  Last Orbital Gradient      ...    3.0157e-09  Tolerance :   2.0000e-06
  Last Orbital Rotation      ...    2.3499e-11  Tolerance :   2.0000e-06

================================================================================
                                        WARNING
Number of found core electrons (2) does not match given number of chemical core electrons (10)
================================================================================
             **** THE GBW FILE WAS UPDATED (Ar_cc-pcvtz_34.25899725_.gbw) ****
             **** DENSITY FILE WAS UPDATED (Ar_cc-pcvtz_34.25899725_.scfp) ****
             **** ENERGY FILE WAS UPDATED (Ar_cc-pcvtz_34.25899725_.en.tmp) ****
             **** THE GBW FILE WAS UPDATED (Ar_cc-pcvtz_34.25899725_.gbw) ****
             **** DENSITY FILE WAS UPDATED (Ar_cc-pcvtz_34.25899725_.scfp) ****
----------------
ORBITAL ENERGIES
----------------

  NO   OCC          E(Eh)            E(eV) 
   0   2.0000    -166.025601     -4517.7863 
   1   0.0000     -37.698923     -1025.8399 
   2   0.0000     -34.963086      -951.3939 
   3   0.0000     -34.963086      -951.3939 
   4   0.0000     -34.963086      -951.3939 
   5   0.0000     -15.820357      -430.4938 
   6   0.0000     -15.091847      -410.6700 
   7   0.0000     -15.091847      -410.6700 
   8   0.0000     -15.091847      -410.6700 
   9   0.0000     -14.118677      -384.1887 
  10   0.0000     -14.118677      -384.1887 
  11   0.0000     -14.118677      -384.1887 
  12   0.0000     -14.118677      -384.1887 
  13   0.0000     -14.118677      -384.1887 
  14   0.0000      -8.541029      -232.4132 
  15   0.0000      -8.220237      -223.6840 
  16   0.0000      -8.220237      -223.6840 
  17   0.0000      -8.220237      -223.6840 
  18   0.0000      -8.012565      -218.0330 
  19   0.0000      -8.012565      -218.0330 
  20   0.0000      -8.012565      -218.0330 
  21   0.0000      -8.012565      -218.0330 
  22   0.0000      -8.012565      -218.0330 
  23   0.0000      -7.087958      -192.8732 
  24   0.0000      -7.087958      -192.8732 
  25   0.0000      -7.087958      -192.8732 
  26   0.0000      -7.087958      -192.8732 
  27   0.0000      -7.087958      -192.8732 
  28   0.0000      -7.087958      -192.8732 
  29   0.0000      -7.087958      -192.8732 
  30   0.0000      -5.212820      -141.8480 
  31   0.0000      -5.212820      -141.8480 
  32   0.0000      -5.212820      -141.8480 
  33   0.0000      -5.212820      -141.8480 
  34   0.0000      -5.212820      -141.8480 
  35   0.0000      -5.199605      -141.4884 
  36   0.0000      -4.984786      -135.6429 
  37   0.0000      -4.984786      -135.6429 
  38   0.0000      -4.984786      -135.6429 
  39   0.0000      -3.418585       -93.0244 
  40   0.0000      -3.418585       -93.0244 
  41   0.0000      -3.418585       -93.0244 
  42   0.0000      -0.802892       -21.8478 
  43   0.0000      16.760264       456.0700 
  44   0.0000      16.760264       456.0700 
  45   0.0000      16.760264       456.0700 
  46   0.0000      16.760264       456.0700 
  47   0.0000      16.760264       456.0700 
  48   0.0000      16.760264       456.0700 
  49   0.0000      16.760264       456.0700 
  50   0.0000      24.199752       658.5087 
  51   0.0000      24.199752       658.5087 
  52   0.0000      24.199752       658.5087 
  53   0.0000      24.199752       658.5087 
  54   0.0000      24.199752       658.5087 
  55   0.0000      28.014831       762.3223 
  56   0.0000      28.014831       762.3223 
  57   0.0000      28.014831       762.3223 
  58   0.0000      51.122763      1391.1211 

                    ********************************
                    * MULLIKEN POPULATION ANALYSIS *
                    ********************************

-----------------------
MULLIKEN ATOMIC CHARGES
-----------------------
   0 Ar:   16.000000
Sum of atomic charges:   16.0000000

--------------------------------
MULLIKEN REDUCED ORBITAL CHARGES
--------------------------------
  0 Ars       :     2.000000  s :     2.000000
      pz      :     0.000000  p :     0.000000
      px      :     0.000000
      py      :     0.000000
      dz2     :     0.000000  d :     0.000000
      dxz     :     0.000000
      dyz     :     0.000000
      dx2y2   :     0.000000
      dxy     :     0.000000
      f0      :     0.000000  f :     0.000000
      f+1     :     0.000000
      f-1     :     0.000000
      f+2     :     0.000000
      f-2     :     0.000000
      f+3     :     0.000000
      f-3     :     0.000000


                     *******************************
                     * LOEWDIN POPULATION ANALYSIS *
                     *******************************

----------------------
LOEWDIN ATOMIC CHARGES
----------------------
   0 Ar:   16.000000

-------------------------------
LOEWDIN REDUCED ORBITAL CHARGES
-------------------------------
  0 Ars       :     2.000000  s :     2.000000
      pz      :     0.000000  p :     0.000000
      px      :     0.000000
      py      :     0.000000
      dz2     :     0.000000  d :     0.000000
      dxz     :     0.000000
      dyz     :     0.000000
      dx2y2   :     0.000000
      dxy     :     0.000000
      f0      :     0.000000  f :     0.000000
      f+1     :     0.000000
      f-1     :     0.000000
      f+2     :     0.000000
      f-2     :     0.000000
      f+3     :     0.000000
      f-3     :     0.000000


                      *****************************
                      * MAYER POPULATION ANALYSIS *
                      *****************************

  NA   - Mulliken gross atomic population
  ZA   - Total nuclear charge
  QA   - Mulliken gross atomic charge
  VA   - Mayer's total valence
  BVA  - Mayer's bonded valence
  FA   - Mayer's free valence

  ATOM       NA         ZA         QA         VA         BVA        FA
  0 Ar     2.0000    18.0000    16.0000    -0.0000     0.0000    -0.0000

  Mayer bond orders larger than 0.100000


--------------------------
ATOM BASIS FOR ELEMENT Ar
--------------------------
 NewGTO Ar
 S 43
    1     545000.000000000000         0.000074756857
    2      81640.000000000000         0.000580745396
    3      18580.000000000000         0.003047114222
    4       5261.000000000000         0.012740537956
    5       1717.000000000000         0.044974688900
    6        619.900000000000         0.135111029363
    7        241.600000000000         0.330021902888
    8         99.790000000000         0.585129178225
    9         43.150000000000         0.573291489535
   10         19.140000000000         0.193959003960
   11          7.488000000000         0.009187246920
   12          3.205000000000         0.000792907019
   13          0.520400000000         0.000047892782
   14     545000.000000000000        -0.000014334717
   15      81640.000000000000        -0.000111122798
   16      18580.000000000000        -0.000585979456
   17       5261.000000000000        -0.002449729460
   18       1717.000000000000        -0.008817027733
   19        619.900000000000        -0.027197910105
   20        241.600000000000        -0.072784835300
   21         99.790000000000        -0.152631746387
   22         43.150000000000        -0.223102021313
   23         19.140000000000        -0.045679759890
   24          7.488000000000         0.536294637157
   25          3.205000000000         0.640906835257
   26          0.520400000000        -0.008050317161
   27     545000.000000000000        -0.000000714084
   28      81640.000000000000        -0.000005531046
   29      18580.000000000000        -0.000029206946
   30       5261.000000000000        -0.000121954858
   31       1717.000000000000        -0.000440433391
   32        619.900000000000        -0.001359568985
   33        241.600000000000        -0.003680075856
   34         99.790000000000        -0.007828055988
   35         43.150000000000        -0.011993809324
   36         19.140000000000        -0.002492303929
   37          7.488000000000         0.036584764767
   38          3.205000000000         0.074944557737
   39          0.520400000000        -0.129354188519
   40          1.196000000000         0.241379890847
   41          0.195400000000         0.036207618991
   42         17.362000000000        -0.429446803189
   43          3.378000000000        -1.178690516189
 S 43
    1     545000.000000000000        -0.000013961239
    2      81640.000000000000        -0.000108457280
    3      18580.000000000000        -0.000569064730
    4       5261.000000000000        -0.002379362986
    5       1717.000000000000        -0.008399261509
    6        619.900000000000        -0.025232700795
    7        241.600000000000        -0.061633339414
    8         99.790000000000        -0.109275975101
    9         43.150000000000        -0.107065224001
   10         19.140000000000        -0.036222871933
   11          7.488000000000        -0.001715767053
   12          3.205000000000        -0.000148079588
   13          0.520400000000        -0.000008944231
   14     545000.000000000000        -0.000009999443
   15      81640.000000000000        -0.000077515730
   16      18580.000000000000        -0.000408760635
   17       5261.000000000000        -0.001708853372
   18       1717.000000000000        -0.006150478171
   19        619.900000000000        -0.018972397214
   20        241.600000000000        -0.050772386598
   21         99.790000000000        -0.106471052695
   22         43.150000000000        -0.155628875577
   23         19.140000000000        -0.031864747914
   24          7.488000000000         0.374102085079
   25          3.205000000000         0.447076227878
   26          0.520400000000        -0.005615645257
   27     545000.000000000000         0.000000804277
   28      81640.000000000000         0.000006229644
   29      18580.000000000000         0.000032895928
   30       5261.000000000000         0.000137358363
   31       1717.000000000000         0.000496062317
   32        619.900000000000         0.001531289304
   33        241.600000000000         0.004144887724
   34         99.790000000000         0.008816778359
   35         43.150000000000         0.013508687042
   36         19.140000000000         0.002807094300
   37          7.488000000000        -0.041205602355
   38          3.205000000000        -0.084410427796
   39          0.520400000000         0.145692265319
   40          1.196000000000        -0.259532767364
   41          0.195400000000        -0.036085706843
   42         17.362000000000         0.516202161119
   43          3.378000000000         0.238855666012
 S 43
    1     545000.000000000000        -0.000003261834
    2      81640.000000000000        -0.000025339414
    3      18580.000000000000        -0.000132953425
    4       5261.000000000000        -0.000555902414
    5       1717.000000000000        -0.001962361262
    6        619.900000000000        -0.005895241448
    7        241.600000000000        -0.014399703784
    8         99.790000000000        -0.025530689837
    9         43.150000000000        -0.025014181056
   10         19.140000000000        -0.008462929820
   11          7.488000000000        -0.000400863194
   12          3.205000000000        -0.000034596571
   13          0.520400000000        -0.000002089685
   14     545000.000000000000         0.000016053960
   15      81640.000000000000         0.000124450377
   16      18580.000000000000         0.000656259251
   17       5261.000000000000         0.002743539221
   18       1717.000000000000         0.009874503199
   19        619.900000000000         0.030459907633
   20        241.600000000000         0.081514327820
   21         99.790000000000         0.170937725687
   22         43.150000000000         0.249859894958
   23         19.140000000000         0.051158389067
   24          7.488000000000        -0.600615453495
   25          3.205000000000        -0.717774377806
   26          0.520400000000         0.009015836738
   27     545000.000000000000        -0.000002207743
   28      81640.000000000000        -0.000017100400
   29      18580.000000000000        -0.000090299460
   30       5261.000000000000        -0.000377049282
   31       1717.000000000000        -0.001361693143
   32        619.900000000000        -0.004203395565
   33        241.600000000000        -0.011377734200
   34         99.790000000000        -0.024202093602
   35         43.150000000000        -0.037081402629
   36         19.140000000000        -0.007705485636
   37          7.488000000000         0.113109551413
   38          3.205000000000         0.231706978589
   39          0.520400000000        -0.399925879805
   40          1.196000000000         1.554050862379
   41          0.195400000000         0.096403218684
   42         17.362000000000        -0.481640302931
   43          3.378000000000         0.356017070978
 S 43
    1     545000.000000000000        -0.000009746512
    2      81640.000000000000        -0.000075715353
    3      18580.000000000000        -0.000397271045
    4       5261.000000000000        -0.001661062387
    5       1717.000000000000        -0.005863627137
    6        619.900000000000        -0.017615256885
    7        241.600000000000        -0.043026987688
    8         99.790000000000        -0.076286894073
    9         43.150000000000        -0.074743541705
   10         19.140000000000        -0.025287629707
   11          7.488000000000        -0.001197797954
   12          3.205000000000        -0.000103376171
   13          0.520400000000        -0.000006244077
   14     545000.000000000000         0.000028643427
   15      81640.000000000000         0.000222043988
   16      18580.000000000000         0.001170895781
   17       5261.000000000000         0.004895014422
   18       1717.000000000000         0.017618058895
   19        619.900000000000         0.054346475545
   20        241.600000000000         0.145437618419
   21         99.790000000000         0.304986575818
   22         43.150000000000         0.445799272754
   23         19.140000000000         0.091276643837
   24          7.488000000000        -1.071616284871
   25          3.205000000000        -1.280650885095
   26          0.520400000000         0.016086028780
   27     545000.000000000000        -0.000013407354
   28      81640.000000000000        -0.000103848647
   29      18580.000000000000        -0.000548377637
   30       5261.000000000000        -0.002289774418
   31       1717.000000000000        -0.008269396785
   32        619.900000000000        -0.025526709863
   33        241.600000000000        -0.069095595524
   34         99.790000000000        -0.146976369897
   35         43.150000000000        -0.225190846659
   36         19.140000000000        -0.046794476783
   37          7.488000000000         0.686900544267
   38          3.205000000000         1.407128290358
   39          0.520400000000        -2.428701211096
   40          1.196000000000         1.966713308829
   41          0.195400000000         0.197718775398
   42         17.362000000000        -0.403923737035
   43          3.378000000000         0.173936482195
 S 43
    1     545000.000000000000        -0.000010907977
    2      81640.000000000000        -0.000084738142
    3      18580.000000000000        -0.000444612733
    4       5261.000000000000        -0.001859006582
    5       1717.000000000000        -0.006562379312
    6        619.900000000000        -0.019714418167
    7        241.600000000000        -0.048154394415
    8         99.790000000000        -0.085377791551
    9         43.150000000000        -0.083650522163
   10         19.140000000000        -0.028301086368
   11          7.488000000000        -0.001340536213
   12          3.205000000000        -0.000115695222
   13          0.520400000000        -0.000006988166
   14     545000.000000000000         0.000030751952
   15      81640.000000000000         0.000238389285
   16      18580.000000000000         0.001257088786
   17       5261.000000000000         0.005255350509
   18       1717.000000000000         0.018914974871
   19        619.900000000000         0.058347075882
   20        241.600000000000         0.156143699714
   21         99.790000000000         0.327437514647
   22         43.150000000000         0.478615839109
   23         19.140000000000         0.097995780054
   24          7.488000000000        -1.150501041012
   25          3.205000000000        -1.374923279234
   26          0.520400000000         0.017270167614
   27     545000.000000000000        -0.000016972092
   28      81640.000000000000        -0.000131459850
   29      18580.000000000000        -0.000694179888
   30       5261.000000000000        -0.002898577988
   31       1717.000000000000        -0.010468058034
   32        619.900000000000        -0.032313733059
   33        241.600000000000        -0.087466682596
   34         99.790000000000        -0.186054341054
   35         43.150000000000        -0.285064426451
   36         19.140000000000        -0.059236158499
   37          7.488000000000         0.869533165251
   38          3.205000000000         1.781254544694
   39          0.520400000000        -3.074442536343
   40          1.196000000000         1.134176903228
   41          0.195400000000         2.289757527685
   42         17.362000000000        -0.311501291768
   43          3.378000000000         0.115086609618
 S 43
    1     545000.000000000000        -0.000028978055
    2      81640.000000000000        -0.000225114758
    3      18580.000000000000        -0.001181155089
    4       5261.000000000000        -0.004938623940
    5       1717.000000000000        -0.017433571179
    6        619.900000000000        -0.052373186010
    7        241.600000000000        -0.127926628853
    8         99.790000000000        -0.226814046457
    9         43.150000000000        -0.222225394631
   10         19.140000000000        -0.075184468955
   11          7.488000000000        -0.003561259167
   12          3.205000000000        -0.000307355121
   13          0.520400000000        -0.000018564714
   14     545000.000000000000         0.000013980985
   15      81640.000000000000         0.000108380665
   16      18580.000000000000         0.000571519474
   17       5261.000000000000         0.002389278460
   18       1717.000000000000         0.008599453443
   19        619.900000000000         0.026526758085
   20        241.600000000000         0.070988752841
   21         99.790000000000         0.148865313431
   22         43.150000000000         0.217596621386
   23         19.140000000000         0.044552538607
   24          7.488000000000        -0.523060707500
   25          3.205000000000        -0.625091431957
   26          0.520400000000         0.007851662683
   27     545000.000000000000         0.000023232542
   28      81640.000000000000         0.000179951090
   29      18580.000000000000         0.000950240151
   30       5261.000000000000         0.003967768637
   31       1717.000000000000         0.014329382383
   32        619.900000000000         0.044233212664
   33        241.600000000000         0.119730282020
   34         99.790000000000         0.254683704290
   35         43.150000000000         0.390215372985
   36         19.140000000000         0.081086440601
   37          7.488000000000        -1.190275519905
   38          3.205000000000        -2.438301106845
   39          0.520400000000         4.208503866911
   40          1.196000000000        -5.602002279295
   41          0.195400000000        -1.369321726560
   42         17.362000000000        -1.056475437605
   43          3.378000000000         7.828117912696
 S 43
    1     545000.000000000000         0.000276670828
    2      81640.000000000000         0.002149305301
    3      18580.000000000000         0.011277194446
    4       5261.000000000000         0.047151998054
    5       1717.000000000000         0.166448736378
    6        619.900000000000         0.500038147199
    7        241.600000000000         1.221392077560
    8         99.790000000000         2.165529428137
    9         43.150000000000         2.121718823278
   10         19.140000000000         0.717831115861
   11          7.488000000000         0.034001472342
   12          3.205000000000         0.002934503264
   13          0.520400000000         0.000177248433
   14     545000.000000000000        -0.000164085925
   15      81640.000000000000        -0.001271994913
   16      18580.000000000000        -0.006707560459
   17       5261.000000000000        -0.028041441197
   18       1717.000000000000        -0.100926313983
   19        619.900000000000        -0.311327682998
   20        241.600000000000        -0.833149828200
   21         99.790000000000        -1.747137473837
   22         43.150000000000        -2.553793107609
   23         19.140000000000        -0.522884800767
   24          7.488000000000         6.138830746396
   25          3.205000000000         7.336300446172
   26          0.520400000000        -0.092149969589
   27     545000.000000000000        -0.000008836064
   28      81640.000000000000        -0.000068441040
   29      18580.000000000000        -0.000361406112
   30       5261.000000000000        -0.001509066769
   31       1717.000000000000        -0.005449913227
   32        619.900000000000        -0.016823277121
   33        241.600000000000        -0.045537178805
   34         99.790000000000        -0.096864194965
   35         43.150000000000        -0.148411136365
   36         19.140000000000        -0.030839714749
   37          7.488000000000         0.452699085494
   38          3.205000000000         0.927362331468
   39          0.520400000000        -1.600625922309
   40          1.196000000000         2.972182811063
   41          0.195400000000         0.449451199676
   42         17.362000000000        -3.058328679865
   43          3.378000000000       -13.862063622516
 P 18
    1        761.800000000000         0.004180774206
    2        180.200000000000         0.033555257629
    3         57.500000000000         0.155393592010
    4         21.240000000000         0.452305021857
    5          8.388000000000         0.773982020399
    6          3.416000000000         0.613187626588
    7          0.452300000000        -0.009242422661
    8        761.800000000000        -0.000057835028
    9        180.200000000000        -0.000461768507
   10         57.500000000000        -0.002214667132
   11         21.240000000000        -0.006563517375
   12          8.388000000000        -0.012233657789
   13          3.416000000000        -0.008085397822
   14          0.452300000000         0.048754159716
   15          1.206000000000        -0.093580142464
   16          0.154500000000        -0.011503439154
   17         11.019000000000        -0.198473399967
   18          4.307000000000        -0.564766082749
 P 18
    1        761.800000000000         0.002813782004
    2        180.200000000000         0.022583659249
    3         57.500000000000         0.104584383474
    4         21.240000000000         0.304414366391
    5          8.388000000000         0.520912293591
    6          3.416000000000         0.412693014242
    7          0.452300000000        -0.006220417865
    8        761.800000000000        -0.000238880981
    9        180.200000000000        -0.001907282098
   10         57.500000000000        -0.009147429730
   11         21.240000000000        -0.027109859132
   12          8.388000000000        -0.050529726727
   13          3.416000000000        -0.033395812560
   14          0.452300000000         0.201373490238
   15          1.206000000000        -0.820783032288
   16          0.154500000000        -0.054868571937
   17         11.019000000000         0.005866485151
   18          4.307000000000        -1.067927697922
 P 18
    1        761.800000000000         0.003166812674
    2        180.200000000000         0.025417114125
    3         57.500000000000         0.117706044939
    4         21.240000000000         0.342607661874
    5          8.388000000000         0.586268463819
    6          3.416000000000         0.464471471427
    7          0.452300000000        -0.007000861509
    8        761.800000000000        -0.001329010962
    9        180.200000000000        -0.010611136996
   10         57.500000000000        -0.050891596017
   11         21.240000000000        -0.150825318126
   12          8.388000000000        -0.281121420490
   13          3.416000000000        -0.185797131179
   14          0.452300000000         1.120338566844
   15          1.206000000000        -0.049386745498
   16          0.154500000000        -0.156793339164
   17         11.019000000000         0.090508131799
   18          4.307000000000        -1.199356248274
 P 18
    1        761.800000000000         0.001442355926
    2        180.200000000000         0.011576474191
    3         57.500000000000         0.053610373888
    4         21.240000000000         0.156044023563
    5          8.388000000000         0.267021728242
    6          3.416000000000         0.211548092168
    7          0.452300000000        -0.003188611114
    8        761.800000000000         0.000173632405
    9        180.200000000000         0.001386322078
   10         57.500000000000         0.006648876851
   11         21.240000000000         0.019705001312
   12          8.388000000000         0.036727905026
   13          3.416000000000         0.024273992982
   14          0.452300000000        -0.146369808491
   15          1.206000000000         1.040571797423
   16          0.154500000000        -0.895808477900
   17         11.019000000000         0.090210144611
   18          4.307000000000        -1.353185253484
 P 18
    1        761.800000000000        -0.000887950677
    2        180.200000000000        -0.007126769416
    3         57.500000000000        -0.033003897964
    4         21.240000000000        -0.096064635592
    5          8.388000000000        -0.164385308921
    6          3.416000000000        -0.130234339774
    7          0.452300000000         0.001962989403
    8        761.800000000000         0.002694838848
    9        180.200000000000         0.021516228995
   10         57.500000000000         0.103193016383
   11         21.240000000000         0.305828874362
   12          8.388000000000         0.570030606637
   13          3.416000000000         0.376741307059
   14          0.452300000000        -2.271713310870
   15          1.206000000000         2.037634690691
   16          0.154500000000         1.354411039226
   17         11.019000000000         0.060342363560
   18          4.307000000000        -1.689017992559
 P 18
    1        761.800000000000        -0.014747600262
    2        180.200000000000        -0.118365523183
    3         57.500000000000        -0.548147894459
    4         21.240000000000        -1.595497228538
    5          8.388000000000        -2.730206627854
    6          3.416000000000        -2.163007509355
    7          0.452300000000         0.032602467424
    8        761.800000000000         0.000732391958
    9        180.200000000000         0.005847590146
   10         57.500000000000         0.028045363614
   11         21.240000000000         0.083116884124
   12          8.388000000000         0.154920518796
   13          3.416000000000         0.102389166585
   14          0.452300000000        -0.617396681122
   15          1.206000000000         1.122198581765
   16          0.154500000000         0.184151226705
   17         11.019000000000         4.724802576966
   18          4.307000000000         0.971413496848
 D 4
    1          0.410000000000        -0.113619021147
    2          1.254000000000         0.541696084635
    3         20.706000000000         0.083241912132
    4          6.681000000000         0.675249553373
 D 4
    1          0.410000000000        -0.385934946955
    2          1.254000000000        -0.661278952731
    3         20.706000000000         0.091700465328
    4          6.681000000000         0.577063811675
 D 4
    1          0.410000000000         1.191611593403
    2          1.254000000000        -1.002828083387
    3         20.706000000000         0.075942525005
    4          6.681000000000         0.403442102147
 D 4
    1          0.410000000000        -0.140296729606
    2          1.254000000000         0.320154333406
    3         20.706000000000         1.248613889559
    4          6.681000000000        -0.929752187180
 F 2
    1          0.890000000000         0.998684904798
    2         13.674000000000         0.026473001225
 F 2
    1          0.890000000000        -0.062922507899
    2         13.674000000000         1.000314931048
 end
  // -----------------------------------------------
  // The basis set
  // -----------------------------------------------
  BAS[ATNO] = new BFNGauss[NSH];
  // Basis function   1 L = s
  InitBFNGauss(BAS[ATNO][  0]);
  BAS[ATNO][  0].l  = 0;
  BAS[ATNO][  0].ng = 43;
  BAS[ATNO][  0].a[  0] =    545000.000000000000;     BAS[ATNO][  0].d[  0] =        -0.000074756857;
  BAS[ATNO][  0].a[  1] =     81640.000000000000;     BAS[ATNO][  0].d[  1] =        -0.000580745396;
  BAS[ATNO][  0].a[  2] =     18580.000000000000;     BAS[ATNO][  0].d[  2] =        -0.003047114222;
  BAS[ATNO][  0].a[  3] =      5261.000000000000;     BAS[ATNO][  0].d[  3] =        -0.012740537956;
  BAS[ATNO][  0].a[  4] =      1717.000000000000;     BAS[ATNO][  0].d[  4] =        -0.044974688900;
  BAS[ATNO][  0].a[  5] =       619.900000000000;     BAS[ATNO][  0].d[  5] =        -0.135111029363;
  BAS[ATNO][  0].a[  6] =       241.600000000000;     BAS[ATNO][  0].d[  6] =        -0.330021902888;
  BAS[ATNO][  0].a[  7] =        99.790000000000;     BAS[ATNO][  0].d[  7] =        -0.585129178225;
  BAS[ATNO][  0].a[  8] =        43.150000000000;     BAS[ATNO][  0].d[  8] =        -0.573291489535;
  BAS[ATNO][  0].a[  9] =        19.140000000000;     BAS[ATNO][  0].d[  9] =        -0.193959003960;
  BAS[ATNO][  0].a[ 10] =         7.488000000000;     BAS[ATNO][  0].d[ 10] =        -0.009187246920;
  BAS[ATNO][  0].a[ 11] =         3.205000000000;     BAS[ATNO][  0].d[ 11] =        -0.000792907019;
  BAS[ATNO][  0].a[ 12] =         0.520400000000;     BAS[ATNO][  0].d[ 12] =        -0.000047892782;
  BAS[ATNO][  0].a[ 13] =    545000.000000000000;     BAS[ATNO][  0].d[ 13] =         0.000014334717;
  BAS[ATNO][  0].a[ 14] =     81640.000000000000;     BAS[ATNO][  0].d[ 14] =         0.000111122798;
  BAS[ATNO][  0].a[ 15] =     18580.000000000000;     BAS[ATNO][  0].d[ 15] =         0.000585979456;
  BAS[ATNO][  0].a[ 16] =      5261.000000000000;     BAS[ATNO][  0].d[ 16] =         0.002449729460;
  BAS[ATNO][  0].a[ 17] =      1717.000000000000;     BAS[ATNO][  0].d[ 17] =         0.008817027733;
  BAS[ATNO][  0].a[ 18] =       619.900000000000;     BAS[ATNO][  0].d[ 18] =         0.027197910105;
  BAS[ATNO][  0].a[ 19] =       241.600000000000;     BAS[ATNO][  0].d[ 19] =         0.072784835300;
  BAS[ATNO][  0].a[ 20] =        99.790000000000;     BAS[ATNO][  0].d[ 20] =         0.152631746387;
  BAS[ATNO][  0].a[ 21] =        43.150000000000;     BAS[ATNO][  0].d[ 21] =         0.223102021313;
  BAS[ATNO][  0].a[ 22] =        19.140000000000;     BAS[ATNO][  0].d[ 22] =         0.045679759890;
  BAS[ATNO][  0].a[ 23] =         7.488000000000;     BAS[ATNO][  0].d[ 23] =        -0.536294637157;
  BAS[ATNO][  0].a[ 24] =         3.205000000000;     BAS[ATNO][  0].d[ 24] =        -0.640906835257;
  BAS[ATNO][  0].a[ 25] =         0.520400000000;     BAS[ATNO][  0].d[ 25] =         0.008050317161;
  BAS[ATNO][  0].a[ 26] =    545000.000000000000;     BAS[ATNO][  0].d[ 26] =         0.000000714084;
  BAS[ATNO][  0].a[ 27] =     81640.000000000000;     BAS[ATNO][  0].d[ 27] =         0.000005531046;
  BAS[ATNO][  0].a[ 28] =     18580.000000000000;     BAS[ATNO][  0].d[ 28] =         0.000029206946;
  BAS[ATNO][  0].a[ 29] =      5261.000000000000;     BAS[ATNO][  0].d[ 29] =         0.000121954858;
  BAS[ATNO][  0].a[ 30] =      1717.000000000000;     BAS[ATNO][  0].d[ 30] =         0.000440433391;
  BAS[ATNO][  0].a[ 31] =       619.900000000000;     BAS[ATNO][  0].d[ 31] =         0.001359568985;
  BAS[ATNO][  0].a[ 32] =       241.600000000000;     BAS[ATNO][  0].d[ 32] =         0.003680075856;
  BAS[ATNO][  0].a[ 33] =        99.790000000000;     BAS[ATNO][  0].d[ 33] =         0.007828055988;
  BAS[ATNO][  0].a[ 34] =        43.150000000000;     BAS[ATNO][  0].d[ 34] =         0.011993809324;
  BAS[ATNO][  0].a[ 35] =        19.140000000000;     BAS[ATNO][  0].d[ 35] =         0.002492303929;
  BAS[ATNO][  0].a[ 36] =         7.488000000000;     BAS[ATNO][  0].d[ 36] =        -0.036584764767;
  BAS[ATNO][  0].a[ 37] =         3.205000000000;     BAS[ATNO][  0].d[ 37] =        -0.074944557737;
  BAS[ATNO][  0].a[ 38] =         0.520400000000;     BAS[ATNO][  0].d[ 38] =         0.129354188519;
  BAS[ATNO][  0].a[ 39] =         1.196000000000;     BAS[ATNO][  0].d[ 39] =        -0.241379890847;
  BAS[ATNO][  0].a[ 40] =         0.195400000000;     BAS[ATNO][  0].d[ 40] =        -0.036207618991;
  BAS[ATNO][  0].a[ 41] =        17.362000000000;     BAS[ATNO][  0].d[ 41] =         0.429446803189;
  BAS[ATNO][  0].a[ 42] =         3.378000000000;     BAS[ATNO][  0].d[ 42] =         1.178690516189;

  // Basis function   2 L = s
  InitBFNGauss(BAS[ATNO][  1]);
  BAS[ATNO][  1].l  = 0;
  BAS[ATNO][  1].ng = 43;
  BAS[ATNO][  1].a[  0] =    545000.000000000000;     BAS[ATNO][  1].d[  0] =        -0.000013961239;
  BAS[ATNO][  1].a[  1] =     81640.000000000000;     BAS[ATNO][  1].d[  1] =        -0.000108457280;
  BAS[ATNO][  1].a[  2] =     18580.000000000000;     BAS[ATNO][  1].d[  2] =        -0.000569064730;
  BAS[ATNO][  1].a[  3] =      5261.000000000000;     BAS[ATNO][  1].d[  3] =        -0.002379362986;
  BAS[ATNO][  1].a[  4] =      1717.000000000000;     BAS[ATNO][  1].d[  4] =        -0.008399261509;
  BAS[ATNO][  1].a[  5] =       619.900000000000;     BAS[ATNO][  1].d[  5] =        -0.025232700795;
  BAS[ATNO][  1].a[  6] =       241.600000000000;     BAS[ATNO][  1].d[  6] =        -0.061633339414;
  BAS[ATNO][  1].a[  7] =        99.790000000000;     BAS[ATNO][  1].d[  7] =        -0.109275975101;
  BAS[ATNO][  1].a[  8] =        43.150000000000;     BAS[ATNO][  1].d[  8] =        -0.107065224001;
  BAS[ATNO][  1].a[  9] =        19.140000000000;     BAS[ATNO][  1].d[  9] =        -0.036222871933;
  BAS[ATNO][  1].a[ 10] =         7.488000000000;     BAS[ATNO][  1].d[ 10] =        -0.001715767053;
  BAS[ATNO][  1].a[ 11] =         3.205000000000;     BAS[ATNO][  1].d[ 11] =        -0.000148079588;
  BAS[ATNO][  1].a[ 12] =         0.520400000000;     BAS[ATNO][  1].d[ 12] =        -0.000008944231;
  BAS[ATNO][  1].a[ 13] =    545000.000000000000;     BAS[ATNO][  1].d[ 13] =        -0.000009999443;
  BAS[ATNO][  1].a[ 14] =     81640.000000000000;     BAS[ATNO][  1].d[ 14] =        -0.000077515730;
  BAS[ATNO][  1].a[ 15] =     18580.000000000000;     BAS[ATNO][  1].d[ 15] =        -0.000408760635;
  BAS[ATNO][  1].a[ 16] =      5261.000000000000;     BAS[ATNO][  1].d[ 16] =        -0.001708853372;
  BAS[ATNO][  1].a[ 17] =      1717.000000000000;     BAS[ATNO][  1].d[ 17] =        -0.006150478171;
  BAS[ATNO][  1].a[ 18] =       619.900000000000;     BAS[ATNO][  1].d[ 18] =        -0.018972397214;
  BAS[ATNO][  1].a[ 19] =       241.600000000000;     BAS[ATNO][  1].d[ 19] =        -0.050772386598;
  BAS[ATNO][  1].a[ 20] =        99.790000000000;     BAS[ATNO][  1].d[ 20] =        -0.106471052695;
  BAS[ATNO][  1].a[ 21] =        43.150000000000;     BAS[ATNO][  1].d[ 21] =        -0.155628875577;
  BAS[ATNO][  1].a[ 22] =        19.140000000000;     BAS[ATNO][  1].d[ 22] =        -0.031864747914;
  BAS[ATNO][  1].a[ 23] =         7.488000000000;     BAS[ATNO][  1].d[ 23] =         0.374102085079;
  BAS[ATNO][  1].a[ 24] =         3.205000000000;     BAS[ATNO][  1].d[ 24] =         0.447076227878;
  BAS[ATNO][  1].a[ 25] =         0.520400000000;     BAS[ATNO][  1].d[ 25] =        -0.005615645257;
  BAS[ATNO][  1].a[ 26] =    545000.000000000000;     BAS[ATNO][  1].d[ 26] =         0.000000804277;
  BAS[ATNO][  1].a[ 27] =     81640.000000000000;     BAS[ATNO][  1].d[ 27] =         0.000006229644;
  BAS[ATNO][  1].a[ 28] =     18580.000000000000;     BAS[ATNO][  1].d[ 28] =         0.000032895928;
  BAS[ATNO][  1].a[ 29] =      5261.000000000000;     BAS[ATNO][  1].d[ 29] =         0.000137358363;
  BAS[ATNO][  1].a[ 30] =      1717.000000000000;     BAS[ATNO][  1].d[ 30] =         0.000496062317;
  BAS[ATNO][  1].a[ 31] =       619.900000000000;     BAS[ATNO][  1].d[ 31] =         0.001531289304;
  BAS[ATNO][  1].a[ 32] =       241.600000000000;     BAS[ATNO][  1].d[ 32] =         0.004144887724;
  BAS[ATNO][  1].a[ 33] =        99.790000000000;     BAS[ATNO][  1].d[ 33] =         0.008816778359;
  BAS[ATNO][  1].a[ 34] =        43.150000000000;     BAS[ATNO][  1].d[ 34] =         0.013508687042;
  BAS[ATNO][  1].a[ 35] =        19.140000000000;     BAS[ATNO][  1].d[ 35] =         0.002807094300;
  BAS[ATNO][  1].a[ 36] =         7.488000000000;     BAS[ATNO][  1].d[ 36] =        -0.041205602355;
  BAS[ATNO][  1].a[ 37] =         3.205000000000;     BAS[ATNO][  1].d[ 37] =        -0.084410427796;
  BAS[ATNO][  1].a[ 38] =         0.520400000000;     BAS[ATNO][  1].d[ 38] =         0.145692265319;
  BAS[ATNO][  1].a[ 39] =         1.196000000000;     BAS[ATNO][  1].d[ 39] =        -0.259532767364;
  BAS[ATNO][  1].a[ 40] =         0.195400000000;     BAS[ATNO][  1].d[ 40] =        -0.036085706843;
  BAS[ATNO][  1].a[ 41] =        17.362000000000;     BAS[ATNO][  1].d[ 41] =         0.516202161119;
  BAS[ATNO][  1].a[ 42] =         3.378000000000;     BAS[ATNO][  1].d[ 42] =         0.238855666012;

  // Basis function   3 L = s
  InitBFNGauss(BAS[ATNO][  2]);
  BAS[ATNO][  2].l  = 0;
  BAS[ATNO][  2].ng = 43;
  BAS[ATNO][  2].a[  0] =    545000.000000000000;     BAS[ATNO][  2].d[  0] =        -0.000003261834;
  BAS[ATNO][  2].a[  1] =     81640.000000000000;     BAS[ATNO][  2].d[  1] =        -0.000025339414;
  BAS[ATNO][  2].a[  2] =     18580.000000000000;     BAS[ATNO][  2].d[  2] =        -0.000132953425;
  BAS[ATNO][  2].a[  3] =      5261.000000000000;     BAS[ATNO][  2].d[  3] =        -0.000555902414;
  BAS[ATNO][  2].a[  4] =      1717.000000000000;     BAS[ATNO][  2].d[  4] =        -0.001962361262;
  BAS[ATNO][  2].a[  5] =       619.900000000000;     BAS[ATNO][  2].d[  5] =        -0.005895241448;
  BAS[ATNO][  2].a[  6] =       241.600000000000;     BAS[ATNO][  2].d[  6] =        -0.014399703784;
  BAS[ATNO][  2].a[  7] =        99.790000000000;     BAS[ATNO][  2].d[  7] =        -0.025530689837;
  BAS[ATNO][  2].a[  8] =        43.150000000000;     BAS[ATNO][  2].d[  8] =        -0.025014181056;
  BAS[ATNO][  2].a[  9] =        19.140000000000;     BAS[ATNO][  2].d[  9] =        -0.008462929820;
  BAS[ATNO][  2].a[ 10] =         7.488000000000;     BAS[ATNO][  2].d[ 10] =        -0.000400863194;
  BAS[ATNO][  2].a[ 11] =         3.205000000000;     BAS[ATNO][  2].d[ 11] =        -0.000034596571;
  BAS[ATNO][  2].a[ 12] =         0.520400000000;     BAS[ATNO][  2].d[ 12] =        -0.000002089685;
  BAS[ATNO][  2].a[ 13] =    545000.000000000000;     BAS[ATNO][  2].d[ 13] =         0.000016053960;
  BAS[ATNO][  2].a[ 14] =     81640.000000000000;     BAS[ATNO][  2].d[ 14] =         0.000124450377;
  BAS[ATNO][  2].a[ 15] =     18580.000000000000;     BAS[ATNO][  2].d[ 15] =         0.000656259251;
  BAS[ATNO][  2].a[ 16] =      5261.000000000000;     BAS[ATNO][  2].d[ 16] =         0.002743539221;
  BAS[ATNO][  2].a[ 17] =      1717.000000000000;     BAS[ATNO][  2].d[ 17] =         0.009874503199;
  BAS[ATNO][  2].a[ 18] =       619.900000000000;     BAS[ATNO][  2].d[ 18] =         0.030459907633;
  BAS[ATNO][  2].a[ 19] =       241.600000000000;     BAS[ATNO][  2].d[ 19] =         0.081514327820;
  BAS[ATNO][  2].a[ 20] =        99.790000000000;     BAS[ATNO][  2].d[ 20] =         0.170937725687;
  BAS[ATNO][  2].a[ 21] =        43.150000000000;     BAS[ATNO][  2].d[ 21] =         0.249859894958;
  BAS[ATNO][  2].a[ 22] =        19.140000000000;     BAS[ATNO][  2].d[ 22] =         0.051158389067;
  BAS[ATNO][  2].a[ 23] =         7.488000000000;     BAS[ATNO][  2].d[ 23] =        -0.600615453495;
  BAS[ATNO][  2].a[ 24] =         3.205000000000;     BAS[ATNO][  2].d[ 24] =        -0.717774377806;
  BAS[ATNO][  2].a[ 25] =         0.520400000000;     BAS[ATNO][  2].d[ 25] =         0.009015836738;
  BAS[ATNO][  2].a[ 26] =    545000.000000000000;     BAS[ATNO][  2].d[ 26] =        -0.000002207743;
  BAS[ATNO][  2].a[ 27] =     81640.000000000000;     BAS[ATNO][  2].d[ 27] =        -0.000017100400;
  BAS[ATNO][  2].a[ 28] =     18580.000000000000;     BAS[ATNO][  2].d[ 28] =        -0.000090299460;
  BAS[ATNO][  2].a[ 29] =      5261.000000000000;     BAS[ATNO][  2].d[ 29] =        -0.000377049282;
  BAS[ATNO][  2].a[ 30] =      1717.000000000000;     BAS[ATNO][  2].d[ 30] =        -0.001361693143;
  BAS[ATNO][  2].a[ 31] =       619.900000000000;     BAS[ATNO][  2].d[ 31] =        -0.004203395565;
  BAS[ATNO][  2].a[ 32] =       241.600000000000;     BAS[ATNO][  2].d[ 32] =        -0.011377734200;
  BAS[ATNO][  2].a[ 33] =        99.790000000000;     BAS[ATNO][  2].d[ 33] =        -0.024202093602;
  BAS[ATNO][  2].a[ 34] =        43.150000000000;     BAS[ATNO][  2].d[ 34] =        -0.037081402629;
  BAS[ATNO][  2].a[ 35] =        19.140000000000;     BAS[ATNO][  2].d[ 35] =        -0.007705485636;
  BAS[ATNO][  2].a[ 36] =         7.488000000000;     BAS[ATNO][  2].d[ 36] =         0.113109551413;
  BAS[ATNO][  2].a[ 37] =         3.205000000000;     BAS[ATNO][  2].d[ 37] =         0.231706978589;
  BAS[ATNO][  2].a[ 38] =         0.520400000000;     BAS[ATNO][  2].d[ 38] =        -0.399925879805;
  BAS[ATNO][  2].a[ 39] =         1.196000000000;     BAS[ATNO][  2].d[ 39] =         1.554050862379;
  BAS[ATNO][  2].a[ 40] =         0.195400000000;     BAS[ATNO][  2].d[ 40] =         0.096403218684;
  BAS[ATNO][  2].a[ 41] =        17.362000000000;     BAS[ATNO][  2].d[ 41] =        -0.481640302931;
  BAS[ATNO][  2].a[ 42] =         3.378000000000;     BAS[ATNO][  2].d[ 42] =         0.356017070978;

  // Basis function   4 L = s
  InitBFNGauss(BAS[ATNO][  3]);
  BAS[ATNO][  3].l  = 0;
  BAS[ATNO][  3].ng = 43;
  BAS[ATNO][  3].a[  0] =    545000.000000000000;     BAS[ATNO][  3].d[  0] =         0.000009746512;
  BAS[ATNO][  3].a[  1] =     81640.000000000000;     BAS[ATNO][  3].d[  1] =         0.000075715353;
  BAS[ATNO][  3].a[  2] =     18580.000000000000;     BAS[ATNO][  3].d[  2] =         0.000397271045;
  BAS[ATNO][  3].a[  3] =      5261.000000000000;     BAS[ATNO][  3].d[  3] =         0.001661062387;
  BAS[ATNO][  3].a[  4] =      1717.000000000000;     BAS[ATNO][  3].d[  4] =         0.005863627137;
  BAS[ATNO][  3].a[  5] =       619.900000000000;     BAS[ATNO][  3].d[  5] =         0.017615256885;
  BAS[ATNO][  3].a[  6] =       241.600000000000;     BAS[ATNO][  3].d[  6] =         0.043026987688;
  BAS[ATNO][  3].a[  7] =        99.790000000000;     BAS[ATNO][  3].d[  7] =         0.076286894073;
  BAS[ATNO][  3].a[  8] =        43.150000000000;     BAS[ATNO][  3].d[  8] =         0.074743541705;
  BAS[ATNO][  3].a[  9] =        19.140000000000;     BAS[ATNO][  3].d[  9] =         0.025287629707;
  BAS[ATNO][  3].a[ 10] =         7.488000000000;     BAS[ATNO][  3].d[ 10] =         0.001197797954;
  BAS[ATNO][  3].a[ 11] =         3.205000000000;     BAS[ATNO][  3].d[ 11] =         0.000103376171;
  BAS[ATNO][  3].a[ 12] =         0.520400000000;     BAS[ATNO][  3].d[ 12] =         0.000006244077;
  BAS[ATNO][  3].a[ 13] =    545000.000000000000;     BAS[ATNO][  3].d[ 13] =        -0.000028643427;
  BAS[ATNO][  3].a[ 14] =     81640.000000000000;     BAS[ATNO][  3].d[ 14] =        -0.000222043988;
  BAS[ATNO][  3].a[ 15] =     18580.000000000000;     BAS[ATNO][  3].d[ 15] =        -0.001170895781;
  BAS[ATNO][  3].a[ 16] =      5261.000000000000;     BAS[ATNO][  3].d[ 16] =        -0.004895014422;
  BAS[ATNO][  3].a[ 17] =      1717.000000000000;     BAS[ATNO][  3].d[ 17] =        -0.017618058895;
  BAS[ATNO][  3].a[ 18] =       619.900000000000;     BAS[ATNO][  3].d[ 18] =        -0.054346475545;
  BAS[ATNO][  3].a[ 19] =       241.600000000000;     BAS[ATNO][  3].d[ 19] =        -0.145437618419;
  BAS[ATNO][  3].a[ 20] =        99.790000000000;     BAS[ATNO][  3].d[ 20] =        -0.304986575818;
  BAS[ATNO][  3].a[ 21] =        43.150000000000;     BAS[ATNO][  3].d[ 21] =        -0.445799272754;
  BAS[ATNO][  3].a[ 22] =        19.140000000000;     BAS[ATNO][  3].d[ 22] =        -0.091276643837;
  BAS[ATNO][  3].a[ 23] =         7.488000000000;     BAS[ATNO][  3].d[ 23] =         1.071616284871;
  BAS[ATNO][  3].a[ 24] =         3.205000000000;     BAS[ATNO][  3].d[ 24] =         1.280650885095;
  BAS[ATNO][  3].a[ 25] =         0.520400000000;     BAS[ATNO][  3].d[ 25] =        -0.016086028780;
  BAS[ATNO][  3].a[ 26] =    545000.000000000000;     BAS[ATNO][  3].d[ 26] =         0.000013407354;
  BAS[ATNO][  3].a[ 27] =     81640.000000000000;     BAS[ATNO][  3].d[ 27] =         0.000103848647;
  BAS[ATNO][  3].a[ 28] =     18580.000000000000;     BAS[ATNO][  3].d[ 28] =         0.000548377637;
  BAS[ATNO][  3].a[ 29] =      5261.000000000000;     BAS[ATNO][  3].d[ 29] =         0.002289774418;
  BAS[ATNO][  3].a[ 30] =      1717.000000000000;     BAS[ATNO][  3].d[ 30] =         0.008269396785;
  BAS[ATNO][  3].a[ 31] =       619.900000000000;     BAS[ATNO][  3].d[ 31] =         0.025526709863;
  BAS[ATNO][  3].a[ 32] =       241.600000000000;     BAS[ATNO][  3].d[ 32] =         0.069095595524;
  BAS[ATNO][  3].a[ 33] =        99.790000000000;     BAS[ATNO][  3].d[ 33] =         0.146976369897;
  BAS[ATNO][  3].a[ 34] =        43.150000000000;     BAS[ATNO][  3].d[ 34] =         0.225190846659;
  BAS[ATNO][  3].a[ 35] =        19.140000000000;     BAS[ATNO][  3].d[ 35] =         0.046794476783;
  BAS[ATNO][  3].a[ 36] =         7.488000000000;     BAS[ATNO][  3].d[ 36] =        -0.686900544267;
  BAS[ATNO][  3].a[ 37] =         3.205000000000;     BAS[ATNO][  3].d[ 37] =        -1.407128290358;
  BAS[ATNO][  3].a[ 38] =         0.520400000000;     BAS[ATNO][  3].d[ 38] =         2.428701211096;
  BAS[ATNO][  3].a[ 39] =         1.196000000000;     BAS[ATNO][  3].d[ 39] =        -1.966713308829;
  BAS[ATNO][  3].a[ 40] =         0.195400000000;     BAS[ATNO][  3].d[ 40] =        -0.197718775398;
  BAS[ATNO][  3].a[ 41] =        17.362000000000;     BAS[ATNO][  3].d[ 41] =         0.403923737035;
  BAS[ATNO][  3].a[ 42] =         3.378000000000;     BAS[ATNO][  3].d[ 42] =        -0.173936482195;

  // Basis function   5 L = s
  InitBFNGauss(BAS[ATNO][  4]);
  BAS[ATNO][  4].l  = 0;
  BAS[ATNO][  4].ng = 43;
  BAS[ATNO][  4].a[  0] =    545000.000000000000;     BAS[ATNO][  4].d[  0] =         0.000010907977;
  BAS[ATNO][  4].a[  1] =     81640.000000000000;     BAS[ATNO][  4].d[  1] =         0.000084738142;
  BAS[ATNO][  4].a[  2] =     18580.000000000000;     BAS[ATNO][  4].d[  2] =         0.000444612733;
  BAS[ATNO][  4].a[  3] =      5261.000000000000;     BAS[ATNO][  4].d[  3] =         0.001859006582;
  BAS[ATNO][  4].a[  4] =      1717.000000000000;     BAS[ATNO][  4].d[  4] =         0.006562379312;
  BAS[ATNO][  4].a[  5] =       619.900000000000;     BAS[ATNO][  4].d[  5] =         0.019714418167;
  BAS[ATNO][  4].a[  6] =       241.600000000000;     BAS[ATNO][  4].d[  6] =         0.048154394415;
  BAS[ATNO][  4].a[  7] =        99.790000000000;     BAS[ATNO][  4].d[  7] =         0.085377791551;
  BAS[ATNO][  4].a[  8] =        43.150000000000;     BAS[ATNO][  4].d[  8] =         0.083650522163;
  BAS[ATNO][  4].a[  9] =        19.140000000000;     BAS[ATNO][  4].d[  9] =         0.028301086368;
  BAS[ATNO][  4].a[ 10] =         7.488000000000;     BAS[ATNO][  4].d[ 10] =         0.001340536213;
  BAS[ATNO][  4].a[ 11] =         3.205000000000;     BAS[ATNO][  4].d[ 11] =         0.000115695222;
  BAS[ATNO][  4].a[ 12] =         0.520400000000;     BAS[ATNO][  4].d[ 12] =         0.000006988166;
  BAS[ATNO][  4].a[ 13] =    545000.000000000000;     BAS[ATNO][  4].d[ 13] =        -0.000030751952;
  BAS[ATNO][  4].a[ 14] =     81640.000000000000;     BAS[ATNO][  4].d[ 14] =        -0.000238389285;
  BAS[ATNO][  4].a[ 15] =     18580.000000000000;     BAS[ATNO][  4].d[ 15] =        -0.001257088786;
  BAS[ATNO][  4].a[ 16] =      5261.000000000000;     BAS[ATNO][  4].d[ 16] =        -0.005255350509;
  BAS[ATNO][  4].a[ 17] =      1717.000000000000;     BAS[ATNO][  4].d[ 17] =        -0.018914974871;
  BAS[ATNO][  4].a[ 18] =       619.900000000000;     BAS[ATNO][  4].d[ 18] =        -0.058347075882;
  BAS[ATNO][  4].a[ 19] =       241.600000000000;     BAS[ATNO][  4].d[ 19] =        -0.156143699714;
  BAS[ATNO][  4].a[ 20] =        99.790000000000;     BAS[ATNO][  4].d[ 20] =        -0.327437514647;
  BAS[ATNO][  4].a[ 21] =        43.150000000000;     BAS[ATNO][  4].d[ 21] =        -0.478615839109;
  BAS[ATNO][  4].a[ 22] =        19.140000000000;     BAS[ATNO][  4].d[ 22] =        -0.097995780054;
  BAS[ATNO][  4].a[ 23] =         7.488000000000;     BAS[ATNO][  4].d[ 23] =         1.150501041012;
  BAS[ATNO][  4].a[ 24] =         3.205000000000;     BAS[ATNO][  4].d[ 24] =         1.374923279234;
  BAS[ATNO][  4].a[ 25] =         0.520400000000;     BAS[ATNO][  4].d[ 25] =        -0.017270167614;
  BAS[ATNO][  4].a[ 26] =    545000.000000000000;     BAS[ATNO][  4].d[ 26] =         0.000016972092;
  BAS[ATNO][  4].a[ 27] =     81640.000000000000;     BAS[ATNO][  4].d[ 27] =         0.000131459850;
  BAS[ATNO][  4].a[ 28] =     18580.000000000000;     BAS[ATNO][  4].d[ 28] =         0.000694179888;
  BAS[ATNO][  4].a[ 29] =      5261.000000000000;     BAS[ATNO][  4].d[ 29] =         0.002898577988;
  BAS[ATNO][  4].a[ 30] =      1717.000000000000;     BAS[ATNO][  4].d[ 30] =         0.010468058034;
  BAS[ATNO][  4].a[ 31] =       619.900000000000;     BAS[ATNO][  4].d[ 31] =         0.032313733059;
  BAS[ATNO][  4].a[ 32] =       241.600000000000;     BAS[ATNO][  4].d[ 32] =         0.087466682596;
  BAS[ATNO][  4].a[ 33] =        99.790000000000;     BAS[ATNO][  4].d[ 33] =         0.186054341054;
  BAS[ATNO][  4].a[ 34] =        43.150000000000;     BAS[ATNO][  4].d[ 34] =         0.285064426451;
  BAS[ATNO][  4].a[ 35] =        19.140000000000;     BAS[ATNO][  4].d[ 35] =         0.059236158499;
  BAS[ATNO][  4].a[ 36] =         7.488000000000;     BAS[ATNO][  4].d[ 36] =        -0.869533165251;
  BAS[ATNO][  4].a[ 37] =         3.205000000000;     BAS[ATNO][  4].d[ 37] =        -1.781254544694;
  BAS[ATNO][  4].a[ 38] =         0.520400000000;     BAS[ATNO][  4].d[ 38] =         3.074442536343;
  BAS[ATNO][  4].a[ 39] =         1.196000000000;     BAS[ATNO][  4].d[ 39] =        -1.134176903228;
  BAS[ATNO][  4].a[ 40] =         0.195400000000;     BAS[ATNO][  4].d[ 40] =        -2.289757527685;
  BAS[ATNO][  4].a[ 41] =        17.362000000000;     BAS[ATNO][  4].d[ 41] =         0.311501291768;
  BAS[ATNO][  4].a[ 42] =         3.378000000000;     BAS[ATNO][  4].d[ 42] =        -0.115086609618;

  // Basis function   6 L = s
  InitBFNGauss(BAS[ATNO][  5]);
  BAS[ATNO][  5].l  = 0;
  BAS[ATNO][  5].ng = 43;
  BAS[ATNO][  5].a[  0] =    545000.000000000000;     BAS[ATNO][  5].d[  0] =        -0.000028978055;
  BAS[ATNO][  5].a[  1] =     81640.000000000000;     BAS[ATNO][  5].d[  1] =        -0.000225114758;
  BAS[ATNO][  5].a[  2] =     18580.000000000000;     BAS[ATNO][  5].d[  2] =        -0.001181155089;
  BAS[ATNO][  5].a[  3] =      5261.000000000000;     BAS[ATNO][  5].d[  3] =        -0.004938623940;
  BAS[ATNO][  5].a[  4] =      1717.000000000000;     BAS[ATNO][  5].d[  4] =        -0.017433571179;
  BAS[ATNO][  5].a[  5] =       619.900000000000;     BAS[ATNO][  5].d[  5] =        -0.052373186010;
  BAS[ATNO][  5].a[  6] =       241.600000000000;     BAS[ATNO][  5].d[  6] =        -0.127926628853;
  BAS[ATNO][  5].a[  7] =        99.790000000000;     BAS[ATNO][  5].d[  7] =        -0.226814046457;
  BAS[ATNO][  5].a[  8] =        43.150000000000;     BAS[ATNO][  5].d[  8] =        -0.222225394631;
  BAS[ATNO][  5].a[  9] =        19.140000000000;     BAS[ATNO][  5].d[  9] =        -0.075184468955;
  BAS[ATNO][  5].a[ 10] =         7.488000000000;     BAS[ATNO][  5].d[ 10] =        -0.003561259167;
  BAS[ATNO][  5].a[ 11] =         3.205000000000;     BAS[ATNO][  5].d[ 11] =        -0.000307355121;
  BAS[ATNO][  5].a[ 12] =         0.520400000000;     BAS[ATNO][  5].d[ 12] =        -0.000018564714;
  BAS[ATNO][  5].a[ 13] =    545000.000000000000;     BAS[ATNO][  5].d[ 13] =         0.000013980985;
  BAS[ATNO][  5].a[ 14] =     81640.000000000000;     BAS[ATNO][  5].d[ 14] =         0.000108380665;
  BAS[ATNO][  5].a[ 15] =     18580.000000000000;     BAS[ATNO][  5].d[ 15] =         0.000571519474;
  BAS[ATNO][  5].a[ 16] =      5261.000000000000;     BAS[ATNO][  5].d[ 16] =         0.002389278460;
  BAS[ATNO][  5].a[ 17] =      1717.000000000000;     BAS[ATNO][  5].d[ 17] =         0.008599453443;
  BAS[ATNO][  5].a[ 18] =       619.900000000000;     BAS[ATNO][  5].d[ 18] =         0.026526758085;
  BAS[ATNO][  5].a[ 19] =       241.600000000000;     BAS[ATNO][  5].d[ 19] =         0.070988752841;
  BAS[ATNO][  5].a[ 20] =        99.790000000000;     BAS[ATNO][  5].d[ 20] =         0.148865313431;
  BAS[ATNO][  5].a[ 21] =        43.150000000000;     BAS[ATNO][  5].d[ 21] =         0.217596621386;
  BAS[ATNO][  5].a[ 22] =        19.140000000000;     BAS[ATNO][  5].d[ 22] =         0.044552538607;
  BAS[ATNO][  5].a[ 23] =         7.488000000000;     BAS[ATNO][  5].d[ 23] =        -0.523060707500;
  BAS[ATNO][  5].a[ 24] =         3.205000000000;     BAS[ATNO][  5].d[ 24] =        -0.625091431957;
  BAS[ATNO][  5].a[ 25] =         0.520400000000;     BAS[ATNO][  5].d[ 25] =         0.007851662683;
  BAS[ATNO][  5].a[ 26] =    545000.000000000000;     BAS[ATNO][  5].d[ 26] =         0.000023232542;
  BAS[ATNO][  5].a[ 27] =     81640.000000000000;     BAS[ATNO][  5].d[ 27] =         0.000179951090;
  BAS[ATNO][  5].a[ 28] =     18580.000000000000;     BAS[ATNO][  5].d[ 28] =         0.000950240151;
  BAS[ATNO][  5].a[ 29] =      5261.000000000000;     BAS[ATNO][  5].d[ 29] =         0.003967768637;
  BAS[ATNO][  5].a[ 30] =      1717.000000000000;     BAS[ATNO][  5].d[ 30] =         0.014329382383;
  BAS[ATNO][  5].a[ 31] =       619.900000000000;     BAS[ATNO][  5].d[ 31] =         0.044233212664;
  BAS[ATNO][  5].a[ 32] =       241.600000000000;     BAS[ATNO][  5].d[ 32] =         0.119730282020;
  BAS[ATNO][  5].a[ 33] =        99.790000000000;     BAS[ATNO][  5].d[ 33] =         0.254683704290;
  BAS[ATNO][  5].a[ 34] =        43.150000000000;     BAS[ATNO][  5].d[ 34] =         0.390215372985;
  BAS[ATNO][  5].a[ 35] =        19.140000000000;     BAS[ATNO][  5].d[ 35] =         0.081086440601;
  BAS[ATNO][  5].a[ 36] =         7.488000000000;     BAS[ATNO][  5].d[ 36] =        -1.190275519905;
  BAS[ATNO][  5].a[ 37] =         3.205000000000;     BAS[ATNO][  5].d[ 37] =        -2.438301106845;
  BAS[ATNO][  5].a[ 38] =         0.520400000000;     BAS[ATNO][  5].d[ 38] =         4.208503866911;
  BAS[ATNO][  5].a[ 39] =         1.196000000000;     BAS[ATNO][  5].d[ 39] =        -5.602002279295;
  BAS[ATNO][  5].a[ 40] =         0.195400000000;     BAS[ATNO][  5].d[ 40] =        -1.369321726560;
  BAS[ATNO][  5].a[ 41] =        17.362000000000;     BAS[ATNO][  5].d[ 41] =        -1.056475437605;
  BAS[ATNO][  5].a[ 42] =         3.378000000000;     BAS[ATNO][  5].d[ 42] =         7.828117912696;

  // Basis function   7 L = s
  InitBFNGauss(BAS[ATNO][  6]);
  BAS[ATNO][  6].l  = 0;
  BAS[ATNO][  6].ng = 43;
  BAS[ATNO][  6].a[  0] =    545000.000000000000;     BAS[ATNO][  6].d[  0] =        -0.000276670828;
  BAS[ATNO][  6].a[  1] =     81640.000000000000;     BAS[ATNO][  6].d[  1] =        -0.002149305301;
  BAS[ATNO][  6].a[  2] =     18580.000000000000;     BAS[ATNO][  6].d[  2] =        -0.011277194446;
  BAS[ATNO][  6].a[  3] =      5261.000000000000;     BAS[ATNO][  6].d[  3] =        -0.047151998054;
  BAS[ATNO][  6].a[  4] =      1717.000000000000;     BAS[ATNO][  6].d[  4] =        -0.166448736378;
  BAS[ATNO][  6].a[  5] =       619.900000000000;     BAS[ATNO][  6].d[  5] =        -0.500038147199;
  BAS[ATNO][  6].a[  6] =       241.600000000000;     BAS[ATNO][  6].d[  6] =        -1.221392077560;
  BAS[ATNO][  6].a[  7] =        99.790000000000;     BAS[ATNO][  6].d[  7] =        -2.165529428137;
  BAS[ATNO][  6].a[  8] =        43.150000000000;     BAS[ATNO][  6].d[  8] =        -2.121718823278;
  BAS[ATNO][  6].a[  9] =        19.140000000000;     BAS[ATNO][  6].d[  9] =        -0.717831115861;
  BAS[ATNO][  6].a[ 10] =         7.488000000000;     BAS[ATNO][  6].d[ 10] =        -0.034001472342;
  BAS[ATNO][  6].a[ 11] =         3.205000000000;     BAS[ATNO][  6].d[ 11] =        -0.002934503264;
  BAS[ATNO][  6].a[ 12] =         0.520400000000;     BAS[ATNO][  6].d[ 12] =        -0.000177248433;
  BAS[ATNO][  6].a[ 13] =    545000.000000000000;     BAS[ATNO][  6].d[ 13] =         0.000164085925;
  BAS[ATNO][  6].a[ 14] =     81640.000000000000;     BAS[ATNO][  6].d[ 14] =         0.001271994913;
  BAS[ATNO][  6].a[ 15] =     18580.000000000000;     BAS[ATNO][  6].d[ 15] =         0.006707560459;
  BAS[ATNO][  6].a[ 16] =      5261.000000000000;     BAS[ATNO][  6].d[ 16] =         0.028041441197;
[...]
  BAS[ATNO][  6].a[ 24] =         3.205000000000;     BAS[ATNO][  6].d[ 24] =        -7.336300446172;
  BAS[ATNO][  6].a[ 25] =         0.520400000000;     BAS[ATNO][  6].d[ 25] =         0.092149969589;
  BAS[ATNO][  6].a[ 26] =    545000.000000000000;     BAS[ATNO][  6].d[ 26] =         0.000008836064;
  BAS[ATNO][  6].a[ 27] =     81640.000000000000;     BAS[ATNO][  6].d[ 27] =         0.000068441040;
  BAS[ATNO][  6].a[ 28] =     18580.000000000000;     BAS[ATNO][  6].d[ 28] =         0.000361406112;
  BAS[ATNO][  6].a[ 29] =      5261.000000000000;     BAS[ATNO][  6].d[ 29] =         0.001509066769;
  BAS[ATNO][  6].a[ 30] =      1717.000000000000;     BAS[ATNO][  6].d[ 30] =         0.005449913227;
  BAS[ATNO][  6].a[ 31] =       619.900000000000;     BAS[ATNO][  6].d[ 31] =         0.016823277121;
  BAS[ATNO][  6].a[ 32] =       241.600000000000;     BAS[ATNO][  6].d[ 32] =         0.045537178805;
  BAS[ATNO][  6].a[ 33] =        99.790000000000;     BAS[ATNO][  6].d[ 33] =         0.096864194965;
  BAS[ATNO][  6].a[ 34] =        43.150000000000;     BAS[ATNO][  6].d[ 34] =         0.148411136365;
  BAS[ATNO][  6].a[ 35] =        19.140000000000;     BAS[ATNO][  6].d[ 35] =         0.030839714749;
  BAS[ATNO][  6].a[ 36] =         7.488000000000;     BAS[ATNO][  6].d[ 36] =        -0.452699085494;
  BAS[ATNO][  6].a[ 37] =         3.205000000000;     BAS[ATNO][  6].d[ 37] =        -0.927362331468;
  BAS[ATNO][  6].a[ 38] =         0.520400000000;     BAS[ATNO][  6].d[ 38] =         1.600625922309;
  BAS[ATNO][  6].a[ 39] =         1.196000000000;     BAS[ATNO][  6].d[ 39] =        -2.972182811063;
  BAS[ATNO][  6].a[ 40] =         0.195400000000;     BAS[ATNO][  6].d[ 40] =        -0.449451199676;
  BAS[ATNO][  6].a[ 41] =        17.362000000000;     BAS[ATNO][  6].d[ 41] =         3.058328679865;
  BAS[ATNO][  6].a[ 42] =         3.378000000000;     BAS[ATNO][  6].d[ 42] =        13.862063622516;

  // Basis function   8 L = p
  InitBFNGauss(BAS[ATNO][  7]);
  BAS[ATNO][  7].l  = 1;
  BAS[ATNO][  7].ng = 18;
  BAS[ATNO][  7].a[  0] =       761.800000000000;     BAS[ATNO][  7].d[  0] =         0.004180774206;
  BAS[ATNO][  7].a[  1] =       180.200000000000;     BAS[ATNO][  7].d[  1] =         0.033555257629;
  BAS[ATNO][  7].a[  2] =        57.500000000000;     BAS[ATNO][  7].d[  2] =         0.155393592010;
  BAS[ATNO][  7].a[  3] =        21.240000000000;     BAS[ATNO][  7].d[  3] =         0.452305021857;
  BAS[ATNO][  7].a[  4] =         8.388000000000;     BAS[ATNO][  7].d[  4] =         0.773982020399;
  BAS[ATNO][  7].a[  5] =         3.416000000000;     BAS[ATNO][  7].d[  5] =         0.613187626588;
  BAS[ATNO][  7].a[  6] =         0.452300000000;     BAS[ATNO][  7].d[  6] =        -0.009242422661;
  BAS[ATNO][  7].a[  7] =       761.800000000000;     BAS[ATNO][  7].d[  7] =        -0.000057835028;
  BAS[ATNO][  7].a[  8] =       180.200000000000;     BAS[ATNO][  7].d[  8] =        -0.000461768507;
  BAS[ATNO][  7].a[  9] =        57.500000000000;     BAS[ATNO][  7].d[  9] =        -0.002214667132;
  BAS[ATNO][  7].a[ 10] =        21.240000000000;     BAS[ATNO][  7].d[ 10] =        -0.006563517375;
  BAS[ATNO][  7].a[ 11] =         8.388000000000;     BAS[ATNO][  7].d[ 11] =        -0.012233657789;
  BAS[ATNO][  7].a[ 12] =         3.416000000000;     BAS[ATNO][  7].d[ 12] =        -0.008085397822;
  BAS[ATNO][  7].a[ 13] =         0.452300000000;     BAS[ATNO][  7].d[ 13] =         0.048754159716;
  BAS[ATNO][  7].a[ 14] =         1.206000000000;     BAS[ATNO][  7].d[ 14] =        -0.093580142464;
  BAS[ATNO][  7].a[ 15] =         0.154500000000;     BAS[ATNO][  7].d[ 15] =        -0.011503439154;
  BAS[ATNO][  7].a[ 16] =        11.019000000000;     BAS[ATNO][  7].d[ 16] =        -0.198473399967;
  BAS[ATNO][  7].a[ 17] =         4.307000000000;     BAS[ATNO][  7].d[ 17] =        -0.564766082749;

  // Basis function   9 L = p
  InitBFNGauss(BAS[ATNO][  8]);
  BAS[ATNO][  8].l  = 1;
  BAS[ATNO][  8].ng = 18;
  BAS[ATNO][  8].a[  0] =       761.800000000000;     BAS[ATNO][  8].d[  0] =        -0.002813782004;
  BAS[ATNO][  8].a[  1] =       180.200000000000;     BAS[ATNO][  8].d[  1] =        -0.022583659249;
  BAS[ATNO][  8].a[  2] =        57.500000000000;     BAS[ATNO][  8].d[  2] =        -0.104584383474;
  BAS[ATNO][  8].a[  3] =        21.240000000000;     BAS[ATNO][  8].d[  3] =        -0.304414366391;
  BAS[ATNO][  8].a[  4] =         8.388000000000;     BAS[ATNO][  8].d[  4] =        -0.520912293591;
  BAS[ATNO][  8].a[  5] =         3.416000000000;     BAS[ATNO][  8].d[  5] =        -0.412693014242;
  BAS[ATNO][  8].a[  6] =         0.452300000000;     BAS[ATNO][  8].d[  6] =         0.006220417865;
  BAS[ATNO][  8].a[  7] =       761.800000000000;     BAS[ATNO][  8].d[  7] =         0.000238880981;
  BAS[ATNO][  8].a[  8] =       180.200000000000;     BAS[ATNO][  8].d[  8] =         0.001907282098;
  BAS[ATNO][  8].a[  9] =        57.500000000000;     BAS[ATNO][  8].d[  9] =         0.009147429730;
  BAS[ATNO][  8].a[ 10] =        21.240000000000;     BAS[ATNO][  8].d[ 10] =         0.027109859132;
  BAS[ATNO][  8].a[ 11] =         8.388000000000;     BAS[ATNO][  8].d[ 11] =         0.050529726727;
  BAS[ATNO][  8].a[ 12] =         3.416000000000;     BAS[ATNO][  8].d[ 12] =         0.033395812560;
  BAS[ATNO][  8].a[ 13] =         0.452300000000;     BAS[ATNO][  8].d[ 13] =        -0.201373490238;
  BAS[ATNO][  8].a[ 14] =         1.206000000000;     BAS[ATNO][  8].d[ 14] =         0.820783032288;
  BAS[ATNO][  8].a[ 15] =         0.154500000000;     BAS[ATNO][  8].d[ 15] =         0.054868571937;
  BAS[ATNO][  8].a[ 16] =        11.019000000000;     BAS[ATNO][  8].d[ 16] =        -0.005866485151;
  BAS[ATNO][  8].a[ 17] =         4.307000000000;     BAS[ATNO][  8].d[ 17] =         1.067927697922;

  // Basis function  10 L = p
  InitBFNGauss(BAS[ATNO][  9]);
  BAS[ATNO][  9].l  = 1;
  BAS[ATNO][  9].ng = 18;
  BAS[ATNO][  9].a[  0] =       761.800000000000;     BAS[ATNO][  9].d[  0] =        -0.003166812674;
  BAS[ATNO][  9].a[  1] =       180.200000000000;     BAS[ATNO][  9].d[  1] =        -0.025417114125;
  BAS[ATNO][  9].a[  2] =        57.500000000000;     BAS[ATNO][  9].d[  2] =        -0.117706044939;
  BAS[ATNO][  9].a[  3] =        21.240000000000;     BAS[ATNO][  9].d[  3] =        -0.342607661874;
  BAS[ATNO][  9].a[  4] =         8.388000000000;     BAS[ATNO][  9].d[  4] =        -0.586268463819;
  BAS[ATNO][  9].a[  5] =         3.416000000000;     BAS[ATNO][  9].d[  5] =        -0.464471471427;
  BAS[ATNO][  9].a[  6] =         0.452300000000;     BAS[ATNO][  9].d[  6] =         0.007000861509;
  BAS[ATNO][  9].a[  7] =       761.800000000000;     BAS[ATNO][  9].d[  7] =         0.001329010962;
  BAS[ATNO][  9].a[  8] =       180.200000000000;     BAS[ATNO][  9].d[  8] =         0.010611136996;
  BAS[ATNO][  9].a[  9] =        57.500000000000;     BAS[ATNO][  9].d[  9] =         0.050891596017;
  BAS[ATNO][  9].a[ 10] =        21.240000000000;     BAS[ATNO][  9].d[ 10] =         0.150825318126;
  BAS[ATNO][  9].a[ 11] =         8.388000000000;     BAS[ATNO][  9].d[ 11] =         0.281121420490;
  BAS[ATNO][  9].a[ 12] =         3.416000000000;     BAS[ATNO][  9].d[ 12] =         0.185797131179;
  BAS[ATNO][  9].a[ 13] =         0.452300000000;     BAS[ATNO][  9].d[ 13] =        -1.120338566844;
  BAS[ATNO][  9].a[ 14] =         1.206000000000;     BAS[ATNO][  9].d[ 14] =         0.049386745498;
  BAS[ATNO][  9].a[ 15] =         0.154500000000;     BAS[ATNO][  9].d[ 15] =         0.156793339164;
  BAS[ATNO][  9].a[ 16] =        11.019000000000;     BAS[ATNO][  9].d[ 16] =        -0.090508131799;
  BAS[ATNO][  9].a[ 17] =         4.307000000000;     BAS[ATNO][  9].d[ 17] =         1.199356248274;

  // Basis function  11 L = p
  InitBFNGauss(BAS[ATNO][ 10]);
  BAS[ATNO][ 10].l  = 1;
  BAS[ATNO][ 10].ng = 18;
  BAS[ATNO][ 10].a[  0] =       761.800000000000;     BAS[ATNO][ 10].d[  0] =        -0.001442355926;
  BAS[ATNO][ 10].a[  1] =       180.200000000000;     BAS[ATNO][ 10].d[  1] =        -0.011576474191;
  BAS[ATNO][ 10].a[  2] =        57.500000000000;     BAS[ATNO][ 10].d[  2] =        -0.053610373888;
  BAS[ATNO][ 10].a[  3] =        21.240000000000;     BAS[ATNO][ 10].d[  3] =        -0.156044023563;
  BAS[ATNO][ 10].a[  4] =         8.388000000000;     BAS[ATNO][ 10].d[  4] =        -0.267021728242;
  BAS[ATNO][ 10].a[  5] =         3.416000000000;     BAS[ATNO][ 10].d[  5] =        -0.211548092168;
  BAS[ATNO][ 10].a[  6] =         0.452300000000;     BAS[ATNO][ 10].d[  6] =         0.003188611114;
  BAS[ATNO][ 10].a[  7] =       761.800000000000;     BAS[ATNO][ 10].d[  7] =        -0.000173632405;
  BAS[ATNO][ 10].a[  8] =       180.200000000000;     BAS[ATNO][ 10].d[  8] =        -0.001386322078;
  BAS[ATNO][ 10].a[  9] =        57.500000000000;     BAS[ATNO][ 10].d[  9] =        -0.006648876851;
  BAS[ATNO][ 10].a[ 10] =        21.240000000000;     BAS[ATNO][ 10].d[ 10] =        -0.019705001312;
  BAS[ATNO][ 10].a[ 11] =         8.388000000000;     BAS[ATNO][ 10].d[ 11] =        -0.036727905026;
  BAS[ATNO][ 10].a[ 12] =         3.416000000000;     BAS[ATNO][ 10].d[ 12] =        -0.024273992982;
  BAS[ATNO][ 10].a[ 13] =         0.452300000000;     BAS[ATNO][ 10].d[ 13] =         0.146369808491;
  BAS[ATNO][ 10].a[ 14] =         1.206000000000;     BAS[ATNO][ 10].d[ 14] =        -1.040571797423;
  BAS[ATNO][ 10].a[ 15] =         0.154500000000;     BAS[ATNO][ 10].d[ 15] =         0.895808477900;
  BAS[ATNO][ 10].a[ 16] =        11.019000000000;     BAS[ATNO][ 10].d[ 16] =        -0.090210144611;
  BAS[ATNO][ 10].a[ 17] =         4.307000000000;     BAS[ATNO][ 10].d[ 17] =         1.353185253484;

  // Basis function  12 L = p
  InitBFNGauss(BAS[ATNO][ 11]);
  BAS[ATNO][ 11].l  = 1;
  BAS[ATNO][ 11].ng = 18;
  BAS[ATNO][ 11].a[  0] =       761.800000000000;     BAS[ATNO][ 11].d[  0] =         0.000887950677;
  BAS[ATNO][ 11].a[  1] =       180.200000000000;     BAS[ATNO][ 11].d[  1] =         0.007126769416;
  BAS[ATNO][ 11].a[  2] =        57.500000000000;     BAS[ATNO][ 11].d[  2] =         0.033003897964;
  BAS[ATNO][ 11].a[  3] =        21.240000000000;     BAS[ATNO][ 11].d[  3] =         0.096064635592;
  BAS[ATNO][ 11].a[  4] =         8.388000000000;     BAS[ATNO][ 11].d[  4] =         0.164385308921;
  BAS[ATNO][ 11].a[  5] =         3.416000000000;     BAS[ATNO][ 11].d[  5] =         0.130234339774;
  BAS[ATNO][ 11].a[  6] =         0.452300000000;     BAS[ATNO][ 11].d[  6] =        -0.001962989403;
  BAS[ATNO][ 11].a[  7] =       761.800000000000;     BAS[ATNO][ 11].d[  7] =        -0.002694838848;
  BAS[ATNO][ 11].a[  8] =       180.200000000000;     BAS[ATNO][ 11].d[  8] =        -0.021516228995;
  BAS[ATNO][ 11].a[  9] =        57.500000000000;     BAS[ATNO][ 11].d[  9] =        -0.103193016383;
  BAS[ATNO][ 11].a[ 10] =        21.240000000000;     BAS[ATNO][ 11].d[ 10] =        -0.305828874362;
  BAS[ATNO][ 11].a[ 11] =         8.388000000000;     BAS[ATNO][ 11].d[ 11] =        -0.570030606637;
  BAS[ATNO][ 11].a[ 12] =         3.416000000000;     BAS[ATNO][ 11].d[ 12] =        -0.376741307059;
  BAS[ATNO][ 11].a[ 13] =         0.452300000000;     BAS[ATNO][ 11].d[ 13] =         2.271713310870;
  BAS[ATNO][ 11].a[ 14] =         1.206000000000;     BAS[ATNO][ 11].d[ 14] =        -2.037634690691;
  BAS[ATNO][ 11].a[ 15] =         0.154500000000;     BAS[ATNO][ 11].d[ 15] =        -1.354411039226;
  BAS[ATNO][ 11].a[ 16] =        11.019000000000;     BAS[ATNO][ 11].d[ 16] =        -0.060342363560;
  BAS[ATNO][ 11].a[ 17] =         4.307000000000;     BAS[ATNO][ 11].d[ 17] =         1.689017992559;

  // Basis function  13 L = p
  InitBFNGauss(BAS[ATNO][ 12]);
  BAS[ATNO][ 12].l  = 1;
  BAS[ATNO][ 12].ng = 18;
  BAS[ATNO][ 12].a[  0] =       761.800000000000;     BAS[ATNO][ 12].d[  0] =        -0.014747600262;
  BAS[ATNO][ 12].a[  1] =       180.200000000000;     BAS[ATNO][ 12].d[  1] =        -0.118365523183;
  BAS[ATNO][ 12].a[  2] =        57.500000000000;     BAS[ATNO][ 12].d[  2] =        -0.548147894459;
  BAS[ATNO][ 12].a[  3] =        21.240000000000;     BAS[ATNO][ 12].d[  3] =        -1.595497228538;
  BAS[ATNO][ 12].a[  4] =         8.388000000000;     BAS[ATNO][ 12].d[  4] =        -2.730206627854;
  BAS[ATNO][ 12].a[  5] =         3.416000000000;     BAS[ATNO][ 12].d[  5] =        -2.163007509355;
  BAS[ATNO][ 12].a[  6] =         0.452300000000;     BAS[ATNO][ 12].d[  6] =         0.032602467424;
  BAS[ATNO][ 12].a[  7] =       761.800000000000;     BAS[ATNO][ 12].d[  7] =         0.000732391958;
  BAS[ATNO][ 12].a[  8] =       180.200000000000;     BAS[ATNO][ 12].d[  8] =         0.005847590146;
  BAS[ATNO][ 12].a[  9] =        57.500000000000;     BAS[ATNO][ 12].d[  9] =         0.028045363614;
  BAS[ATNO][ 12].a[ 10] =        21.240000000000;     BAS[ATNO][ 12].d[ 10] =         0.083116884124;
  BAS[ATNO][ 12].a[ 11] =         8.388000000000;     BAS[ATNO][ 12].d[ 11] =         0.154920518796;
  BAS[ATNO][ 12].a[ 12] =         3.416000000000;     BAS[ATNO][ 12].d[ 12] =         0.102389166585;
  BAS[ATNO][ 12].a[ 13] =         0.452300000000;     BAS[ATNO][ 12].d[ 13] =        -0.617396681122;
  BAS[ATNO][ 12].a[ 14] =         1.206000000000;     BAS[ATNO][ 12].d[ 14] =         1.122198581765;
  BAS[ATNO][ 12].a[ 15] =         0.154500000000;     BAS[ATNO][ 12].d[ 15] =         0.184151226705;
  BAS[ATNO][ 12].a[ 16] =        11.019000000000;     BAS[ATNO][ 12].d[ 16] =         4.724802576966;
  BAS[ATNO][ 12].a[ 17] =         4.307000000000;     BAS[ATNO][ 12].d[ 17] =         0.971413496848;

  // Basis function  14 L = d
  InitBFNGauss(BAS[ATNO][ 13]);
  BAS[ATNO][ 13].l  = 2;
  BAS[ATNO][ 13].ng = 4;
  BAS[ATNO][ 13].a[  0] =         0.410000000000;     BAS[ATNO][ 13].d[  0] =        -0.113619021147;
  BAS[ATNO][ 13].a[  1] =         1.254000000000;     BAS[ATNO][ 13].d[  1] =         0.541696084635;
  BAS[ATNO][ 13].a[  2] =        20.706000000000;     BAS[ATNO][ 13].d[  2] =         0.083241912132;
  BAS[ATNO][ 13].a[  3] =         6.681000000000;     BAS[ATNO][ 13].d[  3] =         0.675249553373;

  // Basis function  15 L = d
  InitBFNGauss(BAS[ATNO][ 14]);
  BAS[ATNO][ 14].l  = 2;
  BAS[ATNO][ 14].ng = 4;
  BAS[ATNO][ 14].a[  0] =         0.410000000000;     BAS[ATNO][ 14].d[  0] =         0.385934946955;
  BAS[ATNO][ 14].a[  1] =         1.254000000000;     BAS[ATNO][ 14].d[  1] =         0.661278952731;
  BAS[ATNO][ 14].a[  2] =        20.706000000000;     BAS[ATNO][ 14].d[  2] =        -0.091700465328;
  BAS[ATNO][ 14].a[  3] =         6.681000000000;     BAS[ATNO][ 14].d[  3] =        -0.577063811675;

  // Basis function  16 L = d
  InitBFNGauss(BAS[ATNO][ 15]);
  BAS[ATNO][ 15].l  = 2;
  BAS[ATNO][ 15].ng = 4;
  BAS[ATNO][ 15].a[  0] =         0.410000000000;     BAS[ATNO][ 15].d[  0] =         1.191611593403;
  BAS[ATNO][ 15].a[  1] =         1.254000000000;     BAS[ATNO][ 15].d[  1] =        -1.002828083387;
  BAS[ATNO][ 15].a[  2] =        20.706000000000;     BAS[ATNO][ 15].d[  2] =         0.075942525005;
  BAS[ATNO][ 15].a[  3] =         6.681000000000;     BAS[ATNO][ 15].d[  3] =         0.403442102147;

  // Basis function  17 L = d
  InitBFNGauss(BAS[ATNO][ 16]);
  BAS[ATNO][ 16].l  = 2;
  BAS[ATNO][ 16].ng = 4;
  BAS[ATNO][ 16].a[  0] =         0.410000000000;     BAS[ATNO][ 16].d[  0] =        -0.140296729606;
  BAS[ATNO][ 16].a[  1] =         1.254000000000;     BAS[ATNO][ 16].d[  1] =         0.320154333406;
  BAS[ATNO][ 16].a[  2] =        20.706000000000;     BAS[ATNO][ 16].d[  2] =         1.248613889559;
  BAS[ATNO][ 16].a[  3] =         6.681000000000;     BAS[ATNO][ 16].d[  3] =        -0.929752187180;

  // Basis function  18 L = f
  InitBFNGauss(BAS[ATNO][ 17]);
  BAS[ATNO][ 17].l  = 3;
  BAS[ATNO][ 17].ng = 2;
  BAS[ATNO][ 17].a[  0] =         0.890000000000;     BAS[ATNO][ 17].d[  0] =         0.998684904798;
  BAS[ATNO][ 17].a[  1] =        13.674000000000;     BAS[ATNO][ 17].d[  1] =         0.026473001225;

  // Basis function  19 L = f
  InitBFNGauss(BAS[ATNO][ 18]);
  BAS[ATNO][ 18].l  = 3;
  BAS[ATNO][ 18].ng = 2;
  BAS[ATNO][ 18].a[  0] =         0.890000000000;     BAS[ATNO][ 18].d[  0] =        -0.062922507899;
  BAS[ATNO][ 18].a[  1] =        13.674000000000;     BAS[ATNO][ 18].d[  1] =         1.000314931048;

-------
TIMINGS
-------

Total SCF time: 0 days 0 hours 0 min 1 sec 

Total time                  ....       1.561 sec
Sum of individual times     ....       1.358 sec  ( 87.0%)

Fock matrix formation       ....       0.890 sec  ( 57.0%)
  XC integration            ....       0.018 sec  (  2.0% of F)
    Basis function eval.    ....       0.004 sec  ( 23.8% of XC)
    Density eval.           ....       0.001 sec  (  6.5% of XC)
    XC-Functional eval.     ....       0.001 sec  (  7.2% of XC)
    XC-Potential eval.      ....       0.001 sec  (  8.0% of XC)
Diagonalization             ....       0.001 sec  (  0.1%)
Density matrix formation    ....       0.001 sec  (  0.0%)
Population analysis         ....       0.001 sec  (  0.1%)
Initial guess               ....       0.089 sec  (  5.7%)
Orbital Transformation      ....       0.000 sec  (  0.0%)
Orbital Orthonormalization  ....       0.000 sec  (  0.0%)
DIIS solution               ....       0.000 sec  (  0.0%)
SOSCF solution              ....       0.001 sec  (  0.1%)
Grid generation             ....       0.376 sec  ( 24.1%)

-------------------------   --------------------
FINAL SINGLE POINT ENERGY      -353.757013879538
-------------------------   --------------------


                            ***************************************
                            *     ORCA property calculations      *
                            ***************************************

                                    ---------------------
                                    Active property flags
                                    ---------------------
   (+) Dipole Moment


------------------------------------------------------------------------------
                       ORCA ELECTRIC PROPERTIES CALCULATION
------------------------------------------------------------------------------

Dipole Moment Calculation                       ... on
Quadrupole Moment Calculation                   ... off
Polarizability Calculation                      ... off
GBWName                                         ... Ar_cc-pcvtz_34.25899725_.gbw
Electron density file                           ... Ar_cc-pcvtz_34.25899725_.scfp
The origin for moment calculation is the CENTER OF MASS  = ( 0.000000,  0.000000  0.000000)

-------------
DIPOLE MOMENT
-------------
                                X             Y             Z
Electronic contribution:     -0.00000      -0.00000      -0.00000
Nuclear contribution   :      0.00000       0.00000       0.00000
                        -----------------------------------------
Total Dipole Moment    :     -0.00000      -0.00000      -0.00000
                        -----------------------------------------
Magnitude (a.u.)       :      0.00000
Magnitude (Debye)      :      0.00000



--------------------
Rotational spectrum 
--------------------
 
Rotational constants in cm-1:     0.000000     0.000000     0.000000 
Rotational constants in MHz :     0.000000     0.000000     0.000000 

 Dipole components along the rotational axes: 
x,y,z [a.u.] :    -0.000000    -0.000000    -0.000000 
x,y,z [Debye]:    -0.000000    -0.000000    -0.000000 

 

Timings for individual modules:

Sum of individual times         ...        2.767 sec (=   0.046 min)
GTO integral calculation        ...        0.568 sec (=   0.009 min)  20.5 %
Relativistic integrals          ...        0.371 sec (=   0.006 min)  13.4 %
SCF iterations                  ...        1.827 sec (=   0.030 min)  66.0 %
                             ****ORCA TERMINATED NORMALLY****
TOTAL RUN TIME: 0 days 0 hours 0 minutes 3 seconds 97 msec
