
                                 *****************
                                 * O   R   C   A *
                                 *****************

           --- An Ab Initio, DFT and Semiempirical electronic structure package ---

                  #######################################################
                  #                        -***-                        #
                  #          Department of theory and spectroscopy      #
                  #               Directorship: Frank Neese             #
                  #        Max Planck Institute fuer Kohlenforschung    #
                  #                Kaiser Wilhelm Platz 1               #
                  #                 D-45470 Muelheim/Ruhr               #
                  #                      Germany                        #
                  #                                                     #
                  #                  All rights reserved                #
                  #                        -***-                        #
                  #######################################################


                         Program Version 4.2.1 -  RELEASE  -


 With contributions from (in alphabetic order):
   Daniel Aravena         : Magnetic Suceptibility
   Michael Atanasov       : Ab Initio Ligand Field Theory (pilot matlab implementation)
   Alexander A. Auer      : GIAO ZORA, VPT2
   Ute Becker             : Parallelization
   Giovanni Bistoni       : ED, misc. LED, open-shell LED, HFLD
   Martin Brehm           : Molecular dynamics
   Dmytro Bykov           : SCF Hessian
   Vijay G. Chilkuri      : MRCI spin determinant printing, contributions to CSF-ICE
   Dipayan Datta          : RHF DLPNO-CCSD density
   Achintya Kumar Dutta   : EOM-CC, STEOM-CC
   Dmitry Ganyushin       : Spin-Orbit,Spin-Spin,Magnetic field MRCI
   Miquel Garcia          : C-PCM Hessian, Gaussian charge scheme
   Yang Guo               : DLPNO-NEVPT2, CIM, IAO-localization
   Andreas Hansen         : Spin unrestricted coupled pair/coupled cluster methods
   Benjamin Helmich-Paris : CASSCF linear response (MC-RPA)
   Lee Huntington         : MR-EOM, pCC
   Robert Izsak           : Overlap fitted RIJCOSX, COSX-SCS-MP3, EOM
   Christian Kollmar      : KDIIS, OOCD, Brueckner-CCSD(T), CCSD density
   Simone Kossmann        : Meta GGA functionals, TD-DFT gradient, OOMP2, MP2 Hessian
   Martin Krupicka        : AUTO-CI
   Lucas Lang             : DCDCAS
   Dagmar Lenk            : GEPOL surface, SMD
   Dimitrios Liakos       : Extrapolation schemes; Compound Job, initial MDCI parallelization
   Dimitrios Manganas     : Further ROCIS development; embedding schemes
   Dimitrios Pantazis     : SARC Basis sets
   Taras Petrenko         : DFT Hessian,TD-DFT gradient, ASA, ECA, R-Raman, ABS, FL, XAS/XES, NRVS
   Peter Pinski           : DLPNO-MP2, DLPNO-MP2 Gradient
   Christoph Reimann      : Effective Core Potentials
   Marius Retegan         : Local ZFS, SOC
   Christoph Riplinger    : Optimizer, TS searches, QM/MM, DLPNO-CCSD(T), (RO)-DLPNO pert. Triples
   Tobias Risthaus        : Range-separated hybrids, TD-DFT gradient, RPA, STAB
   Michael Roemelt        : Original ROCIS implementation
   Masaaki Saitow         : Open-shell DLPNO-CCSD energy and density
   Barbara Sandhoefer     : DKH picture change effects
   Avijit Sen             : IP-ROCIS
   Kantharuban Sivalingam : CASSCF convergence, NEVPT2, FIC-MRCI
   Bernardo de Souza      : ESD, SOC TD-DFT
   Georgi Stoychev        : AutoAux, RI-MP2 NMR
   Willem Van den Heuvel  : Paramagnetic NMR
   Boris Wezisla          : Elementary symmetry handling
   Frank Wennmohs         : Technical directorship


 We gratefully acknowledge several colleagues who have allowed us to
 interface, adapt or use parts of their codes:
   Stefan Grimme, W. Hujo, H. Kruse,             : VdW corrections, initial TS optimization,
                  C. Bannwarth                     DFT functionals, gCP, sTDA/sTD-DF
   Ed Valeev, F. Pavosevic, A. Kumar             : LibInt (2-el integral package), F12 methods
   Garnet Chan, S. Sharma, J. Yang, R. Olivares  : DMRG
   Ulf Ekstrom                                   : XCFun DFT Library
   Mihaly Kallay                                 : mrcc  (arbitrary order and MRCC methods)
   Andreas Klamt, Michael Diedenhofen            : otool_cosmo (COSMO solvation model)
   Jiri Pittner, Ondrej Demel                    : Mk-CCSD
   Frank Weinhold                                : gennbo (NPA and NBO analysis)
   Christopher J. Cramer and Donald G. Truhlar   : smd solvation model
   Lars Goerigk                                  : TD-DFT with DH, B97 family of functionals
   V. Asgeirsson, H. Jonsson                     : NEB implementation
   FAccTs GmbH                                   : IRC, NEB, NEB-TS, Multilevel, MM, QM/MM, CI optimization
   S Lehtola, MJT Oliveira, MAL Marques          : LibXC Library


 Your calculation uses the libint2 library for the computation of 2-el integrals
 For citations please refer to: http://libint.valeyev.net

 Your ORCA version has been built with support for libXC version: 4.2.3
 For citations please refer to: https://tddft.org/programs/libxc/

 This ORCA versions uses:
   CBLAS   interface :  Fast vector & matrix operations
   LAPACKE interface :  Fast linear algebra routines
   SCALAPACK package :  Parallel linear algebra routines


----- Orbital basis set information -----
Your calculation utilizes the basis: cc-pCVDZ 
             H : cc-pVDZ. Obtained from the ccRepo (grant-hill.group.shef.ac.uk/ccrepo) Feb. 2017
                 T. H. Dunning, Jr., J. Chem. Phys. 90, 1007 (1989)
            He : cc-pVDZ. Obtained from the ccRepo (grant-hill.group.shef.ac.uk/ccrepo) Feb. 2017
                 D. E. Woon, T. H. Dunning, Jr., J. Chem. Phys. 100, 2975 (1994)
  Li-Be, Na-Mg : Obtained from the ccRepo (grant-hill.group.shef.ac.uk/ccrepo) Feb. 2017
                 B. P. Prascher, D. E. Woon, K. A. Peterson, T. H. Dunning, Jr., A. K. Wilson, Theor. Chem. Acc. 128, 69 (2011)
          B-Ne : Obtained from the ccRepo (grant-hill.group.shef.ac.uk/ccrepo) Feb. 2017
                 D. E. Woon, T. H. Dunning, Jr., J. Chem. Phys. 103, 4572 (1995)
                  K. A. Peterson, T. H. Dunning, Jr., J. Chem. Phys. 117, 10548 (2002)
         Al-Ar : Obtained from the EMSL Basis Set Exchange (bse.pnl.gov) Feb. 2017
                 K. A. Peterson, T. H. Dunning, Jr., J. Chem. Phys. 117, 10548 (2002)
            Ca : Obtained from the Peterson Research Group Website (tyr0.chem.wsu.edu/~kipeters) Feb. 2017
                 J. Koput, K. A. Peterson, J. Phys. Chem. 106, 9595 (2002)
         Ga-Kr : Obtained from the Peterson Research Group Website (tyr0.chem.wsu.edu/~kipeters) Feb. 2017
                 N. J. DeYonker, K. A. Peterson, A. K. Wilson, J. Phys. Chem. A 111, 11383 (2007)

================================================================================
                                        WARNINGS
                       Please study these warnings very carefully!
================================================================================


INFO   : the flag for use of LIBINT has been found!

================================================================================
                                       INPUT FILE
================================================================================
NAME = Ar_cc-pcvdz_274.071978_.inp
|  1> ! LDA cc-pcvdz nori grid5 finalgrid6 verytightscf
|  2> %Pal NProcs 18 End
|  3> 
|  4> % REL
|  5>   Method ZORA
|  6>   ModelPot 1, 0, 0, 0
|  7>   velit 274.071978
|  8> END
|  9> 
| 10> *xyz 16 1
| 11> Ar 0.0 0.0 0.0
| 12> **                         ****END OF INPUT****
================================================================================

                       ****************************
                       * Single Point Calculation *
                       ****************************

---------------------------------
CARTESIAN COORDINATES (ANGSTROEM)
---------------------------------
  Ar     0.000000    0.000000    0.000000

----------------------------
CARTESIAN COORDINATES (A.U.)
----------------------------
  NO LB      ZA    FRAG     MASS         X           Y           Z
   0 Ar   18.0000    0    39.948    0.000000    0.000000    0.000000

--------------------------------
INTERNAL COORDINATES (ANGSTROEM)
--------------------------------
 Ar     0   0   0     0.000000000000     0.00000000     0.00000000

---------------------------
INTERNAL COORDINATES (A.U.)
---------------------------
 Ar     0   0   0     0.000000000000     0.00000000     0.00000000

---------------------
BASIS SET INFORMATION
---------------------
There are 1 groups of distinct atoms

 Group   1 Type Ar  : 35s16p2d contracted to 5s4p2d pattern {11111111/7711/11}

Atom   0Ar   basis set group =>   1


           ************************************************************
           *        Program running with 18 parallel MPI-processes    *
           *              working on a common directory               *
           ************************************************************
------------------------------------------------------------------------------
                           ORCA GTO INTEGRAL CALCULATION
------------------------------------------------------------------------------

                         BASIS SET STATISTICS AND STARTUP INFO

 # of primitive gaussian shells          ...   53
 # of primitive gaussian functions       ...   93
 # of contracted shells                  ...   11
 # of contracted basis functions         ...   27
 Highest angular momentum                ...    2
 Maximum contraction depth               ...   11
 Integral package used                   ... LIBINT
 Integral threshhold            Thresh   ...  1.000e-12
 Primitive cut-off              TCut     ...  1.000e-14


------------------------------ INTEGRAL EVALUATION ----------------------------


 * One electron integrals 
 Pre-screening matrix                    ... done
 Shell pair data                         ... done (   0.000 sec)



           ************************************************************
           *        Program running with 18 parallel MPI-processes    *
           *              working on a common directory               *
           ************************************************************
------------------------------------------------------------------------------
                          ORCA RELATIVISTIC HAMILTONIAN
------------------------------------------------------------------------------

Relativistic Method            ... ZORA(MP)
Treatment of potential         ... Van Wuellen
Nucleus model                  ... Point Nucleus
Speed of light used            ... 274.07197800000000


            *************************************************
            *         ZERO ORDER REGULAR APPROXIMATION      *
            *                     ZORA(MP)                  *
            *            Programmed by FN according to      *
            *                   C. van Wuellen              *
            *       J. Chem. Phys. (1998) vol 109, 392-399  *
            *************************************************

Terms included in model potential: +V(e,N)
Basis function cutoff value   ... 1.000000e-12
Loading the fitted atomic densities  (DKH4)  ... done
Calculating the cutoffs                      ... done
Number of fit functions                      ... 15
Setting up the integration grid ... done


           ************************************************************
           *        Program running with 18 parallel MPI-processes    *
           *              working on a common directory               *
           ************************************************************
-------------------------------------------------------------------------------
                                 ORCA SCF
-------------------------------------------------------------------------------

------------
SCF SETTINGS
------------
Hamiltonian:
 Density Functional     Method          .... DFT(GTOs)
 Exchange Functional    Exchange        .... Slater
   X-Alpha parameter    XAlpha          ....  0.666667
 Correlation Functional Correlation     .... VWN-5
 Gradients option       PostSCFGGA      .... off
   Density functional embedding theory  .... OFF

Relativistic Settings:
 Scalar relativistic method             .... ZORA
 Speed of light used       Velit        ....       274.071978
Orbital energies will be scaled


General Settings:
 Integral files         IntName         .... Ar_cc-pcvdz_274.071978_
 Hartree-Fock type      HFTyp           .... RHF
 Total Charge           Charge          ....   16
 Multiplicity           Mult            ....    1
 Number of Electrons    NEL             ....    2
 Basis Dimension        Dim             ....   27
 Nuclear Repulsion      ENuc            ....      0.0000000000 Eh

Convergence Acceleration:
 DIIS                   CNVDIIS         .... on
   Start iteration      DIISMaxIt       ....    12
   Startup error        DIISStart       ....  0.200000
   # of expansion vecs  DIISMaxEq       ....     5
   Bias factor          DIISBfac        ....   1.050
   Max. coefficient     DIISMaxC        ....  10.000
 Newton-Raphson         CNVNR           .... off
 SOSCF                  CNVSOSCF        .... on
   Start iteration      SOSCFMaxIt      ....   150
   Startup grad/error   SOSCFStart      ....  0.003300
 Level Shifting         CNVShift        .... on
   Level shift para.    LevelShift      ....    0.2500
   Turn off err/grad.   ShiftErr        ....    0.0010
 Zerner damping         CNVZerner       .... off
 Static damping         CNVDamp         .... on
   Fraction old density DampFac         ....    0.7000
   Max. Damping (<1)    DampMax         ....    0.9800
   Min. Damping (>=0)   DampMin         ....    0.0000
   Turn off err/grad.   DampErr         ....    0.1000
 Fernandez-Rico         CNVRico         .... off

SCF Procedure:
 Maximum # iterations   MaxIter         ....   125
 SCF integral mode      SCFMode         .... Direct
   Integral package                     .... LIBINT
 Reset frequency        DirectResetFreq ....    20
 Integral Threshold     Thresh          ....  1.000e-12 Eh
 Primitive CutOff       TCut            ....  1.000e-14 Eh

Convergence Tolerance:
 Convergence Check Mode ConvCheckMode   .... Total+1el-Energy
 Convergence forced     ConvForced      .... 0
 Energy Change          TolE            ....  1.000e-09 Eh
 1-El. energy change                    ....  1.000e-06 Eh
 Orbital Gradient       TolG            ....  2.000e-06
 Orbital Rotation angle TolX            ....  2.000e-06
 DIIS Error             TolErr          ....  1.000e-08


Diagonalization of the overlap matrix:
Smallest eigenvalue                        ... 5.526e-02
Time for diagonalization                   ...    0.001 sec
Threshold for overlap eigenvalues          ... 1.000e-08
Number of eigenvalues below threshold      ... 0
Time for construction of square roots      ...    0.001 sec
Total time needed                          ...    0.002 sec

-------------------
DFT GRID GENERATION
-------------------

General Integration Accuracy     IntAcc      ...  5.010
Radial Grid Type                 RadialGrid  ... Gauss-Chebyshev
Angular Grid (max. acc.)         AngularGrid ... Lebedev-434
Angular grid pruning method      GridPruning ... 3 (G Style)
Weight generation scheme         WeightScheme... Becke
Basis function cutoff            BFCut       ...    1.0000e-12
Integration weight cutoff        WCut        ...    1.0000e-14
Grids for H and He will be reduced by one unit

# of grid points (after initial pruning)     ...  11992 (   0.0 sec)
# of grid points (after weights+screening)   ...  11992 (   0.0 sec)
Grid point division into batches done        ...    0.1 sec
Reduced shell lists constructed in    0.1 sec

Total number of grid points                  ...    11992
Total number of batches                      ...      188
Average number of points per batch           ...       63
Average number of grid points per atom       ...    11992
Average number of shells per batch           ...     0.00 ( 0.00%)
Average number of basis functions per batch  ...     0.00 ( 0.00%)
Average number of large shells per batch     ...     0.00 ( -nan%)
Average number of large basis fcns per batch ...     0.00 ( -nan%)
Maximum spatial batch extension              ...  18.71, 18.71, 18.71 au
Average spatial batch extension              ...   0.97,  0.98,  0.97 au

Time for grid setup =    0.158 sec

------------------------------
INITIAL GUESS: MODEL POTENTIAL
------------------------------
Loading ZORA relativistic densities                ... done
Calculating cut-offs                               ... done
Setting up the integral package                    ... done
Initializing the effective Hamiltonian             ... done
Starting the Coulomb interaction                   ... done (   0.0 sec)
Reading the grid                                   ... done
Mapping shells                                     ... done
Starting the XC term evaluation                    ... done (   0.0 sec)
  promolecular density results
     # of electrons  =     18.000000116
     EX              =    -28.047870263
     EC              =     -1.433252902
     EX+EC           =    -29.481123164
Transforming the Hamiltonian                       ... done (   0.0 sec)
Diagonalizing the Hamiltonian                      ... done (   0.0 sec)
Back transforming the eigenvectors                 ... done (   0.0 sec)
Now organizing SCF variables                       ... done
                      ------------------
                      INITIAL GUESS DONE (   0.2 sec)
                      ------------------
--------------
SCF ITERATIONS
--------------
ITER       Energy         Delta-E        Max-DP      RMS-DP      [F,P]     Damp
               ***  Starting incremental Fock matrix formation  ***
  0   -312.1643455117   0.000000000000 0.01499713  0.00075572  2.1710094 0.7000
  1   -312.1741024474  -0.009756935659 0.01042098  0.00052498  1.5096641 0.7000
  2   -312.1808672473  -0.006764799892 0.00722222  0.00036374  1.0488740 0.7000
                      *** Initiating the SOSCF procedure ***
                      *** Re-Reading the Fockian *** 
                      *** Removing any level shift *** 
ITER      Energy       Delta-E        Grad      Rot      Max-DP    RMS-DP
  3   -312.18557131  -0.0047040588  0.002910  0.002910  0.016684  0.000840
               *** Restarting incremental Fock matrix formation ***
  4   -312.19644934  -0.0108780361  0.006718  0.000050  0.000388  0.000020
  5   -312.19645064  -0.0000012963  0.000128  0.000001  0.000007  0.000000
                 **** Energy Check signals convergence ****
              ***Rediagonalizing the Fockian in SOSCF/NRSCF***

               *****************************************************
               *                     SUCCESS                       *
               *           SCF CONVERGED AFTER   6 CYCLES          *
               *****************************************************

Setting up the final grid:

General Integration Accuracy     IntAcc      ...  5.340
Radial Grid Type                 RadialGrid  ... Gauss-Chebyshev
Angular Grid (max. acc.)         AngularGrid ... Lebedev-590
Angular grid pruning method      GridPruning ... 3 (G Style)
Weight generation scheme         WeightScheme... Becke
Basis function cutoff            BFCut       ...    1.0000e-12
Integration weight cutoff        WCut        ...    1.0000e-14
Grids for H and He will be reduced by one unit

# of grid points (after initial pruning)     ...  18110 (   0.0 sec)
# of grid points (after weights+screening)   ...  18110 (   0.0 sec)
Grid point division into batches done        ...    0.2 sec
Reduced shell lists constructed in    0.2 sec

Total number of grid points                  ...    18110
Total number of batches                      ...      283
Average number of points per batch           ...       63
Average number of grid points per atom       ...    18110
Average number of shells per batch           ...     0.00 ( 0.00%)
Average number of basis functions per batch  ...     0.00 ( 0.00%)
Average number of large shells per batch     ...     0.00 ( -nan%)
Average number of large basis fcns per batch ...     0.00 ( -nan%)
Maximum spatial batch extension              ...  19.03, 19.03, 19.03 au
Average spatial batch extension              ...   0.84,  0.84,  0.80 au

Final grid set up in    0.2 sec
Final integration                            ... done (   0.0 sec)
Change in XC energy                          ...     0.000001205
Integrated number of electrons               ...     1.999999988
Previous integrated no of electrons          ...     2.000000070

----------------
TOTAL SCF ENERGY
----------------

Total Energy       :         -312.19644943 Eh           -8495.29728 eV

Components:
Nuclear Repulsion  :            0.00000000 Eh               0.00000 eV
Electronic Energy  :         -312.19644943 Eh           -8495.29728 eV
One Electron Energy:         -324.53319370 Eh           -8830.99716 eV
Two Electron Energy:           12.33674426 Eh             335.69988 eV

Virial components:
Potential Energy   :         -623.74344066 Eh          -16972.92191 eV
Kinetic Energy     :          311.54699123 Eh            8477.62463 eV
Virial Ratio       :            2.00208462


DFT components:
N(Alpha)           :        0.999999994002 electrons
N(Beta)            :        0.999999994002 electrons
N(Total)           :        1.999999988004 electrons
E(X)               :       -9.448613488633 Eh       
E(C)               :       -0.237004822935 Eh       
E(XC)              :       -9.685618311568 Eh       
DFET-embed. en.    :        0.000000000000 Eh       

---------------
SCF CONVERGENCE
---------------

  Last Energy change         ...   -4.7288e-10  Tolerance :   1.0000e-09
  Last MAX-Density change    ...    0.0000e+00  Tolerance :   1.0000e-08
  Last RMS-Density change    ...    0.0000e+00  Tolerance :   1.0000e-09
  Last Orbital Gradient      ...    9.6526e-10  Tolerance :   2.0000e-06
  Last Orbital Rotation      ...    0.0000e+00  Tolerance :   2.0000e-06

================================================================================
                                        WARNING
Number of found core electrons (2) does not match given number of chemical core electrons (10)
================================================================================
             **** THE GBW FILE WAS UPDATED (Ar_cc-pcvdz_274.071978_.gbw) ****
             **** DENSITY FILE WAS UPDATED (Ar_cc-pcvdz_274.071978_.scfp) ****
             **** ENERGY FILE WAS UPDATED (Ar_cc-pcvdz_274.071978_.en.tmp) ****
             **** THE GBW FILE WAS UPDATED (Ar_cc-pcvdz_274.071978_.gbw) ****
             **** DENSITY FILE WAS UPDATED (Ar_cc-pcvdz_274.071978_.scfp) ****
----------------
ORBITAL ENERGIES
----------------

  NO   OCC          E(Eh)            E(eV) 
   0   2.0000    -146.671365     -3991.1307 
   1   0.0000     -34.083214      -927.4514 
   2   0.0000     -33.233276      -904.3234 
   3   0.0000     -33.233276      -904.3234 
   4   0.0000     -33.233276      -904.3234 
   5   0.0000     -13.701528      -372.8375 
   6   0.0000     -13.536018      -368.3338 
   7   0.0000     -13.536018      -368.3338 
   8   0.0000     -13.536018      -368.3338 
   9   0.0000      -9.737648      -264.9749 
  10   0.0000      -9.737648      -264.9749 
  11   0.0000      -9.737648      -264.9749 
  12   0.0000      -9.737648      -264.9749 
  13   0.0000      -9.737648      -264.9749 
  14   0.0000      -7.114194      -193.5871 
  15   0.0000      -7.114194      -193.5871 
  16   0.0000      -7.114194      -193.5871 
  17   0.0000      -6.586328      -179.2231 
  18   0.0000      -5.544436      -150.8718 
  19   0.0000      -5.544436      -150.8718 
  20   0.0000      -5.544436      -150.8718 
  21   0.0000      -5.544436      -150.8718 
  22   0.0000      -5.544436      -150.8718 
  23   0.0000      -4.761698      -129.5724 
  24   0.0000      -4.761698      -129.5724 
  25   0.0000      -4.761698      -129.5724 
  26   0.0000       0.695587        18.9279 

                    ********************************
                    * MULLIKEN POPULATION ANALYSIS *
                    ********************************

-----------------------
MULLIKEN ATOMIC CHARGES
-----------------------
   0 Ar:   16.000000
Sum of atomic charges:   16.0000000

--------------------------------
MULLIKEN REDUCED ORBITAL CHARGES
--------------------------------
  0 Ars       :     2.000000  s :     2.000000
      pz      :     0.000000  p :     0.000000
      px      :     0.000000
      py      :     0.000000
      dz2     :     0.000000  d :     0.000000
      dxz     :     0.000000
      dyz     :     0.000000
      dx2y2   :     0.000000
      dxy     :     0.000000


                     *******************************
                     * LOEWDIN POPULATION ANALYSIS *
                     *******************************

----------------------
LOEWDIN ATOMIC CHARGES
----------------------
   0 Ar:   16.000000

-------------------------------
LOEWDIN REDUCED ORBITAL CHARGES
-------------------------------
  0 Ars       :     2.000000  s :     2.000000
      pz      :     0.000000  p :     0.000000
      px      :     0.000000
      py      :     0.000000
      dz2     :     0.000000  d :     0.000000
      dxz     :     0.000000
      dyz     :     0.000000
      dx2y2   :     0.000000
      dxy     :     0.000000


                      *****************************
                      * MAYER POPULATION ANALYSIS *
                      *****************************

  NA   - Mulliken gross atomic population
  ZA   - Total nuclear charge
  QA   - Mulliken gross atomic charge
  VA   - Mayer's total valence
  BVA  - Mayer's bonded valence
  FA   - Mayer's free valence

  ATOM       NA         ZA         QA         VA         BVA        FA
  0 Ar     2.0000    18.0000    16.0000    -0.0000     0.0000    -0.0000

  Mayer bond orders larger than 0.100000


--------------------------
ATOM BASIS FOR ELEMENT Ar
--------------------------
 NewGTO Ar
 S 35
    1     145700.000000000000         0.000239010903
    2      21840.000000000000         0.001853147357
    3       4972.000000000000         0.009621627753
    4       1408.000000000000         0.039005428220
    5        459.700000000000         0.125292403212
    6        165.900000000000         0.299365447351
    7         64.690000000000         0.426188651277
    8         26.440000000000         0.244070825290
    9          7.628000000000         0.020246657003
   10          2.996000000000        -0.003645244442
   11          0.650400000000         0.000985131854
   12     145700.000000000000        -0.000000267716
   13      21840.000000000000        -0.000002056814
   14       4972.000000000000        -0.000010901446
   15       1408.000000000000        -0.000044032996
   16        459.700000000000        -0.000152646027
   17        165.900000000000        -0.000395716240
   18         64.690000000000        -0.000805586411
   19         26.440000000000        -0.000537914411
   20          7.628000000000         0.002011883516
   21          2.996000000000         0.002431174170
   22          0.650400000000         0.000175711515
   23     145700.000000000000        -0.000000069650
   24      21840.000000000000        -0.000000538006
   25       4972.000000000000        -0.000002831141
   26       1408.000000000000        -0.000011574754
   27        459.700000000000        -0.000039765432
   28        165.900000000000        -0.000106356215
   29         64.690000000000        -0.000216863516
   30         26.440000000000        -0.000165265687
   31          7.628000000000         0.000760416758
   32          2.996000000000         0.001393312490
   33          0.650400000000        -0.002125783968
   34          0.233700000000         0.000391638110
   35          9.548000000000        -0.017723515100
 S 35
    1     145700.000000000000         0.000046782518
    2      21840.000000000000         0.000362723621
    3       4972.000000000000         0.001883278008
    4       1408.000000000000         0.007634681681
    5        459.700000000000         0.024523961386
    6        165.900000000000         0.058595944230
    7         64.690000000000         0.083419535096
    8         26.440000000000         0.047772916325
    9          7.628000000000         0.003962955629
   10          2.996000000000        -0.000713497639
   11          0.650400000000         0.000192823626
   12     145700.000000000000         0.000046005440
   13      21840.000000000000         0.000353452055
   14       4972.000000000000         0.001873352739
   15       1408.000000000000         0.007566824980
   16        459.700000000000         0.026231369092
   17        165.900000000000         0.068001630826
   18         64.690000000000         0.138435535734
   19         26.440000000000         0.092437594195
   20          7.628000000000        -0.345730971533
   21          2.996000000000        -0.417783734048
   22          0.650400000000        -0.030195044706
   23     145700.000000000000         0.000003186807
   24      21840.000000000000         0.000024616114
   25       4972.000000000000         0.000129536953
   26       1408.000000000000         0.000529595106
   27        459.700000000000         0.001819440722
   28        165.900000000000         0.004866257414
   29         64.690000000000         0.009922444960
   30         26.440000000000         0.007561620836
   31          7.628000000000        -0.034792359528
   32          2.996000000000        -0.063750079930
   33          0.650400000000         0.097263821873
   34          0.233700000000        -0.025019021339
   35          9.548000000000        -0.358446197593
 S 35
    1     145700.000000000000         0.000104665889
    2      21840.000000000000         0.000811516604
    3       4972.000000000000         0.004213432165
    4       1408.000000000000         0.017080969051
    5        459.700000000000         0.054867123865
    6        165.900000000000         0.131095905734
    7         64.690000000000         0.186633386542
    8         26.440000000000         0.106881693221
    9          7.628000000000         0.008866266503
   10          2.996000000000        -0.001596298524
   11          0.650400000000         0.000431401666
   12     145700.000000000000        -0.000077616224
   13      21840.000000000000        -0.000596312392
   14       4972.000000000000        -0.003160551589
   15       1408.000000000000        -0.012766063866
   16        459.700000000000        -0.044255197391
   17        165.900000000000        -0.114726211376
   18         64.690000000000        -0.233555935962
   19         26.440000000000        -0.155952362345
   20          7.628000000000         0.583286077662
   21          2.996000000000         0.704846992630
   22          0.650400000000         0.050942352990
   23     145700.000000000000         0.000044559167
   24      21840.000000000000         0.000344191972
   25       4972.000000000000         0.001811235489
   26       1408.000000000000         0.007405002391
   27        459.700000000000         0.025440119724
   28        165.900000000000         0.068041882181
   29         64.690000000000         0.138739440498
   30         26.440000000000         0.105729489884
   31          7.628000000000        -0.486480148209
   32          2.996000000000        -0.891378128802
   33          0.650400000000         1.359980154325
   34          0.233700000000        -0.339336890315
   35          9.548000000000        -0.662919393191
 S 35
    1     145700.000000000000        -0.000096221788
    2      21840.000000000000        -0.000746046103
    3       4972.000000000000        -0.003873506264
    4       1408.000000000000        -0.015702932438
    5        459.700000000000        -0.050440624098
    6        165.900000000000        -0.120519517629
    7         64.690000000000        -0.171576416468
    8         26.440000000000        -0.098258828438
    9          7.628000000000        -0.008150965174
   10          2.996000000000         0.001467514390
   11          0.650400000000        -0.000396597593
   12     145700.000000000000         0.000092810411
   13      21840.000000000000         0.000713046775
   14       4972.000000000000         0.003779262594
   15       1408.000000000000         0.015265154291
   16        459.700000000000         0.052918614809
   17        165.900000000000         0.137185066304
   18         64.690000000000         0.279276951415
   19         26.440000000000         0.186481667196
   20          7.628000000000        -0.697470423526
   21          2.996000000000        -0.842828158081
   22          0.650400000000        -0.060914851008
   23     145700.000000000000        -0.000043881327
   24      21840.000000000000        -0.000338956078
   25       4972.000000000000        -0.001783682731
   26       1408.000000000000        -0.007292356498
   27        459.700000000000        -0.025053121198
   28        165.900000000000        -0.067006819910
   29         64.690000000000        -0.136628917452
   30         26.440000000000        -0.104121118650
   31          7.628000000000         0.479079746703
   32          2.996000000000         0.877818364708
   33          0.650400000000        -1.339291953134
   34          0.233700000000         1.800020815052
   35          9.548000000000         0.475223641253
 S 35
    1     145700.000000000000         0.000376619341
    2      21840.000000000000         0.002920080752
    3       4972.000000000000         0.015161195846
    4       1408.000000000000         0.061462462640
    5        459.700000000000         0.197428409401
    6        165.900000000000         0.471722487436
    7         64.690000000000         0.671563042682
    8         26.440000000000         0.384592469957
    9          7.628000000000         0.031903492832
   10          2.996000000000        -0.005743962073
   11          0.650400000000         0.001552312910
   12     145700.000000000000        -0.000100320257
   13      21840.000000000000        -0.000770743662
   14       4972.000000000000        -0.004085065376
   15       1408.000000000000        -0.016500349392
   16        459.700000000000        -0.057200577016
   17        165.900000000000        -0.148285532018
   18         64.690000000000        -0.301874922954
   19         26.440000000000        -0.201571016269
   20          7.628000000000         0.753906934667
   21          2.996000000000         0.911026434495
   22          0.650400000000         0.065843836598
   23     145700.000000000000        -0.000060478542
   24      21840.000000000000        -0.000467159282
   25       4972.000000000000        -0.002458324245
   26       1408.000000000000        -0.010050541203
   27        459.700000000000        -0.034528951917
   28        165.900000000000        -0.092350779150
   29         64.690000000000        -0.188306011211
   30         26.440000000000        -0.143502802346
   31          7.628000000000         0.660281862992
   32          2.996000000000         1.209835208453
   33          0.650400000000        -1.845851743872
   34          0.233700000000         0.886635605897
   35          9.548000000000        -3.056862342111
 P 16
    1        453.700000000000         0.007732911720
    2        106.800000000000         0.058341600350
    3         33.730000000000         0.239339347383
    4         12.130000000000         0.551434245766
    5          4.594000000000         0.613353921313
    6          1.678000000000         0.166436065246
    7          0.590900000000        -0.006044724339
    8        453.700000000000         0.000239784886
    9        106.800000000000         0.001816636746
   10         33.730000000000         0.007773012425
   11         12.130000000000         0.018468309401
   12          4.594000000000         0.022629824572
   13          1.678000000000        -0.021257578303
   14          0.590900000000        -0.087239429705
   15          0.185200000000         0.033442512713
   16          4.361000000000        -0.431917750142
 P 16
    1        453.700000000000         0.004367092206
    2        106.800000000000         0.032947893033
    3         33.730000000000         0.135164739549
    4         12.130000000000         0.311417520866
    5          4.594000000000         0.346386099622
    6          1.678000000000         0.093993267955
    7          0.590900000000        -0.003413703596
    8        453.700000000000         0.001966284964
    9        106.800000000000         0.014896791762
   10         33.730000000000         0.063740286944
   11         12.130000000000         0.151443903109
   12          4.594000000000         0.185569176120
   13          1.678000000000        -0.174316476885
   14          0.590900000000        -0.715381113258
   15          0.185200000000         0.224426312932
   16          4.361000000000        -1.155695778233
 P 16
    1        453.700000000000         0.008442244918
    2        106.800000000000         0.063693224093
    3         33.730000000000         0.261293735440
    4         12.130000000000         0.602016824652
    5          4.594000000000         0.669616337636
    6          1.678000000000         0.181703099284
    7          0.590900000000        -0.006599201592
    8        453.700000000000        -0.001255031787
    9        106.800000000000        -0.009508259246
   10         33.730000000000        -0.040683872228
   11         12.130000000000        -0.096662953670
   12          4.594000000000        -0.118444284025
   13          1.678000000000         0.111261960258
   14          0.590900000000         0.456610335493
   15          0.185200000000         0.399713165427
   16          4.361000000000        -1.727383244836
 P 16
    1        453.700000000000         0.007151926976
    2        106.800000000000         0.053958312275
    3         33.730000000000         0.221357439089
    4         12.130000000000         0.510004200327
    5          4.594000000000         0.567271761881
    6          1.678000000000         0.153931485056
    7          0.590900000000        -0.005590575534
    8        453.700000000000        -0.002283753294
    9        106.800000000000        -0.017301966852
   10         33.730000000000        -0.074031533060
   11         12.130000000000        -0.175895416497
   12          4.594000000000        -0.215530416560
   13          1.678000000000         0.202460902516
   14          0.590900000000         0.830883622828
   15          0.185200000000        -1.226009436001
   16          4.361000000000        -1.249508986064
 D 2
    1          0.738000000000         0.894541989208
    2         11.459000000000         0.384997078720
 D 2
    1          0.738000000000        -0.453246277630
    2         11.459000000000         0.925966958383
 end
  // -----------------------------------------------
  // The basis set
  // -----------------------------------------------
  BAS[ATNO] = new BFNGauss[NSH];
  // Basis function   1 L = s
  InitBFNGauss(BAS[ATNO][  0]);
  BAS[ATNO][  0].l  = 0;
  BAS[ATNO][  0].ng = 35;
  BAS[ATNO][  0].a[  0] =    145700.000000000000;     BAS[ATNO][  0].d[  0] =         0.000239010903;
  BAS[ATNO][  0].a[  1] =     21840.000000000000;     BAS[ATNO][  0].d[  1] =         0.001853147357;
  BAS[ATNO][  0].a[  2] =      4972.000000000000;     BAS[ATNO][  0].d[  2] =         0.009621627753;
  BAS[ATNO][  0].a[  3] =      1408.000000000000;     BAS[ATNO][  0].d[  3] =         0.039005428220;
  BAS[ATNO][  0].a[  4] =       459.700000000000;     BAS[ATNO][  0].d[  4] =         0.125292403212;
  BAS[ATNO][  0].a[  5] =       165.900000000000;     BAS[ATNO][  0].d[  5] =         0.299365447351;
  BAS[ATNO][  0].a[  6] =        64.690000000000;     BAS[ATNO][  0].d[  6] =         0.426188651277;
  BAS[ATNO][  0].a[  7] =        26.440000000000;     BAS[ATNO][  0].d[  7] =         0.244070825290;
  BAS[ATNO][  0].a[  8] =         7.628000000000;     BAS[ATNO][  0].d[  8] =         0.020246657003;
  BAS[ATNO][  0].a[  9] =         2.996000000000;     BAS[ATNO][  0].d[  9] =        -0.003645244442;
  BAS[ATNO][  0].a[ 10] =         0.650400000000;     BAS[ATNO][  0].d[ 10] =         0.000985131854;
  BAS[ATNO][  0].a[ 11] =    145700.000000000000;     BAS[ATNO][  0].d[ 11] =        -0.000000267716;
  BAS[ATNO][  0].a[ 12] =     21840.000000000000;     BAS[ATNO][  0].d[ 12] =        -0.000002056814;
  BAS[ATNO][  0].a[ 13] =      4972.000000000000;     BAS[ATNO][  0].d[ 13] =        -0.000010901446;
  BAS[ATNO][  0].a[ 14] =      1408.000000000000;     BAS[ATNO][  0].d[ 14] =        -0.000044032996;
  BAS[ATNO][  0].a[ 15] =       459.700000000000;     BAS[ATNO][  0].d[ 15] =        -0.000152646027;
  BAS[ATNO][  0].a[ 16] =       165.900000000000;     BAS[ATNO][  0].d[ 16] =        -0.000395716240;
  BAS[ATNO][  0].a[ 17] =        64.690000000000;     BAS[ATNO][  0].d[ 17] =        -0.000805586411;
  BAS[ATNO][  0].a[ 18] =        26.440000000000;     BAS[ATNO][  0].d[ 18] =        -0.000537914411;
  BAS[ATNO][  0].a[ 19] =         7.628000000000;     BAS[ATNO][  0].d[ 19] =         0.002011883516;
  BAS[ATNO][  0].a[ 20] =         2.996000000000;     BAS[ATNO][  0].d[ 20] =         0.002431174170;
  BAS[ATNO][  0].a[ 21] =         0.650400000000;     BAS[ATNO][  0].d[ 21] =         0.000175711515;
  BAS[ATNO][  0].a[ 22] =    145700.000000000000;     BAS[ATNO][  0].d[ 22] =        -0.000000069650;
  BAS[ATNO][  0].a[ 23] =     21840.000000000000;     BAS[ATNO][  0].d[ 23] =        -0.000000538006;
  BAS[ATNO][  0].a[ 24] =      4972.000000000000;     BAS[ATNO][  0].d[ 24] =        -0.000002831141;
  BAS[ATNO][  0].a[ 25] =      1408.000000000000;     BAS[ATNO][  0].d[ 25] =        -0.000011574754;
  BAS[ATNO][  0].a[ 26] =       459.700000000000;     BAS[ATNO][  0].d[ 26] =        -0.000039765432;
  BAS[ATNO][  0].a[ 27] =       165.900000000000;     BAS[ATNO][  0].d[ 27] =        -0.000106356215;
  BAS[ATNO][  0].a[ 28] =        64.690000000000;     BAS[ATNO][  0].d[ 28] =        -0.000216863516;
  BAS[ATNO][  0].a[ 29] =        26.440000000000;     BAS[ATNO][  0].d[ 29] =        -0.000165265687;
  BAS[ATNO][  0].a[ 30] =         7.628000000000;     BAS[ATNO][  0].d[ 30] =         0.000760416758;
  BAS[ATNO][  0].a[ 31] =         2.996000000000;     BAS[ATNO][  0].d[ 31] =         0.001393312490;
  BAS[ATNO][  0].a[ 32] =         0.650400000000;     BAS[ATNO][  0].d[ 32] =        -0.002125783968;
  BAS[ATNO][  0].a[ 33] =         0.233700000000;     BAS[ATNO][  0].d[ 33] =         0.000391638110;
  BAS[ATNO][  0].a[ 34] =         9.548000000000;     BAS[ATNO][  0].d[ 34] =        -0.017723515100;

  // Basis function   2 L = s
  InitBFNGauss(BAS[ATNO][  1]);
  BAS[ATNO][  1].l  = 0;
  BAS[ATNO][  1].ng = 35;
  BAS[ATNO][  1].a[  0] =    145700.000000000000;     BAS[ATNO][  1].d[  0] =        -0.000046782518;
  BAS[ATNO][  1].a[  1] =     21840.000000000000;     BAS[ATNO][  1].d[  1] =        -0.000362723621;
  BAS[ATNO][  1].a[  2] =      4972.000000000000;     BAS[ATNO][  1].d[  2] =        -0.001883278008;
  BAS[ATNO][  1].a[  3] =      1408.000000000000;     BAS[ATNO][  1].d[  3] =        -0.007634681681;
  BAS[ATNO][  1].a[  4] =       459.700000000000;     BAS[ATNO][  1].d[  4] =        -0.024523961386;
  BAS[ATNO][  1].a[  5] =       165.900000000000;     BAS[ATNO][  1].d[  5] =        -0.058595944230;
  BAS[ATNO][  1].a[  6] =        64.690000000000;     BAS[ATNO][  1].d[  6] =        -0.083419535096;
  BAS[ATNO][  1].a[  7] =        26.440000000000;     BAS[ATNO][  1].d[  7] =        -0.047772916325;
  BAS[ATNO][  1].a[  8] =         7.628000000000;     BAS[ATNO][  1].d[  8] =        -0.003962955629;
  BAS[ATNO][  1].a[  9] =         2.996000000000;     BAS[ATNO][  1].d[  9] =         0.000713497639;
  BAS[ATNO][  1].a[ 10] =         0.650400000000;     BAS[ATNO][  1].d[ 10] =        -0.000192823626;
  BAS[ATNO][  1].a[ 11] =    145700.000000000000;     BAS[ATNO][  1].d[ 11] =        -0.000046005440;
  BAS[ATNO][  1].a[ 12] =     21840.000000000000;     BAS[ATNO][  1].d[ 12] =        -0.000353452055;
  BAS[ATNO][  1].a[ 13] =      4972.000000000000;     BAS[ATNO][  1].d[ 13] =        -0.001873352739;
  BAS[ATNO][  1].a[ 14] =      1408.000000000000;     BAS[ATNO][  1].d[ 14] =        -0.007566824980;
  BAS[ATNO][  1].a[ 15] =       459.700000000000;     BAS[ATNO][  1].d[ 15] =        -0.026231369092;
  BAS[ATNO][  1].a[ 16] =       165.900000000000;     BAS[ATNO][  1].d[ 16] =        -0.068001630826;
  BAS[ATNO][  1].a[ 17] =        64.690000000000;     BAS[ATNO][  1].d[ 17] =        -0.138435535734;
  BAS[ATNO][  1].a[ 18] =        26.440000000000;     BAS[ATNO][  1].d[ 18] =        -0.092437594195;
  BAS[ATNO][  1].a[ 19] =         7.628000000000;     BAS[ATNO][  1].d[ 19] =         0.345730971533;
  BAS[ATNO][  1].a[ 20] =         2.996000000000;     BAS[ATNO][  1].d[ 20] =         0.417783734048;
  BAS[ATNO][  1].a[ 21] =         0.650400000000;     BAS[ATNO][  1].d[ 21] =         0.030195044706;
  BAS[ATNO][  1].a[ 22] =    145700.000000000000;     BAS[ATNO][  1].d[ 22] =        -0.000003186807;
  BAS[ATNO][  1].a[ 23] =     21840.000000000000;     BAS[ATNO][  1].d[ 23] =        -0.000024616114;
  BAS[ATNO][  1].a[ 24] =      4972.000000000000;     BAS[ATNO][  1].d[ 24] =        -0.000129536953;
  BAS[ATNO][  1].a[ 25] =      1408.000000000000;     BAS[ATNO][  1].d[ 25] =        -0.000529595106;
  BAS[ATNO][  1].a[ 26] =       459.700000000000;     BAS[ATNO][  1].d[ 26] =        -0.001819440722;
  BAS[ATNO][  1].a[ 27] =       165.900000000000;     BAS[ATNO][  1].d[ 27] =        -0.004866257414;
  BAS[ATNO][  1].a[ 28] =        64.690000000000;     BAS[ATNO][  1].d[ 28] =        -0.009922444960;
  BAS[ATNO][  1].a[ 29] =        26.440000000000;     BAS[ATNO][  1].d[ 29] =        -0.007561620836;
  BAS[ATNO][  1].a[ 30] =         7.628000000000;     BAS[ATNO][  1].d[ 30] =         0.034792359528;
  BAS[ATNO][  1].a[ 31] =         2.996000000000;     BAS[ATNO][  1].d[ 31] =         0.063750079930;
  BAS[ATNO][  1].a[ 32] =         0.650400000000;     BAS[ATNO][  1].d[ 32] =        -0.097263821873;
  BAS[ATNO][  1].a[ 33] =         0.233700000000;     BAS[ATNO][  1].d[ 33] =         0.025019021339;
  BAS[ATNO][  1].a[ 34] =         9.548000000000;     BAS[ATNO][  1].d[ 34] =         0.358446197593;

  // Basis function   3 L = s
  InitBFNGauss(BAS[ATNO][  2]);
  BAS[ATNO][  2].l  = 0;
  BAS[ATNO][  2].ng = 35;
  BAS[ATNO][  2].a[  0] =    145700.000000000000;     BAS[ATNO][  2].d[  0] =         0.000104665889;
  BAS[ATNO][  2].a[  1] =     21840.000000000000;     BAS[ATNO][  2].d[  1] =         0.000811516604;
  BAS[ATNO][  2].a[  2] =      4972.000000000000;     BAS[ATNO][  2].d[  2] =         0.004213432165;
  BAS[ATNO][  2].a[  3] =      1408.000000000000;     BAS[ATNO][  2].d[  3] =         0.017080969051;
  BAS[ATNO][  2].a[  4] =       459.700000000000;     BAS[ATNO][  2].d[  4] =         0.054867123865;
  BAS[ATNO][  2].a[  5] =       165.900000000000;     BAS[ATNO][  2].d[  5] =         0.131095905734;
  BAS[ATNO][  2].a[  6] =        64.690000000000;     BAS[ATNO][  2].d[  6] =         0.186633386542;
  BAS[ATNO][  2].a[  7] =        26.440000000000;     BAS[ATNO][  2].d[  7] =         0.106881693221;
  BAS[ATNO][  2].a[  8] =         7.628000000000;     BAS[ATNO][  2].d[  8] =         0.008866266503;
  BAS[ATNO][  2].a[  9] =         2.996000000000;     BAS[ATNO][  2].d[  9] =        -0.001596298524;
  BAS[ATNO][  2].a[ 10] =         0.650400000000;     BAS[ATNO][  2].d[ 10] =         0.000431401666;
  BAS[ATNO][  2].a[ 11] =    145700.000000000000;     BAS[ATNO][  2].d[ 11] =        -0.000077616224;
  BAS[ATNO][  2].a[ 12] =     21840.000000000000;     BAS[ATNO][  2].d[ 12] =        -0.000596312392;
  BAS[ATNO][  2].a[ 13] =      4972.000000000000;     BAS[ATNO][  2].d[ 13] =        -0.003160551589;
  BAS[ATNO][  2].a[ 14] =      1408.000000000000;     BAS[ATNO][  2].d[ 14] =        -0.012766063866;
  BAS[ATNO][  2].a[ 15] =       459.700000000000;     BAS[ATNO][  2].d[ 15] =        -0.044255197391;
  BAS[ATNO][  2].a[ 16] =       165.900000000000;     BAS[ATNO][  2].d[ 16] =        -0.114726211376;
  BAS[ATNO][  2].a[ 17] =        64.690000000000;     BAS[ATNO][  2].d[ 17] =        -0.233555935962;
  BAS[ATNO][  2].a[ 18] =        26.440000000000;     BAS[ATNO][  2].d[ 18] =        -0.155952362345;
  BAS[ATNO][  2].a[ 19] =         7.628000000000;     BAS[ATNO][  2].d[ 19] =         0.583286077662;
  BAS[ATNO][  2].a[ 20] =         2.996000000000;     BAS[ATNO][  2].d[ 20] =         0.704846992630;
  BAS[ATNO][  2].a[ 21] =         0.650400000000;     BAS[ATNO][  2].d[ 21] =         0.050942352990;
  BAS[ATNO][  2].a[ 22] =    145700.000000000000;     BAS[ATNO][  2].d[ 22] =         0.000044559167;
  BAS[ATNO][  2].a[ 23] =     21840.000000000000;     BAS[ATNO][  2].d[ 23] =         0.000344191972;
  BAS[ATNO][  2].a[ 24] =      4972.000000000000;     BAS[ATNO][  2].d[ 24] =         0.001811235489;
  BAS[ATNO][  2].a[ 25] =      1408.000000000000;     BAS[ATNO][  2].d[ 25] =         0.007405002391;
  BAS[ATNO][  2].a[ 26] =       459.700000000000;     BAS[ATNO][  2].d[ 26] =         0.025440119724;
  BAS[ATNO][  2].a[ 27] =       165.900000000000;     BAS[ATNO][  2].d[ 27] =         0.068041882181;
  BAS[ATNO][  2].a[ 28] =        64.690000000000;     BAS[ATNO][  2].d[ 28] =         0.138739440498;
  BAS[ATNO][  2].a[ 29] =        26.440000000000;     BAS[ATNO][  2].d[ 29] =         0.105729489884;
  BAS[ATNO][  2].a[ 30] =         7.628000000000;     BAS[ATNO][  2].d[ 30] =        -0.486480148209;
  BAS[ATNO][  2].a[ 31] =         2.996000000000;     BAS[ATNO][  2].d[ 31] =        -0.891378128802;
  BAS[ATNO][  2].a[ 32] =         0.650400000000;     BAS[ATNO][  2].d[ 32] =         1.359980154325;
  BAS[ATNO][  2].a[ 33] =         0.233700000000;     BAS[ATNO][  2].d[ 33] =        -0.339336890315;
  BAS[ATNO][  2].a[ 34] =         9.548000000000;     BAS[ATNO][  2].d[ 34] =        -0.662919393191;

  // Basis function   4 L = s
  InitBFNGauss(BAS[ATNO][  3]);
  BAS[ATNO][  3].l  = 0;
  BAS[ATNO][  3].ng = 35;
  BAS[ATNO][  3].a[  0] =    145700.000000000000;     BAS[ATNO][  3].d[  0] =        -0.000096221788;
  BAS[ATNO][  3].a[  1] =     21840.000000000000;     BAS[ATNO][  3].d[  1] =        -0.000746046103;
  BAS[ATNO][  3].a[  2] =      4972.000000000000;     BAS[ATNO][  3].d[  2] =        -0.003873506264;
  BAS[ATNO][  3].a[  3] =      1408.000000000000;     BAS[ATNO][  3].d[  3] =        -0.015702932438;
  BAS[ATNO][  3].a[  4] =       459.700000000000;     BAS[ATNO][  3].d[  4] =        -0.050440624098;
  BAS[ATNO][  3].a[  5] =       165.900000000000;     BAS[ATNO][  3].d[  5] =        -0.120519517629;
  BAS[ATNO][  3].a[  6] =        64.690000000000;     BAS[ATNO][  3].d[  6] =        -0.171576416468;
  BAS[ATNO][  3].a[  7] =        26.440000000000;     BAS[ATNO][  3].d[  7] =        -0.098258828438;
  BAS[ATNO][  3].a[  8] =         7.628000000000;     BAS[ATNO][  3].d[  8] =        -0.008150965174;
  BAS[ATNO][  3].a[  9] =         2.996000000000;     BAS[ATNO][  3].d[  9] =         0.001467514390;
  BAS[ATNO][  3].a[ 10] =         0.650400000000;     BAS[ATNO][  3].d[ 10] =        -0.000396597593;
  BAS[ATNO][  3].a[ 11] =    145700.000000000000;     BAS[ATNO][  3].d[ 11] =         0.000092810411;
  BAS[ATNO][  3].a[ 12] =     21840.000000000000;     BAS[ATNO][  3].d[ 12] =         0.000713046775;
  BAS[ATNO][  3].a[ 13] =      4972.000000000000;     BAS[ATNO][  3].d[ 13] =         0.003779262594;
  BAS[ATNO][  3].a[ 14] =      1408.000000000000;     BAS[ATNO][  3].d[ 14] =         0.015265154291;
  BAS[ATNO][  3].a[ 15] =       459.700000000000;     BAS[ATNO][  3].d[ 15] =         0.052918614809;
  BAS[ATNO][  3].a[ 16] =       165.900000000000;     BAS[ATNO][  3].d[ 16] =         0.137185066304;
  BAS[ATNO][  3].a[ 17] =        64.690000000000;     BAS[ATNO][  3].d[ 17] =         0.279276951415;
  BAS[ATNO][  3].a[ 18] =        26.440000000000;     BAS[ATNO][  3].d[ 18] =         0.186481667196;
  BAS[ATNO][  3].a[ 19] =         7.628000000000;     BAS[ATNO][  3].d[ 19] =        -0.697470423526;
  BAS[ATNO][  3].a[ 20] =         2.996000000000;     BAS[ATNO][  3].d[ 20] =        -0.842828158081;
  BAS[ATNO][  3].a[ 21] =         0.650400000000;     BAS[ATNO][  3].d[ 21] =        -0.060914851008;
  BAS[ATNO][  3].a[ 22] =    145700.000000000000;     BAS[ATNO][  3].d[ 22] =        -0.000043881327;
  BAS[ATNO][  3].a[ 23] =     21840.000000000000;     BAS[ATNO][  3].d[ 23] =        -0.000338956078;
  BAS[ATNO][  3].a[ 24] =      4972.000000000000;     BAS[ATNO][  3].d[ 24] =        -0.001783682731;
  BAS[ATNO][  3].a[ 25] =      1408.000000000000;     BAS[ATNO][  3].d[ 25] =        -0.007292356498;
  BAS[ATNO][  3].a[ 26] =       459.700000000000;     BAS[ATNO][  3].d[ 26] =        -0.025053121198;
  BAS[ATNO][  3].a[ 27] =       165.900000000000;     BAS[ATNO][  3].d[ 27] =        -0.067006819910;
  BAS[ATNO][  3].a[ 28] =        64.690000000000;     BAS[ATNO][  3].d[ 28] =        -0.136628917452;
  BAS[ATNO][  3].a[ 29] =        26.440000000000;     BAS[ATNO][  3].d[ 29] =        -0.104121118650;
  BAS[ATNO][  3].a[ 30] =         7.628000000000;     BAS[ATNO][  3].d[ 30] =         0.479079746703;
  BAS[ATNO][  3].a[ 31] =         2.996000000000;     BAS[ATNO][  3].d[ 31] =         0.877818364708;
  BAS[ATNO][  3].a[ 32] =         0.650400000000;     BAS[ATNO][  3].d[ 32] =        -1.339291953134;
  BAS[ATNO][  3].a[ 33] =         0.233700000000;     BAS[ATNO][  3].d[ 33] =         1.800020815052;
  BAS[ATNO][  3].a[ 34] =         9.548000000000;     BAS[ATNO][  3].d[ 34] =         0.475223641253;

  // Basis function   5 L = s
  InitBFNGauss(BAS[ATNO][  4]);
  BAS[ATNO][  4].l  = 0;
  BAS[ATNO][  4].ng = 35;
  BAS[ATNO][  4].a[  0] =    145700.000000000000;     BAS[ATNO][  4].d[  0] =        -0.000376619341;
  BAS[ATNO][  4].a[  1] =     21840.000000000000;     BAS[ATNO][  4].d[  1] =        -0.002920080752;
  BAS[ATNO][  4].a[  2] =      4972.000000000000;     BAS[ATNO][  4].d[  2] =        -0.015161195846;
  BAS[ATNO][  4].a[  3] =      1408.000000000000;     BAS[ATNO][  4].d[  3] =        -0.061462462640;
  BAS[ATNO][  4].a[  4] =       459.700000000000;     BAS[ATNO][  4].d[  4] =        -0.197428409401;
  BAS[ATNO][  4].a[  5] =       165.900000000000;     BAS[ATNO][  4].d[  5] =        -0.471722487436;
  BAS[ATNO][  4].a[  6] =        64.690000000000;     BAS[ATNO][  4].d[  6] =        -0.671563042682;
  BAS[ATNO][  4].a[  7] =        26.440000000000;     BAS[ATNO][  4].d[  7] =        -0.384592469957;
  BAS[ATNO][  4].a[  8] =         7.628000000000;     BAS[ATNO][  4].d[  8] =        -0.031903492832;
  BAS[ATNO][  4].a[  9] =         2.996000000000;     BAS[ATNO][  4].d[  9] =         0.005743962073;
  BAS[ATNO][  4].a[ 10] =         0.650400000000;     BAS[ATNO][  4].d[ 10] =        -0.001552312910;
  BAS[ATNO][  4].a[ 11] =    145700.000000000000;     BAS[ATNO][  4].d[ 11] =         0.000100320257;
  BAS[ATNO][  4].a[ 12] =     21840.000000000000;     BAS[ATNO][  4].d[ 12] =         0.000770743662;
  BAS[ATNO][  4].a[ 13] =      4972.000000000000;     BAS[ATNO][  4].d[ 13] =         0.004085065376;
  BAS[ATNO][  4].a[ 14] =      1408.000000000000;     BAS[ATNO][  4].d[ 14] =         0.016500349392;
  BAS[ATNO][  4].a[ 15] =       459.700000000000;     BAS[ATNO][  4].d[ 15] =         0.057200577016;
  BAS[ATNO][  4].a[ 16] =       165.900000000000;     BAS[ATNO][  4].d[ 16] =         0.148285532018;
  BAS[ATNO][  4].a[ 17] =        64.690000000000;     BAS[ATNO][  4].d[ 17] =         0.301874922954;
  BAS[ATNO][  4].a[ 18] =        26.440000000000;     BAS[ATNO][  4].d[ 18] =         0.201571016269;
  BAS[ATNO][  4].a[ 19] =         7.628000000000;     BAS[ATNO][  4].d[ 19] =        -0.753906934667;
  BAS[ATNO][  4].a[ 20] =         2.996000000000;     BAS[ATNO][  4].d[ 20] =        -0.911026434495;
  BAS[ATNO][  4].a[ 21] =         0.650400000000;     BAS[ATNO][  4].d[ 21] =        -0.065843836598;
  BAS[ATNO][  4].a[ 22] =    145700.000000000000;     BAS[ATNO][  4].d[ 22] =         0.000060478542;
  BAS[ATNO][  4].a[ 23] =     21840.000000000000;     BAS[ATNO][  4].d[ 23] =         0.000467159282;
  BAS[ATNO][  4].a[ 24] =      4972.000000000000;     BAS[ATNO][  4].d[ 24] =         0.002458324245;
  BAS[ATNO][  4].a[ 25] =      1408.000000000000;     BAS[ATNO][  4].d[ 25] =         0.010050541203;
  BAS[ATNO][  4].a[ 26] =       459.700000000000;     BAS[ATNO][  4].d[ 26] =         0.034528951917;
  BAS[ATNO][  4].a[ 27] =       165.900000000000;     BAS[ATNO][  4].d[ 27] =         0.092350779150;
  BAS[ATNO][  4].a[ 28] =        64.690000000000;     BAS[ATNO][  4].d[ 28] =         0.188306011211;
  BAS[ATNO][  4].a[ 29] =        26.440000000000;     BAS[ATNO][  4].d[ 29] =         0.143502802346;
  BAS[ATNO][  4].a[ 30] =         7.628000000000;     BAS[ATNO][  4].d[ 30] =        -0.660281862992;
  BAS[ATNO][  4].a[ 31] =         2.996000000000;     BAS[ATNO][  4].d[ 31] =        -1.209835208453;
  BAS[ATNO][  4].a[ 32] =         0.650400000000;     BAS[ATNO][  4].d[ 32] =         1.845851743872;
  BAS[ATNO][  4].a[ 33] =         0.233700000000;     BAS[ATNO][  4].d[ 33] =        -0.886635605897;
  BAS[ATNO][  4].a[ 34] =         9.548000000000;     BAS[ATNO][  4].d[ 34] =         3.056862342111;

  // Basis function   6 L = p
  InitBFNGauss(BAS[ATNO][  5]);
  BAS[ATNO][  5].l  = 1;
  BAS[ATNO][  5].ng = 16;
  BAS[ATNO][  5].a[  0] =       453.700000000000;     BAS[ATNO][  5].d[  0] =         0.007732911720;
  BAS[ATNO][  5].a[  1] =       106.800000000000;     BAS[ATNO][  5].d[  1] =         0.058341600350;
  BAS[ATNO][  5].a[  2] =        33.730000000000;     BAS[ATNO][  5].d[  2] =         0.239339347383;
  BAS[ATNO][  5].a[  3] =        12.130000000000;     BAS[ATNO][  5].d[  3] =         0.551434245766;
  BAS[ATNO][  5].a[  4] =         4.594000000000;     BAS[ATNO][  5].d[  4] =         0.613353921313;
  BAS[ATNO][  5].a[  5] =         1.678000000000;     BAS[ATNO][  5].d[  5] =         0.166436065246;
  BAS[ATNO][  5].a[  6] =         0.590900000000;     BAS[ATNO][  5].d[  6] =        -0.006044724339;
  BAS[ATNO][  5].a[  7] =       453.700000000000;     BAS[ATNO][  5].d[  7] =         0.000239784886;
  BAS[ATNO][  5].a[  8] =       106.800000000000;     BAS[ATNO][  5].d[  8] =         0.001816636746;
  BAS[ATNO][  5].a[  9] =        33.730000000000;     BAS[ATNO][  5].d[  9] =         0.007773012425;
  BAS[ATNO][  5].a[ 10] =        12.130000000000;     BAS[ATNO][  5].d[ 10] =         0.018468309401;
  BAS[ATNO][  5].a[ 11] =         4.594000000000;     BAS[ATNO][  5].d[ 11] =         0.022629824572;
  BAS[ATNO][  5].a[ 12] =         1.678000000000;     BAS[ATNO][  5].d[ 12] =        -0.021257578303;
  BAS[ATNO][  5].a[ 13] =         0.590900000000;     BAS[ATNO][  5].d[ 13] =        -0.087239429705;
  BAS[ATNO][  5].a[ 14] =         0.185200000000;     BAS[ATNO][  5].d[ 14] =         0.033442512713;
  BAS[ATNO][  5].a[ 15] =         4.361000000000;     BAS[ATNO][  5].d[ 15] =        -0.431917750142;

  // Basis function   7 L = p
  InitBFNGauss(BAS[ATNO][  6]);
  BAS[ATNO][  6].l  = 1;
  BAS[ATNO][  6].ng = 16;
  BAS[ATNO][  6].a[  0] =       453.700000000000;     BAS[ATNO][  6].d[  0] =        -0.004367092206;
  BAS[ATNO][  6].a[  1] =       106.800000000000;     BAS[ATNO][  6].d[  1] =        -0.032947893033;
  BAS[ATNO][  6].a[  2] =        33.730000000000;     BAS[ATNO][  6].d[  2] =        -0.135164739549;
  BAS[ATNO][  6].a[  3] =        12.130000000000;     BAS[ATNO][  6].d[  3] =        -0.311417520866;
  BAS[ATNO][  6].a[  4] =         4.594000000000;     BAS[ATNO][  6].d[  4] =        -0.346386099622;
  BAS[ATNO][  6].a[  5] =         1.678000000000;     BAS[ATNO][  6].d[  5] =        -0.093993267955;
  BAS[ATNO][  6].a[  6] =         0.590900000000;     BAS[ATNO][  6].d[  6] =         0.003413703596;
  BAS[ATNO][  6].a[  7] =       453.700000000000;     BAS[ATNO][  6].d[  7] =        -0.001966284964;
  BAS[ATNO][  6].a[  8] =       106.800000000000;     BAS[ATNO][  6].d[  8] =        -0.014896791762;
  BAS[ATNO][  6].a[  9] =        33.730000000000;     BAS[ATNO][  6].d[  9] =        -0.063740286944;
  BAS[ATNO][  6].a[ 10] =        12.130000000000;     BAS[ATNO][  6].d[ 10] =        -0.151443903109;
  BAS[ATNO][  6].a[ 11] =         4.594000000000;     BAS[ATNO][  6].d[ 11] =        -0.185569176120;
  BAS[ATNO][  6].a[ 12] =         1.678000000000;     BAS[ATNO][  6].d[ 12] =         0.174316476885;
  BAS[ATNO][  6].a[ 13] =         0.590900000000;     BAS[ATNO][  6].d[ 13] =         0.715381113258;
  BAS[ATNO][  6].a[ 14] =         0.185200000000;     BAS[ATNO][  6].d[ 14] =        -0.224426312932;
  BAS[ATNO][  6].a[ 15] =         4.361000000000;     BAS[ATNO][  6].d[ 15] =         1.155695778233;

  // Basis function   8 L = p
  InitBFNGauss(BAS[ATNO][  7]);
  BAS[ATNO][  7].l  = 1;
  BAS[ATNO][  7].ng = 16;
  BAS[ATNO][  7].a[  0] =       453.700000000000;     BAS[ATNO][  7].d[  0] =        -0.008442244918;
  BAS[ATNO][  7].a[  1] =       106.800000000000;     BAS[ATNO][  7].d[  1] =        -0.063693224093;
  BAS[ATNO][  7].a[  2] =        33.730000000000;     BAS[ATNO][  7].d[  2] =        -0.261293735440;
  BAS[ATNO][  7].a[  3] =        12.130000000000;     BAS[ATNO][  7].d[  3] =        -0.602016824652;
  BAS[ATNO][  7].a[  4] =         4.594000000000;     BAS[ATNO][  7].d[  4] =        -0.669616337636;
  BAS[ATNO][  7].a[  5] =         1.678000000000;     BAS[ATNO][  7].d[  5] =        -0.181703099284;
  BAS[ATNO][  7].a[  6] =         0.590900000000;     BAS[ATNO][  7].d[  6] =         0.006599201592;
  BAS[ATNO][  7].a[  7] =       453.700000000000;     BAS[ATNO][  7].d[  7] =         0.001255031787;
  BAS[ATNO][  7].a[  8] =       106.800000000000;     BAS[ATNO][  7].d[  8] =         0.009508259246;
  BAS[ATNO][  7].a[  9] =        33.730000000000;     BAS[ATNO][  7].d[  9] =         0.040683872228;
  BAS[ATNO][  7].a[ 10] =        12.130000000000;     BAS[ATNO][  7].d[ 10] =         0.096662953670;
  BAS[ATNO][  7].a[ 11] =         4.594000000000;     BAS[ATNO][  7].d[ 11] =         0.118444284025;
  BAS[ATNO][  7].a[ 12] =         1.678000000000;     BAS[ATNO][  7].d[ 12] =        -0.111261960258;
  BAS[ATNO][  7].a[ 13] =         0.590900000000;     BAS[ATNO][  7].d[ 13] =        -0.456610335493;
  BAS[ATNO][  7].a[ 14] =         0.185200000000;     BAS[ATNO][  7].d[ 14] =        -0.399713165427;
  BAS[ATNO][  7].a[ 15] =         4.361000000000;     BAS[ATNO][  7].d[ 15] =         1.727383244836;

  // Basis function   9 L = p
  InitBFNGauss(BAS[ATNO][  8]);
  BAS[ATNO][  8].l  = 1;
  BAS[ATNO][  8].ng = 16;
  BAS[ATNO][  8].a[  0] =       453.700000000000;     BAS[ATNO][  8].d[  0] =        -0.007151926976;
  BAS[ATNO][  8].a[  1] =       106.800000000000;     BAS[ATNO][  8].d[  1] =        -0.053958312275;
  BAS[ATNO][  8].a[  2] =        33.730000000000;     BAS[ATNO][  8].d[  2] =        -0.221357439089;
  BAS[ATNO][  8].a[  3] =        12.130000000000;     BAS[ATNO][  8].d[  3] =        -0.510004200327;
  BAS[ATNO][  8].a[  4] =         4.594000000000;     BAS[ATNO][  8].d[  4] =        -0.567271761881;
  BAS[ATNO][  8].a[  5] =         1.678000000000;     BAS[ATNO][  8].d[  5] =        -0.153931485056;
  BAS[ATNO][  8].a[  6] =         0.590900000000;     BAS[ATNO][  8].d[  6] =         0.005590575534;
  BAS[ATNO][  8].a[  7] =       453.700000000000;     BAS[ATNO][  8].d[  7] =         0.002283753294;
  BAS[ATNO][  8].a[  8] =       106.800000000000;     BAS[ATNO][  8].d[  8] =         0.017301966852;
  BAS[ATNO][  8].a[  9] =        33.730000000000;     BAS[ATNO][  8].d[  9] =         0.074031533060;
  BAS[ATNO][  8].a[ 10] =        12.130000000000;     BAS[ATNO][  8].d[ 10] =         0.175895416497;
  BAS[ATNO][  8].a[ 11] =         4.594000000000;     BAS[ATNO][  8].d[ 11] =         0.215530416560;
  BAS[ATNO][  8].a[ 12] =         1.678000000000;     BAS[ATNO][  8].d[ 12] =        -0.202460902516;
  BAS[ATNO][  8].a[ 13] =         0.590900000000;     BAS[ATNO][  8].d[ 13] =        -0.830883622828;
  BAS[ATNO][  8].a[ 14] =         0.185200000000;     BAS[ATNO][  8].d[ 14] =         1.226009436001;
  BAS[ATNO][  8].a[ 15] =         4.361000000000;     BAS[ATNO][  8].d[ 15] =         1.249508986064;

  // Basis function  10 L = d
  InitBFNGauss(BAS[ATNO][  9]);
  BAS[ATNO][  9].l  = 2;
  BAS[ATNO][  9].ng = 2;
  BAS[ATNO][  9].a[  0] =         0.738000000000;     BAS[ATNO][  9].d[  0] =         0.894541989208;
  BAS[ATNO][  9].a[  1] =        11.459000000000;     BAS[ATNO][  9].d[  1] =         0.384997078720;

  // Basis function  11 L = d
  InitBFNGauss(BAS[ATNO][ 10]);
  BAS[ATNO][ 10].l  = 2;
  BAS[ATNO][ 10].ng = 2;
  BAS[ATNO][ 10].a[  0] =         0.738000000000;     BAS[ATNO][ 10].d[  0] =        -0.453246277630;
  BAS[ATNO][ 10].a[  1] =        11.459000000000;     BAS[ATNO][ 10].d[  1] =         0.925966958383;

-------
TIMINGS
-------

Total SCF time: 0 days 0 hours 0 min 1 sec 

Total time                  ....       1.626 sec
Sum of individual times     ....       1.443 sec  ( 88.7%)

Fock matrix formation       ....       0.988 sec  ( 60.7%)
  XC integration            ....       0.020 sec  (  2.0% of F)
    Basis function eval.    ....       0.004 sec  ( 20.4% of XC)
    Density eval.           ....       0.001 sec  (  4.6% of XC)
    XC-Functional eval.     ....       0.002 sec  (  8.1% of XC)
    XC-Potential eval.      ....       0.001 sec  (  2.6% of XC)
Diagonalization             ....       0.001 sec  (  0.0%)
Density matrix formation    ....       0.000 sec  (  0.0%)
Population analysis         ....       0.001 sec  (  0.0%)
Initial guess               ....       0.072 sec  (  4.4%)
Orbital Transformation      ....       0.000 sec  (  0.0%)
Orbital Orthonormalization  ....       0.000 sec  (  0.0%)
DIIS solution               ....       0.000 sec  (  0.0%)
SOSCF solution              ....       0.000 sec  (  0.0%)
Grid generation             ....       0.382 sec  ( 23.5%)

-------------------------   --------------------
FINAL SINGLE POINT ENERGY      -312.196449434148
-------------------------   --------------------


                            ***************************************
                            *     ORCA property calculations      *
                            ***************************************

                                    ---------------------
                                    Active property flags
                                    ---------------------
   (+) Dipole Moment


------------------------------------------------------------------------------
                       ORCA ELECTRIC PROPERTIES CALCULATION
------------------------------------------------------------------------------

Dipole Moment Calculation                       ... on
Quadrupole Moment Calculation                   ... off
Polarizability Calculation                      ... off
GBWName                                         ... Ar_cc-pcvdz_274.071978_.gbw
Electron density file                           ... Ar_cc-pcvdz_274.071978_.scfp
The origin for moment calculation is the CENTER OF MASS  = ( 0.000000,  0.000000  0.000000)

-------------
DIPOLE MOMENT
-------------
                                X             Y             Z
Electronic contribution:      0.00000      -0.00000      -0.00000
Nuclear contribution   :      0.00000       0.00000       0.00000
                        -----------------------------------------
Total Dipole Moment    :      0.00000      -0.00000      -0.00000
                        -----------------------------------------
Magnitude (a.u.)       :      0.00000
Magnitude (Debye)      :      0.00000



--------------------
Rotational spectrum 
--------------------
 
Rotational constants in cm-1:     0.000000     0.000000     0.000000 
Rotational constants in MHz :     0.000000     0.000000     0.000000 

 Dipole components along the rotational axes: 
x,y,z [a.u.] :     0.000000    -0.000000    -0.000000 
x,y,z [Debye]:     0.000000    -0.000000    -0.000000 

 

Timings for individual modules:

Sum of individual times         ...        2.789 sec (=   0.046 min)
GTO integral calculation        ...        0.525 sec (=   0.009 min)  18.8 %
Relativistic integrals          ...        0.369 sec (=   0.006 min)  13.2 %
SCF iterations                  ...        1.895 sec (=   0.032 min)  67.9 %
                             ****ORCA TERMINATED NORMALLY****
TOTAL RUN TIME: 0 days 0 hours 0 minutes 3 seconds 107 msec
