
                                 *****************
                                 * O   R   C   A *
                                 *****************

           --- An Ab Initio, DFT and Semiempirical electronic structure package ---

                  #######################################################
                  #                        -***-                        #
                  #          Department of theory and spectroscopy      #
                  #               Directorship: Frank Neese             #
                  #        Max Planck Institute fuer Kohlenforschung    #
                  #                Kaiser Wilhelm Platz 1               #
                  #                 D-45470 Muelheim/Ruhr               #
                  #                      Germany                        #
                  #                                                     #
                  #                  All rights reserved                #
                  #                        -***-                        #
                  #######################################################


                         Program Version 4.2.1 -  RELEASE  -


 With contributions from (in alphabetic order):
   Daniel Aravena         : Magnetic Suceptibility
   Michael Atanasov       : Ab Initio Ligand Field Theory (pilot matlab implementation)
   Alexander A. Auer      : GIAO ZORA, VPT2
   Ute Becker             : Parallelization
   Giovanni Bistoni       : ED, misc. LED, open-shell LED, HFLD
   Martin Brehm           : Molecular dynamics
   Dmytro Bykov           : SCF Hessian
   Vijay G. Chilkuri      : MRCI spin determinant printing, contributions to CSF-ICE
   Dipayan Datta          : RHF DLPNO-CCSD density
   Achintya Kumar Dutta   : EOM-CC, STEOM-CC
   Dmitry Ganyushin       : Spin-Orbit,Spin-Spin,Magnetic field MRCI
   Miquel Garcia          : C-PCM Hessian, Gaussian charge scheme
   Yang Guo               : DLPNO-NEVPT2, CIM, IAO-localization
   Andreas Hansen         : Spin unrestricted coupled pair/coupled cluster methods
   Benjamin Helmich-Paris : CASSCF linear response (MC-RPA)
   Lee Huntington         : MR-EOM, pCC
   Robert Izsak           : Overlap fitted RIJCOSX, COSX-SCS-MP3, EOM
   Christian Kollmar      : KDIIS, OOCD, Brueckner-CCSD(T), CCSD density
   Simone Kossmann        : Meta GGA functionals, TD-DFT gradient, OOMP2, MP2 Hessian
   Martin Krupicka        : AUTO-CI
   Lucas Lang             : DCDCAS
   Dagmar Lenk            : GEPOL surface, SMD
   Dimitrios Liakos       : Extrapolation schemes; Compound Job, initial MDCI parallelization
   Dimitrios Manganas     : Further ROCIS development; embedding schemes
   Dimitrios Pantazis     : SARC Basis sets
   Taras Petrenko         : DFT Hessian,TD-DFT gradient, ASA, ECA, R-Raman, ABS, FL, XAS/XES, NRVS
   Peter Pinski           : DLPNO-MP2, DLPNO-MP2 Gradient
   Christoph Reimann      : Effective Core Potentials
   Marius Retegan         : Local ZFS, SOC
   Christoph Riplinger    : Optimizer, TS searches, QM/MM, DLPNO-CCSD(T), (RO)-DLPNO pert. Triples
   Tobias Risthaus        : Range-separated hybrids, TD-DFT gradient, RPA, STAB
   Michael Roemelt        : Original ROCIS implementation
   Masaaki Saitow         : Open-shell DLPNO-CCSD energy and density
   Barbara Sandhoefer     : DKH picture change effects
   Avijit Sen             : IP-ROCIS
   Kantharuban Sivalingam : CASSCF convergence, NEVPT2, FIC-MRCI
   Bernardo de Souza      : ESD, SOC TD-DFT
   Georgi Stoychev        : AutoAux, RI-MP2 NMR
   Willem Van den Heuvel  : Paramagnetic NMR
   Boris Wezisla          : Elementary symmetry handling
   Frank Wennmohs         : Technical directorship


 We gratefully acknowledge several colleagues who have allowed us to
 interface, adapt or use parts of their codes:
   Stefan Grimme, W. Hujo, H. Kruse,             : VdW corrections, initial TS optimization,
                  C. Bannwarth                     DFT functionals, gCP, sTDA/sTD-DF
   Ed Valeev, F. Pavosevic, A. Kumar             : LibInt (2-el integral package), F12 methods
   Garnet Chan, S. Sharma, J. Yang, R. Olivares  : DMRG
   Ulf Ekstrom                                   : XCFun DFT Library
   Mihaly Kallay                                 : mrcc  (arbitrary order and MRCC methods)
   Andreas Klamt, Michael Diedenhofen            : otool_cosmo (COSMO solvation model)
   Jiri Pittner, Ondrej Demel                    : Mk-CCSD
   Frank Weinhold                                : gennbo (NPA and NBO analysis)
   Christopher J. Cramer and Donald G. Truhlar   : smd solvation model
   Lars Goerigk                                  : TD-DFT with DH, B97 family of functionals
   V. Asgeirsson, H. Jonsson                     : NEB implementation
   FAccTs GmbH                                   : IRC, NEB, NEB-TS, Multilevel, MM, QM/MM, CI optimization
   S Lehtola, MJT Oliveira, MAL Marques          : LibXC Library


 Your calculation uses the libint2 library for the computation of 2-el integrals
 For citations please refer to: http://libint.valeyev.net

 Your ORCA version has been built with support for libXC version: 4.2.3
 For citations please refer to: https://tddft.org/programs/libxc/

 This ORCA versions uses:
   CBLAS   interface :  Fast vector & matrix operations
   LAPACKE interface :  Fast linear algebra routines
   SCALAPACK package :  Parallel linear algebra routines


----- Orbital basis set information -----
Your calculation utilizes the basis: cc-pCVTZ 
             H : cc-pVTZ. Obtained from the ccRepo (grant-hill.group.shef.ac.uk/ccrepo) Feb. 2017
                 T. H. Dunning, Jr., J. Chem. Phys. 90, 1007 (1989)
            He : cc-pVTZ. Obtained from the ccRepo (grant-hill.group.shef.ac.uk/ccrepo) Feb. 2017
                 D. E. Woon, T. H. Dunning, Jr., J. Chem. Phys. 100, 2975 (1994)
  Li-Be, Na-Mg : Obtained from the ccRepo (grant-hill.group.shef.ac.uk/ccrepo) Feb. 2017
                 B. P. Prascher, D. E. Woon, K. A. Peterson, T. H. Dunning, Jr., A. K. Wilson, Theor. Chem. Acc. 128, 69 (2011)
          B-Ne : Obtained from the ccRepo (grant-hill.group.shef.ac.uk/ccrepo) Feb. 2017
                 D. E. Woon, T. H. Dunning, Jr., J. Chem. Phys. 103, 4572 (1995)
                  K. A. Peterson, T. H. Dunning, Jr., J. Chem. Phys. 117, 10548 (2002)
         Al-Ar : Obtained from the EMSL Basis Set Exchange (bse.pnl.gov) Feb. 2017
                 K. A. Peterson, T. H. Dunning, Jr., J. Chem. Phys. 117, 10548 (2002)
            Ca : Obtained from the Peterson Research Group Website (tyr0.chem.wsu.edu/~kipeters) Feb. 2017
                 J. Koput, K. A. Peterson, J. Phys. Chem. 106, 9595 (2002)
         Ga-Kr : Obtained from the Peterson Research Group Website (tyr0.chem.wsu.edu/~kipeters) Feb. 2017
                 N. J. DeYonker, K. A. Peterson, A. K. Wilson, J. Phys. Chem. A 111, 11383 (2007)

================================================================================
                                        WARNINGS
                       Please study these warnings very carefully!
================================================================================


INFO   : the flag for use of LIBINT has been found!

================================================================================
                                       INPUT FILE
================================================================================
NAME = Ar_cc-pcvtz_274.071978_.inp
|  1> ! LDA cc-pcvtz nori grid5 finalgrid6 verytightscf
|  2> %Pal NProcs 18 End
|  3> 
|  4> % REL
|  5>   Method ZORA
|  6>   ModelPot 1, 0, 0, 0
|  7>   velit 274.071978
|  8> END
|  9> 
| 10> *xyz 16 1
| 11> Ar 0.0 0.0 0.0
| 12> **                         ****END OF INPUT****
================================================================================

                       ****************************
                       * Single Point Calculation *
                       ****************************

---------------------------------
CARTESIAN COORDINATES (ANGSTROEM)
---------------------------------
  Ar     0.000000    0.000000    0.000000

----------------------------
CARTESIAN COORDINATES (A.U.)
----------------------------
  NO LB      ZA    FRAG     MASS         X           Y           Z
   0 Ar   18.0000    0    39.948    0.000000    0.000000    0.000000

--------------------------------
INTERNAL COORDINATES (ANGSTROEM)
--------------------------------
 Ar     0   0   0     0.000000000000     0.00000000     0.00000000

---------------------------
INTERNAL COORDINATES (A.U.)
---------------------------
 Ar     0   0   0     0.000000000000     0.00000000     0.00000000

---------------------
BASIS SET INFORMATION
---------------------
There are 1 groups of distinct atoms

 Group   1 Type Ar  : 43s18p4d2f contracted to 7s6p4d2f pattern {1313131111/771111/1111/11}

Atom   0Ar   basis set group =>   1


           ************************************************************
           *        Program running with 18 parallel MPI-processes    *
           *              working on a common directory               *
           ************************************************************
------------------------------------------------------------------------------
                           ORCA GTO INTEGRAL CALCULATION
------------------------------------------------------------------------------

                         BASIS SET STATISTICS AND STARTUP INFO

 # of primitive gaussian shells          ...   67
 # of primitive gaussian functions       ...  131
 # of contracted shells                  ...   19
 # of contracted basis functions         ...   59
 Highest angular momentum                ...    3
 Maximum contraction depth               ...   13
 Integral package used                   ... LIBINT
 Integral threshhold            Thresh   ...  1.000e-12
 Primitive cut-off              TCut     ...  1.000e-14


------------------------------ INTEGRAL EVALUATION ----------------------------


 * One electron integrals 
 Pre-screening matrix                    ... done
 Shell pair data                         ... done (   0.000 sec)



           ************************************************************
           *        Program running with 18 parallel MPI-processes    *
           *              working on a common directory               *
           ************************************************************
------------------------------------------------------------------------------
                          ORCA RELATIVISTIC HAMILTONIAN
------------------------------------------------------------------------------

Relativistic Method            ... ZORA(MP)
Treatment of potential         ... Van Wuellen
Nucleus model                  ... Point Nucleus
Speed of light used            ... 274.07197800000000


            *************************************************
            *         ZERO ORDER REGULAR APPROXIMATION      *
            *                     ZORA(MP)                  *
            *            Programmed by FN according to      *
            *                   C. van Wuellen              *
            *       J. Chem. Phys. (1998) vol 109, 392-399  *
            *************************************************

Terms included in model potential: +V(e,N)
Basis function cutoff value   ... 1.000000e-12
Loading the fitted atomic densities  (DKH4)  ... done
Calculating the cutoffs                      ... done
Number of fit functions                      ... 15
Setting up the integration grid ... done


           ************************************************************
           *        Program running with 18 parallel MPI-processes    *
           *              working on a common directory               *
           ************************************************************
-------------------------------------------------------------------------------
                                 ORCA SCF
-------------------------------------------------------------------------------

------------
SCF SETTINGS
------------
Hamiltonian:
 Density Functional     Method          .... DFT(GTOs)
 Exchange Functional    Exchange        .... Slater
   X-Alpha parameter    XAlpha          ....  0.666667
 Correlation Functional Correlation     .... VWN-5
 Gradients option       PostSCFGGA      .... off
   Density functional embedding theory  .... OFF

Relativistic Settings:
 Scalar relativistic method             .... ZORA
 Speed of light used       Velit        ....       274.071978
Orbital energies will be scaled


General Settings:
 Integral files         IntName         .... Ar_cc-pcvtz_274.071978_
 Hartree-Fock type      HFTyp           .... RHF
 Total Charge           Charge          ....   16
 Multiplicity           Mult            ....    1
 Number of Electrons    NEL             ....    2
 Basis Dimension        Dim             ....   59
 Nuclear Repulsion      ENuc            ....      0.0000000000 Eh

Convergence Acceleration:
 DIIS                   CNVDIIS         .... on
   Start iteration      DIISMaxIt       ....    12
   Startup error        DIISStart       ....  0.200000
   # of expansion vecs  DIISMaxEq       ....     5
   Bias factor          DIISBfac        ....   1.050
   Max. coefficient     DIISMaxC        ....  10.000
 Newton-Raphson         CNVNR           .... off
 SOSCF                  CNVSOSCF        .... on
   Start iteration      SOSCFMaxIt      ....   150
   Startup grad/error   SOSCFStart      ....  0.003300
 Level Shifting         CNVShift        .... on
   Level shift para.    LevelShift      ....    0.2500
   Turn off err/grad.   ShiftErr        ....    0.0010
 Zerner damping         CNVZerner       .... off
 Static damping         CNVDamp         .... on
   Fraction old density DampFac         ....    0.7000
   Max. Damping (<1)    DampMax         ....    0.9800
   Min. Damping (>=0)   DampMin         ....    0.0000
   Turn off err/grad.   DampErr         ....    0.1000
 Fernandez-Rico         CNVRico         .... off

SCF Procedure:
 Maximum # iterations   MaxIter         ....   125
 SCF integral mode      SCFMode         .... Direct
   Integral package                     .... LIBINT
 Reset frequency        DirectResetFreq ....    20
 Integral Threshold     Thresh          ....  1.000e-12 Eh
 Primitive CutOff       TCut            ....  1.000e-14 Eh

Convergence Tolerance:
 Convergence Check Mode ConvCheckMode   .... Total+1el-Energy
 Convergence forced     ConvForced      .... 0
 Energy Change          TolE            ....  1.000e-09 Eh
 1-El. energy change                    ....  1.000e-06 Eh
 Orbital Gradient       TolG            ....  2.000e-06
 Orbital Rotation angle TolX            ....  2.000e-06
 DIIS Error             TolErr          ....  1.000e-08


Diagonalization of the overlap matrix:
Smallest eigenvalue                        ... 2.200e-03
Time for diagonalization                   ...    0.002 sec
Threshold for overlap eigenvalues          ... 1.000e-08
Number of eigenvalues below threshold      ... 0
Time for construction of square roots      ...    0.001 sec
Total time needed                          ...    0.003 sec

-------------------
DFT GRID GENERATION
-------------------

General Integration Accuracy     IntAcc      ...  5.010
Radial Grid Type                 RadialGrid  ... Gauss-Chebyshev
Angular Grid (max. acc.)         AngularGrid ... Lebedev-434
Angular grid pruning method      GridPruning ... 3 (G Style)
Weight generation scheme         WeightScheme... Becke
Basis function cutoff            BFCut       ...    1.0000e-12
Integration weight cutoff        WCut        ...    1.0000e-14
Grids for H and He will be reduced by one unit

# of grid points (after initial pruning)     ...  11992 (   0.0 sec)
# of grid points (after weights+screening)   ...  11992 (   0.0 sec)
Grid point division into batches done        ...    0.1 sec
Reduced shell lists constructed in    0.1 sec

Total number of grid points                  ...    11992
Total number of batches                      ...      188
Average number of points per batch           ...       63
Average number of grid points per atom       ...    11992
Average number of shells per batch           ...     0.00 ( 0.00%)
Average number of basis functions per batch  ...     0.00 ( 0.00%)
Average number of large shells per batch     ...     0.00 ( -nan%)
Average number of large basis fcns per batch ...     0.00 ( -nan%)
Maximum spatial batch extension              ...  18.71, 18.71, 18.71 au
Average spatial batch extension              ...   0.97,  0.98,  0.97 au

Time for grid setup =    0.152 sec

------------------------------
INITIAL GUESS: MODEL POTENTIAL
------------------------------
Loading ZORA relativistic densities                ... done
Calculating cut-offs                               ... done
Setting up the integral package                    ... done
Initializing the effective Hamiltonian             ... done
Starting the Coulomb interaction                   ... done (   0.0 sec)
Reading the grid                                   ... done
Mapping shells                                     ... done
Starting the XC term evaluation                    ... done (   0.0 sec)
  promolecular density results
     # of electrons  =     18.000000116
     EX              =    -28.047870263
     EC              =     -1.433252902
     EX+EC           =    -29.481123164
Transforming the Hamiltonian                       ... done (   0.0 sec)
Diagonalizing the Hamiltonian                      ... done (   0.0 sec)
Back transforming the eigenvectors                 ... done (   0.0 sec)
Now organizing SCF variables                       ... done
                      ------------------
                      INITIAL GUESS DONE (   0.2 sec)
                      ------------------
--------------
SCF ITERATIONS
--------------
ITER       Energy         Delta-E        Max-DP      RMS-DP      [F,P]     Damp
               ***  Starting incremental Fock matrix formation  ***
  0   -312.1659546061   0.000000000000 0.01308230  0.00027621  2.0798318 0.7000
  1   -312.1764681847  -0.010513578677 0.00888055  0.00018935  1.4421011 0.7000
  2   -312.1837400677  -0.007271882939 0.00601911  0.00012968  0.9991252 0.7000
  3   -312.1887885191  -0.005048451449 0.00407681  0.00008888  0.6922561 0.7000
  4   -312.1923024339  -0.003513914768 0.00275924  0.00006096  0.4796595 0.7000
                      *** Initiating the SOSCF procedure ***
                      *** Re-Reading the Fockian *** 
                      *** Removing any level shift *** 
ITER      Energy       Delta-E        Grad      Rot      Max-DP    RMS-DP
  5   -312.19475262  -0.0024501824  0.002572  0.002572  0.006220  0.000139
               *** Restarting incremental Fock matrix formation ***
  6   -312.20043996  -0.0056873471  0.005927  0.000027  0.000503  0.000012
  7   -312.20044053  -0.0000005693  0.000164  0.000001  0.000013  0.000000
                 **** Energy Check signals convergence ****
              ***Rediagonalizing the Fockian in SOSCF/NRSCF***

               *****************************************************
               *                     SUCCESS                       *
               *           SCF CONVERGED AFTER   8 CYCLES          *
               *****************************************************

Setting up the final grid:

General Integration Accuracy     IntAcc      ...  5.340
Radial Grid Type                 RadialGrid  ... Gauss-Chebyshev
Angular Grid (max. acc.)         AngularGrid ... Lebedev-590
Angular grid pruning method      GridPruning ... 3 (G Style)
Weight generation scheme         WeightScheme... Becke
Basis function cutoff            BFCut       ...    1.0000e-12
Integration weight cutoff        WCut        ...    1.0000e-14
Grids for H and He will be reduced by one unit

# of grid points (after initial pruning)     ...  18110 (   0.0 sec)
# of grid points (after weights+screening)   ...  18110 (   0.0 sec)
Grid point division into batches done        ...    0.2 sec
Reduced shell lists constructed in    0.2 sec

Total number of grid points                  ...    18110
Total number of batches                      ...      283
Average number of points per batch           ...       63
Average number of grid points per atom       ...    18110
Average number of shells per batch           ...     0.00 ( 0.00%)
Average number of basis functions per batch  ...     0.00 ( 0.00%)
Average number of large shells per batch     ...     0.00 ( -nan%)
Average number of large basis fcns per batch ...     0.00 ( -nan%)
Maximum spatial batch extension              ...  19.03, 19.03, 19.03 au
Average spatial batch extension              ...   0.84,  0.84,  0.80 au

Final grid set up in    0.2 sec
Final integration                            ... done (   0.0 sec)
Change in XC energy                          ...     0.000000295
Integrated number of electrons               ...     1.999999988
Previous integrated no of electrons          ...     2.000000025

----------------
TOTAL SCF ENERGY
----------------

Total Energy       :         -312.20044024 Eh           -8495.40588 eV

Components:
Nuclear Repulsion  :            0.00000000 Eh               0.00000 eV
Electronic Energy  :         -312.20044024 Eh           -8495.40588 eV
One Electron Energy:         -324.55123690 Eh           -8831.48814 eV
Two Electron Energy:           12.35079666 Eh             336.08226 eV

Virial components:
Potential Energy   :         -624.53277278 Eh          -16994.40073 eV
Kinetic Energy     :          312.33233254 Eh            8498.99485 eV
Virial Ratio       :            1.99957772


DFT components:
N(Alpha)           :        0.999999993804 electrons
N(Beta)            :        0.999999993804 electrons
N(Total)           :        1.999999987609 electrons
E(X)               :       -9.459847256357 Eh       
E(C)               :       -0.237054595782 Eh       
E(XC)              :       -9.696901852138 Eh       
DFET-embed. en.    :        0.000000000000 Eh       

---------------
SCF CONVERGENCE
---------------

  Last Energy change         ...   -4.4469e-10  Tolerance :   1.0000e-09
  Last MAX-Density change    ...    2.0053e-10  Tolerance :   1.0000e-08
  Last RMS-Density change    ...    5.7086e-12  Tolerance :   1.0000e-09
  Last Orbital Gradient      ...    1.7029e-09  Tolerance :   2.0000e-06
  Last Orbital Rotation      ...    1.0889e-11  Tolerance :   2.0000e-06

================================================================================
                                        WARNING
Number of found core electrons (2) does not match given number of chemical core electrons (10)
================================================================================
             **** THE GBW FILE WAS UPDATED (Ar_cc-pcvtz_274.071978_.gbw) ****
             **** DENSITY FILE WAS UPDATED (Ar_cc-pcvtz_274.071978_.scfp) ****
             **** ENERGY FILE WAS UPDATED (Ar_cc-pcvtz_274.071978_.en.tmp) ****
             **** THE GBW FILE WAS UPDATED (Ar_cc-pcvtz_274.071978_.gbw) ****
             **** DENSITY FILE WAS UPDATED (Ar_cc-pcvtz_274.071978_.scfp) ****
----------------
ORBITAL ENERGIES
----------------

  NO   OCC          E(Eh)            E(eV) 
   0   2.0000    -146.662564     -3990.8913 
   1   0.0000     -34.160617      -929.5576 
   2   0.0000     -33.286314      -905.7667 
   3   0.0000     -33.286314      -905.7667 
   4   0.0000     -33.286314      -905.7667 
   5   0.0000     -14.730459      -400.8362 
   6   0.0000     -14.423475      -392.4827 
   7   0.0000     -14.423475      -392.4827 
   8   0.0000     -14.423475      -392.4827 
   9   0.0000     -13.746826      -374.0702 
  10   0.0000     -13.746826      -374.0702 
  11   0.0000     -13.746826      -374.0702 
  12   0.0000     -13.746826      -374.0702 
  13   0.0000     -13.746826      -374.0702 
  14   0.0000      -8.111019      -220.7120 
  15   0.0000      -7.889481      -214.6837 
  16   0.0000      -7.889481      -214.6837 
  17   0.0000      -7.889481      -214.6837 
  18   0.0000      -7.770526      -211.4468 
  19   0.0000      -7.770526      -211.4468 
  20   0.0000      -7.770526      -211.4468 
  21   0.0000      -7.770526      -211.4468 
  22   0.0000      -7.770526      -211.4468 
  23   0.0000      -7.025065      -191.1617 
  24   0.0000      -7.025065      -191.1617 
  25   0.0000      -7.025065      -191.1617 
  26   0.0000      -7.025065      -191.1617 
  27   0.0000      -7.025065      -191.1617 
  28   0.0000      -7.025065      -191.1617 
  29   0.0000      -7.025065      -191.1617 
  30   0.0000      -5.069280      -137.9421 
  31   0.0000      -5.069280      -137.9421 
  32   0.0000      -5.069280      -137.9421 
  33   0.0000      -5.069280      -137.9421 
  34   0.0000      -5.069280      -137.9421 
  35   0.0000      -5.027272      -136.7990 
  36   0.0000      -4.736680      -128.8916 
  37   0.0000      -4.736680      -128.8916 
  38   0.0000      -4.736680      -128.8916 
  39   0.0000      -2.967252       -80.7430 
  40   0.0000      -2.967252       -80.7430 
  41   0.0000      -2.967252       -80.7430 
  42   0.0000       1.177141        32.0316 
  43   0.0000      18.141229       493.6479 
  44   0.0000      18.141229       493.6479 
  45   0.0000      18.141229       493.6479 
  46   0.0000      18.141229       493.6479 
  47   0.0000      18.141229       493.6479 
  48   0.0000      18.141229       493.6479 
  49   0.0000      18.141229       493.6479 
  50   0.0000      26.691416       726.3103 
  51   0.0000      26.691416       726.3103 
  52   0.0000      26.691416       726.3103 
  53   0.0000      26.691416       726.3103 
  54   0.0000      26.691416       726.3103 
  55   0.0000      35.601234       968.7588 
  56   0.0000      35.601234       968.7588 
  57   0.0000      35.601234       968.7588 
  58   0.0000      91.377984      2486.5213 

                    ********************************
                    * MULLIKEN POPULATION ANALYSIS *
                    ********************************

-----------------------
MULLIKEN ATOMIC CHARGES
-----------------------
   0 Ar:   16.000000
Sum of atomic charges:   16.0000000

--------------------------------
MULLIKEN REDUCED ORBITAL CHARGES
--------------------------------
  0 Ars       :     2.000000  s :     2.000000
      pz      :     0.000000  p :     0.000000
      px      :     0.000000
      py      :     0.000000
      dz2     :     0.000000  d :     0.000000
      dxz     :     0.000000
      dyz     :     0.000000
      dx2y2   :     0.000000
      dxy     :     0.000000
      f0      :     0.000000  f :     0.000000
      f+1     :     0.000000
      f-1     :     0.000000
      f+2     :     0.000000
      f-2     :     0.000000
      f+3     :     0.000000
      f-3     :     0.000000


                     *******************************
                     * LOEWDIN POPULATION ANALYSIS *
                     *******************************

----------------------
LOEWDIN ATOMIC CHARGES
----------------------
   0 Ar:   16.000000

-------------------------------
LOEWDIN REDUCED ORBITAL CHARGES
-------------------------------
  0 Ars       :     2.000000  s :     2.000000
      pz      :     0.000000  p :     0.000000
      px      :     0.000000
      py      :     0.000000
      dz2     :     0.000000  d :     0.000000
      dxz     :     0.000000
      dyz     :     0.000000
      dx2y2   :     0.000000
      dxy     :     0.000000
      f0      :     0.000000  f :     0.000000
      f+1     :     0.000000
      f-1     :     0.000000
      f+2     :     0.000000
      f-2     :     0.000000
      f+3     :     0.000000
      f-3     :     0.000000


                      *****************************
                      * MAYER POPULATION ANALYSIS *
                      *****************************

  NA   - Mulliken gross atomic population
  ZA   - Total nuclear charge
  QA   - Mulliken gross atomic charge
  VA   - Mayer's total valence
  BVA  - Mayer's bonded valence
  FA   - Mayer's free valence

  ATOM       NA         ZA         QA         VA         BVA        FA
  0 Ar     2.0000    18.0000    16.0000    -0.0000     0.0000    -0.0000

  Mayer bond orders larger than 0.100000


--------------------------
ATOM BASIS FOR ELEMENT Ar
--------------------------
 NewGTO Ar
 S 43
    1     545000.000000000000         0.000046172283
    2      81640.000000000000         0.000358687375
    3      18580.000000000000         0.001881997532
    4       5261.000000000000         0.007868973477
    5       1717.000000000000         0.027777840726
    6        619.900000000000         0.083448996441
    7        241.600000000000         0.203832335001
    8         99.790000000000         0.361394942673
    9         43.150000000000         0.354083598470
   10         19.140000000000         0.119795432745
   11          7.488000000000         0.005674344568
   12          3.205000000000         0.000489725342
   13          0.520400000000         0.000029580151
   14     545000.000000000000        -0.000000080252
   15      81640.000000000000        -0.000000622112
   16      18580.000000000000        -0.000003280560
   17       5261.000000000000        -0.000013714619
   18       1717.000000000000        -0.000049361442
   19        619.900000000000        -0.000152265380
   20        241.600000000000        -0.000407480227
   21         99.790000000000        -0.000854496934
   22         43.150000000000        -0.001249019275
   23         19.140000000000        -0.000255734575
   24          7.488000000000         0.003002403721
   25          3.205000000000         0.003588066957
   26          0.520400000000        -0.000045069073
   27     545000.000000000000        -0.000000011229
   28      81640.000000000000        -0.000000086973
   29      18580.000000000000        -0.000000459266
   30       5261.000000000000        -0.000001917684
   31       1717.000000000000        -0.000006925613
   32        619.900000000000        -0.000021378598
   33        241.600000000000        -0.000057867504
   34         99.790000000000        -0.000123092587
   35         43.150000000000        -0.000188597147
   36         19.140000000000        -0.000039190335
   37          7.488000000000         0.000575278634
   38          3.205000000000         0.001178468772
   39          0.520400000000        -0.002034035242
   40          1.196000000000         0.003637964157
   41          0.195400000000         0.000537780514
   42         17.362000000000        -0.013759448389
   43          3.378000000000        -0.011510579934
 S 43
    1     545000.000000000000        -0.000004241376
    2      81640.000000000000        -0.000032948948
    3      18580.000000000000        -0.000172879906
    4       5261.000000000000        -0.000722842283
    5       1717.000000000000        -0.002551666727
    6        619.900000000000        -0.007665607623
    7        241.600000000000        -0.018723996304
    8         99.790000000000        -0.033197664987
    9         43.150000000000        -0.032526046414
   10         19.140000000000        -0.011004383774
   11          7.488000000000        -0.000521244123
   12          3.205000000000        -0.000044986069
   13          0.520400000000        -0.000002717227
   14     545000.000000000000         0.000019685718
   15      81640.000000000000         0.000152603781
   16      18580.000000000000         0.000804719481
   17       5261.000000000000         0.003364187941
   18       1717.000000000000         0.012108332309
   19        619.900000000000         0.037350606538
   20        241.600000000000         0.099954655880
   21         99.790000000000         0.209607586848
   22         43.150000000000         0.306383681085
   23         19.140000000000         0.062731538262
   24          7.488000000000        -0.736487836871
   25          3.205000000000        -0.880150678434
   26          0.520400000000         0.011055416670
   27     545000.000000000000        -0.000000296601
   28      81640.000000000000        -0.000002297370
   29      18580.000000000000        -0.000012131372
   30       5261.000000000000        -0.000050655066
   31       1717.000000000000        -0.000182938037
   32        619.900000000000        -0.000564709411
   33        241.600000000000        -0.001528553161
   34         99.790000000000        -0.003251454641
   35         43.150000000000        -0.004981738384
   36         19.140000000000        -0.001035201229
   37          7.488000000000         0.015195816608
   38          3.205000000000         0.031128907413
   39          0.520400000000        -0.053728445126
   40          1.196000000000         0.085388438563
   41          0.195400000000         0.010668979886
   42         17.362000000000        -0.121043234184
   43          3.378000000000         0.435287030849
 S 43
    1     545000.000000000000        -0.000012816103
    2      81640.000000000000        -0.000099561342
    3      18580.000000000000        -0.000522388611
    4       5261.000000000000        -0.002184201655
    5       1717.000000000000        -0.007710332974
    6        619.900000000000        -0.023163051271
    7        241.600000000000        -0.056578018044
    8         99.790000000000        -0.100312885035
    9         43.150000000000        -0.098283465296
   10         19.140000000000        -0.033251780957
   11          7.488000000000        -0.001575035528
   12          3.205000000000        -0.000135933728
   13          0.520400000000        -0.000008210603
   14     545000.000000000000         0.000020794823
   15      81640.000000000000         0.000161201574
   16      18580.000000000000         0.000850057883
   17       5261.000000000000         0.003553728406
   18       1717.000000000000         0.012790523367
   19        619.900000000000         0.039454963202
   20        241.600000000000         0.105586164060
   21         99.790000000000         0.221417010127
   22         43.150000000000         0.323645530381
   23         19.140000000000         0.066265872583
   24          7.488000000000        -0.777982024824
   25          3.205000000000        -0.929738921240
   26          0.520400000000         0.011678285799
   27     545000.000000000000        -0.000001657313
   28      81640.000000000000        -0.000012836963
   29      18580.000000000000        -0.000067786183
   30       5261.000000000000        -0.000283044122
   31       1717.000000000000        -0.001022198577
   32        619.900000000000        -0.003155413530
   33        241.600000000000        -0.008541060643
   34         99.790000000000        -0.018168076835
   35         43.150000000000        -0.027836342723
   36         19.140000000000        -0.005784369625
   37          7.488000000000         0.084909308039
   38          3.205000000000         0.173938265814
   39          0.520400000000        -0.300217172616
   40          1.196000000000         1.606248341628
   41          0.195400000000         0.074912420798
   42         17.362000000000        -0.204588694809
   43          3.378000000000         0.456146640224
 S 43
    1     545000.000000000000        -0.000015083247
    2      81640.000000000000        -0.000117173546
    3      18580.000000000000        -0.000614798122
    4       5261.000000000000        -0.002570582601
    5       1717.000000000000        -0.009074275606
    6        619.900000000000        -0.027260549164
    7        241.600000000000        -0.066586557376
    8         99.790000000000        -0.118058035716
    9         43.150000000000        -0.115669615644
   10         19.140000000000        -0.039133955149
   11          7.488000000000        -0.001853656193
   12          3.205000000000        -0.000159980135
   13          0.520400000000        -0.000009663042
   14     545000.000000000000         0.000032017604
   15      81640.000000000000         0.000248200628
   16      18580.000000000000         0.001308826552
   17       5261.000000000000         0.005471643977
   18       1717.000000000000         0.019693454916
   19        619.900000000000         0.060748455454
   20        241.600000000000         0.162570076446
   21         99.790000000000         0.340913798539
   22         43.150000000000         0.498314140722
   23         19.140000000000         0.102028973849
   24          7.488000000000        -1.197851994867
   25          3.205000000000        -1.431510736723
   26          0.520400000000         0.017980952637
   27     545000.000000000000        -0.000014010304
   28      81640.000000000000        -0.000108518885
   29      18580.000000000000        -0.000573039051
   30       5261.000000000000        -0.002392749213
   31       1717.000000000000        -0.008641284701
   32        619.900000000000        -0.026674686574
   33        241.600000000000        -0.072202934265
   34         99.790000000000        -0.153586130834
   35         43.150000000000        -0.235318036919
   36         19.140000000000        -0.048898898772
   37          7.488000000000         0.717791553404
   38          3.205000000000         1.470409085862
   39          0.520400000000        -2.537923764386
   40          1.196000000000         2.435670211982
   41          0.195400000000         0.130912951426
   42         17.362000000000        -0.210612114466
   43          3.378000000000        -0.093169058761
 S 43
    1     545000.000000000000        -0.000014007425
    2      81640.000000000000        -0.000108816073
    3      18580.000000000000        -0.000570947279
    4       5261.000000000000        -0.002387234263
    5       1717.000000000000        -0.008427047482
    6        619.900000000000        -0.025316174222
    7        241.600000000000        -0.061837231424
    8         99.790000000000        -0.109637475846
    9         43.150000000000        -0.107419411261
   10         19.140000000000        -0.036342702438
   11          7.488000000000        -0.001721443059
   12          3.205000000000        -0.000148569457
   13          0.520400000000        -0.000008973820
   14     545000.000000000000         0.000035411937
   15      81640.000000000000         0.000274513514
   16      18580.000000000000         0.001447581255
   17       5261.000000000000         0.006051718040
   18       1717.000000000000         0.021781248357
   19        619.900000000000         0.067188677723
   20        241.600000000000         0.179804875566
   21         99.790000000000         0.377055633269
   22         43.150000000000         0.551142707341
   23         19.140000000000         0.112845533126
   24          7.488000000000        -1.324841776492
   25          3.205000000000        -1.583271752800
   26          0.520400000000         0.019887195861
   27     545000.000000000000        -0.000020199172
   28      81640.000000000000        -0.000156455680
   29      18580.000000000000        -0.000826171539
   30       5261.000000000000        -0.003449714806
   31       1717.000000000000        -0.012458458919
   32        619.900000000000        -0.038457879628
   33        241.600000000000        -0.104097633803
   34         99.790000000000        -0.221430790419
   35         43.150000000000        -0.339266694406
   36         19.140000000000        -0.070499346178
   37          7.488000000000         1.034866560951
   38          3.205000000000         2.119943020590
   39          0.520400000000        -3.659018311865
   40          1.196000000000         1.869934346958
   41          0.195400000000         2.426454972292
   42         17.362000000000        -0.177883670550
   43          3.378000000000        -0.414057880520
 S 43
    1     545000.000000000000        -0.000055268739
    2      81640.000000000000        -0.000429352797
    3      18580.000000000000        -0.002252772079
    4       5261.000000000000        -0.009419249193
    5       1717.000000000000        -0.033250385784
    6        619.900000000000        -0.099889381336
    7        241.600000000000        -0.243989582954
    8         99.790000000000        -0.432593785200
    9         43.150000000000        -0.423842024480
   10         19.140000000000        -0.143396471787
   11          7.488000000000        -0.006792253862
   12          3.205000000000        -0.000586206707
   13          0.520400000000        -0.000035407771
   14     545000.000000000000         0.000037471202
   15      81640.000000000000         0.000290476945
   16      18580.000000000000         0.001531760584
   17       5261.000000000000         0.006403635808
   18       1717.000000000000         0.023047865251
   19        619.900000000000         0.071095814396
   20        241.600000000000         0.190260837004
   21         99.790000000000         0.398982064068
   22         43.150000000000         0.583192599628
   23         19.140000000000         0.119407694130
   24          7.488000000000        -1.401883594643
   25          3.205000000000        -1.675341716645
   26          0.520400000000         0.021043670358
   27     545000.000000000000         0.000020485980
   28      81640.000000000000         0.000158677193
   29      18580.000000000000         0.000837902338
   30       5261.000000000000         0.003498697264
   31       1717.000000000000         0.012635356424
   32        619.900000000000         0.039003942588
   33        241.600000000000         0.105575714826
   34         99.790000000000         0.224574883491
   35         43.150000000000         0.344083938030
   36         19.140000000000         0.071500365527
   37          7.488000000000        -1.049560618530
   38          3.205000000000        -2.150044065484
   39          0.520400000000         3.710972667903
   40          1.196000000000        -5.336839440329
   41          0.195400000000        -1.136943821384
   42         17.362000000000        -0.881254879843
   43          3.378000000000         9.072441324872
 S 43
    1     545000.000000000000         0.000278571588
    2      81640.000000000000         0.002164071268
    3      18580.000000000000         0.011354670028
    4       5261.000000000000         0.047475937533
    5       1717.000000000000         0.167592257738
    6        619.900000000000         0.503473464971
    7        241.600000000000         1.229783177186
    8         99.790000000000         2.180406856531
    9         43.150000000000         2.136295267936
   10         19.140000000000         0.722762695588
   11          7.488000000000         0.034235066244
   12          3.205000000000         0.002954663629
   13          0.520400000000         0.000178466149
   14     545000.000000000000        -0.000157942420
   15      81640.000000000000        -0.001224370429
   16      18580.000000000000        -0.006456424151
   17       5261.000000000000        -0.026991547716
   18       1717.000000000000        -0.097147553883
   19        619.900000000000        -0.299671331150
   20        241.600000000000        -0.801956047273
   21         99.790000000000        -1.681723280900
   22         43.150000000000        -2.458177097098
   23         19.140000000000        -0.503307585034
   24          7.488000000000         5.908988123898
   25          3.205000000000         7.061623621929
   26          0.520400000000        -0.088699802684
   27     545000.000000000000        -0.000008053670
   28      81640.000000000000        -0.000062380896
   29      18580.000000000000        -0.000329405239
   30       5261.000000000000        -0.001375445749
   31       1717.000000000000        -0.004967348123
   32        619.900000000000        -0.015333652214
   33        241.600000000000        -0.041505068101
   34         99.790000000000        -0.088287309714
   35         43.150000000000        -0.135270003182
   36         19.140000000000        -0.028108997844
   37          7.488000000000         0.412614634153
   38          3.205000000000         0.845248601967
   39          0.520400000000        -1.458897754627
   40          1.196000000000         2.722678289466
   41          0.195400000000         0.409692809813
   42         17.362000000000        -3.240873519057
   43          3.378000000000       -13.121198696348
 P 18
    1        761.800000000000         0.003405070225
    2        180.200000000000         0.027329389967
    3         57.500000000000         0.126561748424
    4         21.240000000000         0.368384008934
    5          8.388000000000         0.630376815952
    6          3.416000000000         0.499416334543
    7          0.452300000000        -0.007527576630
    8        761.800000000000        -0.000042735328
    9        180.200000000000        -0.000341208941
   10         57.500000000000        -0.001636456828
   11         21.240000000000        -0.004849899413
   12          8.388000000000        -0.009039666743
   13          3.416000000000        -0.005974443871
   14          0.452300000000         0.036025313427
   15          1.206000000000        -0.068234763911
   16          0.154500000000        -0.008224188729
   17         11.019000000000        -0.026414240059
   18          4.307000000000        -0.393318038820
 P 18
    1        761.800000000000         0.002271776072
    2        180.200000000000         0.018233472467
    3         57.500000000000         0.084438772986
    4         21.240000000000         0.245776422097
    5          8.388000000000         0.420571345771
    6          3.416000000000         0.333197850244
    7          0.452300000000        -0.005022207279
    8        761.800000000000        -0.000230316345
    9        180.200000000000        -0.001838900022
   10         57.500000000000        -0.008819465538
   11         21.240000000000        -0.026137885224
   12          8.388000000000        -0.048718076739
   13          3.416000000000        -0.032198467406
   14          0.452300000000         0.194153615823
   15          1.206000000000        -0.889228926264
   16          0.154500000000        -0.053624148929
   17         11.019000000000         0.141071983843
   18          4.307000000000        -0.870425461311
 P 18
    1        761.800000000000         0.002918155346
    2        180.200000000000         0.023421368773
    3         57.500000000000         0.108463796153
    4         21.240000000000         0.315706195185
    5          8.388000000000         0.540234812780
    6          3.416000000000         0.428001289329
    7          0.452300000000        -0.006451155640
    8        761.800000000000        -0.001502518967
    9        180.200000000000        -0.011996465837
   10         57.500000000000        -0.057535709251
   11         21.240000000000        -0.170516201704
   12          8.388000000000        -0.317823011647
   13          3.416000000000        -0.210053732953
   14          0.452300000000         1.266603508046
   15          1.206000000000        -0.292095213460
   16          0.154500000000        -0.161128449003
   17         11.019000000000         0.202188149534
   18          4.307000000000        -1.005612099206
 P 18
    1        761.800000000000         0.001595301826
    2        180.200000000000         0.012804031292
    3         57.500000000000         0.059295161330
    4         21.240000000000         0.172590767062
    5          8.388000000000         0.295336430368
    6          3.416000000000         0.233980428498
    7          0.452300000000        -0.003526728070
    8        761.800000000000        -0.000443132925
    9        180.200000000000        -0.003538077799
   10         57.500000000000        -0.016968815509
   11         21.240000000000        -0.050289776656
   12          8.388000000000        -0.093734484536
   13          3.416000000000        -0.061950449343
   14          0.452300000000         0.373555163055
   15          1.206000000000         0.616016440465
   16          0.154500000000        -1.148419702373
   17         11.019000000000         0.199531866659
   18          4.307000000000        -1.097841565800
 P 18
    1        761.800000000000        -0.000783810400
    2        180.200000000000        -0.006290930482
    3         57.500000000000        -0.029133147939
    4         21.240000000000        -0.084798021236
    5          8.388000000000        -0.145105936549
    6          3.416000000000        -0.114960247772
    7          0.452300000000         0.001732766861
    8        761.800000000000         0.002584914000
    9        180.200000000000         0.020638563087
   10         57.500000000000         0.098983682469
   11         21.240000000000         0.293353845548
   12          8.388000000000         0.546778556752
   13          3.416000000000         0.361373697735
   14          0.452300000000        -2.179048126557
   15          1.206000000000         2.193270419141
   16          0.154500000000         1.149794474304
   17         11.019000000000         0.286199718305
   18          4.307000000000        -2.011722273586
 P 18
    1        761.800000000000        -0.015078297586
    2        180.200000000000        -0.121019728691
    3         57.500000000000        -0.560439456408
    4         21.240000000000        -1.631274348586
    5          8.388000000000        -2.791428251141
    6          3.416000000000        -2.211510369744
    7          0.452300000000         0.033333538823
    8        761.800000000000         0.000681761985
    9        180.200000000000         0.005443348497
   10         57.500000000000         0.026106598456
   11         21.240000000000         0.077371046016
   12          8.388000000000         0.144210923146
   13          3.416000000000         0.095311043031
   14          0.452300000000        -0.574716286933
   15          1.206000000000         1.052777501928
   16          0.154500000000         0.169529045919
   17         11.019000000000         4.711682712293
   18          4.307000000000         1.161698812390
 D 4
    1          0.410000000000        -0.116928990115
    2          1.254000000000         0.578140677825
    3         20.706000000000         0.068197285927
    4          6.681000000000         0.655314015478
 D 4
    1          0.410000000000        -0.455403432264
    2          1.254000000000        -0.586952025418
    3         20.706000000000         0.077135978772
    4          6.681000000000         0.586196347341
 D 4
    1          0.410000000000         1.167175731180
    2          1.254000000000        -1.031865762432
    3         20.706000000000         0.070181397581
    4          6.681000000000         0.456103534191
 D 4
    1          0.410000000000        -0.134582929143
    2          1.254000000000         0.308838450137
    3         20.706000000000         1.250846052072
    4          6.681000000000        -0.913825043981
 F 2
    1          0.890000000000         0.998791449267
    2         13.674000000000         0.024755770734
 F 2
    1          0.890000000000        -0.061208021887
    2         13.674000000000         1.000358902038
 end
  // -----------------------------------------------
  // The basis set
  // -----------------------------------------------
  BAS[ATNO] = new BFNGauss[NSH];
  // Basis function   1 L = s
  InitBFNGauss(BAS[ATNO][  0]);
  BAS[ATNO][  0].l  = 0;
  BAS[ATNO][  0].ng = 43;
  BAS[ATNO][  0].a[  0] =    545000.000000000000;     BAS[ATNO][  0].d[  0] =         0.000046172283;
  BAS[ATNO][  0].a[  1] =     81640.000000000000;     BAS[ATNO][  0].d[  1] =         0.000358687375;
  BAS[ATNO][  0].a[  2] =     18580.000000000000;     BAS[ATNO][  0].d[  2] =         0.001881997532;
  BAS[ATNO][  0].a[  3] =      5261.000000000000;     BAS[ATNO][  0].d[  3] =         0.007868973477;
  BAS[ATNO][  0].a[  4] =      1717.000000000000;     BAS[ATNO][  0].d[  4] =         0.027777840726;
  BAS[ATNO][  0].a[  5] =       619.900000000000;     BAS[ATNO][  0].d[  5] =         0.083448996441;
  BAS[ATNO][  0].a[  6] =       241.600000000000;     BAS[ATNO][  0].d[  6] =         0.203832335001;
  BAS[ATNO][  0].a[  7] =        99.790000000000;     BAS[ATNO][  0].d[  7] =         0.361394942673;
  BAS[ATNO][  0].a[  8] =        43.150000000000;     BAS[ATNO][  0].d[  8] =         0.354083598470;
  BAS[ATNO][  0].a[  9] =        19.140000000000;     BAS[ATNO][  0].d[  9] =         0.119795432745;
  BAS[ATNO][  0].a[ 10] =         7.488000000000;     BAS[ATNO][  0].d[ 10] =         0.005674344568;
  BAS[ATNO][  0].a[ 11] =         3.205000000000;     BAS[ATNO][  0].d[ 11] =         0.000489725342;
  BAS[ATNO][  0].a[ 12] =         0.520400000000;     BAS[ATNO][  0].d[ 12] =         0.000029580151;
  BAS[ATNO][  0].a[ 13] =    545000.000000000000;     BAS[ATNO][  0].d[ 13] =        -0.000000080252;
  BAS[ATNO][  0].a[ 14] =     81640.000000000000;     BAS[ATNO][  0].d[ 14] =        -0.000000622112;
  BAS[ATNO][  0].a[ 15] =     18580.000000000000;     BAS[ATNO][  0].d[ 15] =        -0.000003280560;
  BAS[ATNO][  0].a[ 16] =      5261.000000000000;     BAS[ATNO][  0].d[ 16] =        -0.000013714619;
  BAS[ATNO][  0].a[ 17] =      1717.000000000000;     BAS[ATNO][  0].d[ 17] =        -0.000049361442;
  BAS[ATNO][  0].a[ 18] =       619.900000000000;     BAS[ATNO][  0].d[ 18] =        -0.000152265380;
  BAS[ATNO][  0].a[ 19] =       241.600000000000;     BAS[ATNO][  0].d[ 19] =        -0.000407480227;
  BAS[ATNO][  0].a[ 20] =        99.790000000000;     BAS[ATNO][  0].d[ 20] =        -0.000854496934;
  BAS[ATNO][  0].a[ 21] =        43.150000000000;     BAS[ATNO][  0].d[ 21] =        -0.001249019275;
  BAS[ATNO][  0].a[ 22] =        19.140000000000;     BAS[ATNO][  0].d[ 22] =        -0.000255734575;
  BAS[ATNO][  0].a[ 23] =         7.488000000000;     BAS[ATNO][  0].d[ 23] =         0.003002403721;
  BAS[ATNO][  0].a[ 24] =         3.205000000000;     BAS[ATNO][  0].d[ 24] =         0.003588066957;
  BAS[ATNO][  0].a[ 25] =         0.520400000000;     BAS[ATNO][  0].d[ 25] =        -0.000045069073;
  BAS[ATNO][  0].a[ 26] =    545000.000000000000;     BAS[ATNO][  0].d[ 26] =        -0.000000011229;
  BAS[ATNO][  0].a[ 27] =     81640.000000000000;     BAS[ATNO][  0].d[ 27] =        -0.000000086973;
  BAS[ATNO][  0].a[ 28] =     18580.000000000000;     BAS[ATNO][  0].d[ 28] =        -0.000000459266;
  BAS[ATNO][  0].a[ 29] =      5261.000000000000;     BAS[ATNO][  0].d[ 29] =        -0.000001917684;
  BAS[ATNO][  0].a[ 30] =      1717.000000000000;     BAS[ATNO][  0].d[ 30] =        -0.000006925613;
  BAS[ATNO][  0].a[ 31] =       619.900000000000;     BAS[ATNO][  0].d[ 31] =        -0.000021378598;
  BAS[ATNO][  0].a[ 32] =       241.600000000000;     BAS[ATNO][  0].d[ 32] =        -0.000057867504;
  BAS[ATNO][  0].a[ 33] =        99.790000000000;     BAS[ATNO][  0].d[ 33] =        -0.000123092587;
  BAS[ATNO][  0].a[ 34] =        43.150000000000;     BAS[ATNO][  0].d[ 34] =        -0.000188597147;
  BAS[ATNO][  0].a[ 35] =        19.140000000000;     BAS[ATNO][  0].d[ 35] =        -0.000039190335;
  BAS[ATNO][  0].a[ 36] =         7.488000000000;     BAS[ATNO][  0].d[ 36] =         0.000575278634;
  BAS[ATNO][  0].a[ 37] =         3.205000000000;     BAS[ATNO][  0].d[ 37] =         0.001178468772;
  BAS[ATNO][  0].a[ 38] =         0.520400000000;     BAS[ATNO][  0].d[ 38] =        -0.002034035242;
  BAS[ATNO][  0].a[ 39] =         1.196000000000;     BAS[ATNO][  0].d[ 39] =         0.003637964157;
  BAS[ATNO][  0].a[ 40] =         0.195400000000;     BAS[ATNO][  0].d[ 40] =         0.000537780514;
  BAS[ATNO][  0].a[ 41] =        17.362000000000;     BAS[ATNO][  0].d[ 41] =        -0.013759448389;
  BAS[ATNO][  0].a[ 42] =         3.378000000000;     BAS[ATNO][  0].d[ 42] =        -0.011510579934;

  // Basis function   2 L = s
  InitBFNGauss(BAS[ATNO][  1]);
  BAS[ATNO][  1].l  = 0;
  BAS[ATNO][  1].ng = 43;
  BAS[ATNO][  1].a[  0] =    545000.000000000000;     BAS[ATNO][  1].d[  0] =         0.000004241376;
  BAS[ATNO][  1].a[  1] =     81640.000000000000;     BAS[ATNO][  1].d[  1] =         0.000032948948;
  BAS[ATNO][  1].a[  2] =     18580.000000000000;     BAS[ATNO][  1].d[  2] =         0.000172879906;
  BAS[ATNO][  1].a[  3] =      5261.000000000000;     BAS[ATNO][  1].d[  3] =         0.000722842283;
  BAS[ATNO][  1].a[  4] =      1717.000000000000;     BAS[ATNO][  1].d[  4] =         0.002551666727;
  BAS[ATNO][  1].a[  5] =       619.900000000000;     BAS[ATNO][  1].d[  5] =         0.007665607623;
  BAS[ATNO][  1].a[  6] =       241.600000000000;     BAS[ATNO][  1].d[  6] =         0.018723996304;
  BAS[ATNO][  1].a[  7] =        99.790000000000;     BAS[ATNO][  1].d[  7] =         0.033197664987;
  BAS[ATNO][  1].a[  8] =        43.150000000000;     BAS[ATNO][  1].d[  8] =         0.032526046414;
  BAS[ATNO][  1].a[  9] =        19.140000000000;     BAS[ATNO][  1].d[  9] =         0.011004383774;
  BAS[ATNO][  1].a[ 10] =         7.488000000000;     BAS[ATNO][  1].d[ 10] =         0.000521244123;
  BAS[ATNO][  1].a[ 11] =         3.205000000000;     BAS[ATNO][  1].d[ 11] =         0.000044986069;
  BAS[ATNO][  1].a[ 12] =         0.520400000000;     BAS[ATNO][  1].d[ 12] =         0.000002717227;
  BAS[ATNO][  1].a[ 13] =    545000.000000000000;     BAS[ATNO][  1].d[ 13] =        -0.000019685718;
  BAS[ATNO][  1].a[ 14] =     81640.000000000000;     BAS[ATNO][  1].d[ 14] =        -0.000152603781;
  BAS[ATNO][  1].a[ 15] =     18580.000000000000;     BAS[ATNO][  1].d[ 15] =        -0.000804719481;
  BAS[ATNO][  1].a[ 16] =      5261.000000000000;     BAS[ATNO][  1].d[ 16] =        -0.003364187941;
  BAS[ATNO][  1].a[ 17] =      1717.000000000000;     BAS[ATNO][  1].d[ 17] =        -0.012108332309;
  BAS[ATNO][  1].a[ 18] =       619.900000000000;     BAS[ATNO][  1].d[ 18] =        -0.037350606538;
  BAS[ATNO][  1].a[ 19] =       241.600000000000;     BAS[ATNO][  1].d[ 19] =        -0.099954655880;
  BAS[ATNO][  1].a[ 20] =        99.790000000000;     BAS[ATNO][  1].d[ 20] =        -0.209607586848;
  BAS[ATNO][  1].a[ 21] =        43.150000000000;     BAS[ATNO][  1].d[ 21] =        -0.306383681085;
  BAS[ATNO][  1].a[ 22] =        19.140000000000;     BAS[ATNO][  1].d[ 22] =        -0.062731538262;
  BAS[ATNO][  1].a[ 23] =         7.488000000000;     BAS[ATNO][  1].d[ 23] =         0.736487836871;
  BAS[ATNO][  1].a[ 24] =         3.205000000000;     BAS[ATNO][  1].d[ 24] =         0.880150678434;
  BAS[ATNO][  1].a[ 25] =         0.520400000000;     BAS[ATNO][  1].d[ 25] =        -0.011055416670;
  BAS[ATNO][  1].a[ 26] =    545000.000000000000;     BAS[ATNO][  1].d[ 26] =         0.000000296601;
  BAS[ATNO][  1].a[ 27] =     81640.000000000000;     BAS[ATNO][  1].d[ 27] =         0.000002297370;
  BAS[ATNO][  1].a[ 28] =     18580.000000000000;     BAS[ATNO][  1].d[ 28] =         0.000012131372;
  BAS[ATNO][  1].a[ 29] =      5261.000000000000;     BAS[ATNO][  1].d[ 29] =         0.000050655066;
  BAS[ATNO][  1].a[ 30] =      1717.000000000000;     BAS[ATNO][  1].d[ 30] =         0.000182938037;
  BAS[ATNO][  1].a[ 31] =       619.900000000000;     BAS[ATNO][  1].d[ 31] =         0.000564709411;
  BAS[ATNO][  1].a[ 32] =       241.600000000000;     BAS[ATNO][  1].d[ 32] =         0.001528553161;
  BAS[ATNO][  1].a[ 33] =        99.790000000000;     BAS[ATNO][  1].d[ 33] =         0.003251454641;
  BAS[ATNO][  1].a[ 34] =        43.150000000000;     BAS[ATNO][  1].d[ 34] =         0.004981738384;
  BAS[ATNO][  1].a[ 35] =        19.140000000000;     BAS[ATNO][  1].d[ 35] =         0.001035201229;
  BAS[ATNO][  1].a[ 36] =         7.488000000000;     BAS[ATNO][  1].d[ 36] =        -0.015195816608;
  BAS[ATNO][  1].a[ 37] =         3.205000000000;     BAS[ATNO][  1].d[ 37] =        -0.031128907413;
  BAS[ATNO][  1].a[ 38] =         0.520400000000;     BAS[ATNO][  1].d[ 38] =         0.053728445126;
  BAS[ATNO][  1].a[ 39] =         1.196000000000;     BAS[ATNO][  1].d[ 39] =        -0.085388438563;
  BAS[ATNO][  1].a[ 40] =         0.195400000000;     BAS[ATNO][  1].d[ 40] =        -0.010668979886;
  BAS[ATNO][  1].a[ 41] =        17.362000000000;     BAS[ATNO][  1].d[ 41] =         0.121043234184;
  BAS[ATNO][  1].a[ 42] =         3.378000000000;     BAS[ATNO][  1].d[ 42] =        -0.435287030849;

  // Basis function   3 L = s
  InitBFNGauss(BAS[ATNO][  2]);
  BAS[ATNO][  2].l  = 0;
  BAS[ATNO][  2].ng = 43;
  BAS[ATNO][  2].a[  0] =    545000.000000000000;     BAS[ATNO][  2].d[  0] =        -0.000012816103;
  BAS[ATNO][  2].a[  1] =     81640.000000000000;     BAS[ATNO][  2].d[  1] =        -0.000099561342;
  BAS[ATNO][  2].a[  2] =     18580.000000000000;     BAS[ATNO][  2].d[  2] =        -0.000522388611;
  BAS[ATNO][  2].a[  3] =      5261.000000000000;     BAS[ATNO][  2].d[  3] =        -0.002184201655;
  BAS[ATNO][  2].a[  4] =      1717.000000000000;     BAS[ATNO][  2].d[  4] =        -0.007710332974;
  BAS[ATNO][  2].a[  5] =       619.900000000000;     BAS[ATNO][  2].d[  5] =        -0.023163051271;
  BAS[ATNO][  2].a[  6] =       241.600000000000;     BAS[ATNO][  2].d[  6] =        -0.056578018044;
  BAS[ATNO][  2].a[  7] =        99.790000000000;     BAS[ATNO][  2].d[  7] =        -0.100312885035;
  BAS[ATNO][  2].a[  8] =        43.150000000000;     BAS[ATNO][  2].d[  8] =        -0.098283465296;
  BAS[ATNO][  2].a[  9] =        19.140000000000;     BAS[ATNO][  2].d[  9] =        -0.033251780957;
  BAS[ATNO][  2].a[ 10] =         7.488000000000;     BAS[ATNO][  2].d[ 10] =        -0.001575035528;
  BAS[ATNO][  2].a[ 11] =         3.205000000000;     BAS[ATNO][  2].d[ 11] =        -0.000135933728;
  BAS[ATNO][  2].a[ 12] =         0.520400000000;     BAS[ATNO][  2].d[ 12] =        -0.000008210603;
  BAS[ATNO][  2].a[ 13] =    545000.000000000000;     BAS[ATNO][  2].d[ 13] =         0.000020794823;
  BAS[ATNO][  2].a[ 14] =     81640.000000000000;     BAS[ATNO][  2].d[ 14] =         0.000161201574;
  BAS[ATNO][  2].a[ 15] =     18580.000000000000;     BAS[ATNO][  2].d[ 15] =         0.000850057883;
  BAS[ATNO][  2].a[ 16] =      5261.000000000000;     BAS[ATNO][  2].d[ 16] =         0.003553728406;
  BAS[ATNO][  2].a[ 17] =      1717.000000000000;     BAS[ATNO][  2].d[ 17] =         0.012790523367;
  BAS[ATNO][  2].a[ 18] =       619.900000000000;     BAS[ATNO][  2].d[ 18] =         0.039454963202;
  BAS[ATNO][  2].a[ 19] =       241.600000000000;     BAS[ATNO][  2].d[ 19] =         0.105586164060;
  BAS[ATNO][  2].a[ 20] =        99.790000000000;     BAS[ATNO][  2].d[ 20] =         0.221417010127;
  BAS[ATNO][  2].a[ 21] =        43.150000000000;     BAS[ATNO][  2].d[ 21] =         0.323645530381;
  BAS[ATNO][  2].a[ 22] =        19.140000000000;     BAS[ATNO][  2].d[ 22] =         0.066265872583;
  BAS[ATNO][  2].a[ 23] =         7.488000000000;     BAS[ATNO][  2].d[ 23] =        -0.777982024824;
  BAS[ATNO][  2].a[ 24] =         3.205000000000;     BAS[ATNO][  2].d[ 24] =        -0.929738921240;
  BAS[ATNO][  2].a[ 25] =         0.520400000000;     BAS[ATNO][  2].d[ 25] =         0.011678285799;
  BAS[ATNO][  2].a[ 26] =    545000.000000000000;     BAS[ATNO][  2].d[ 26] =        -0.000001657313;
  BAS[ATNO][  2].a[ 27] =     81640.000000000000;     BAS[ATNO][  2].d[ 27] =        -0.000012836963;
  BAS[ATNO][  2].a[ 28] =     18580.000000000000;     BAS[ATNO][  2].d[ 28] =        -0.000067786183;
  BAS[ATNO][  2].a[ 29] =      5261.000000000000;     BAS[ATNO][  2].d[ 29] =        -0.000283044122;
  BAS[ATNO][  2].a[ 30] =      1717.000000000000;     BAS[ATNO][  2].d[ 30] =        -0.001022198577;
  BAS[ATNO][  2].a[ 31] =       619.900000000000;     BAS[ATNO][  2].d[ 31] =        -0.003155413530;
  BAS[ATNO][  2].a[ 32] =       241.600000000000;     BAS[ATNO][  2].d[ 32] =        -0.008541060643;
  BAS[ATNO][  2].a[ 33] =        99.790000000000;     BAS[ATNO][  2].d[ 33] =        -0.018168076835;
  BAS[ATNO][  2].a[ 34] =        43.150000000000;     BAS[ATNO][  2].d[ 34] =        -0.027836342723;
  BAS[ATNO][  2].a[ 35] =        19.140000000000;     BAS[ATNO][  2].d[ 35] =        -0.005784369625;
  BAS[ATNO][  2].a[ 36] =         7.488000000000;     BAS[ATNO][  2].d[ 36] =         0.084909308039;
  BAS[ATNO][  2].a[ 37] =         3.205000000000;     BAS[ATNO][  2].d[ 37] =         0.173938265814;
  BAS[ATNO][  2].a[ 38] =         0.520400000000;     BAS[ATNO][  2].d[ 38] =        -0.300217172616;
  BAS[ATNO][  2].a[ 39] =         1.196000000000;     BAS[ATNO][  2].d[ 39] =         1.606248341628;
  BAS[ATNO][  2].a[ 40] =         0.195400000000;     BAS[ATNO][  2].d[ 40] =         0.074912420798;
  BAS[ATNO][  2].a[ 41] =        17.362000000000;     BAS[ATNO][  2].d[ 41] =        -0.204588694809;
  BAS[ATNO][  2].a[ 42] =         3.378000000000;     BAS[ATNO][  2].d[ 42] =         0.456146640224;

  // Basis function   4 L = s
  InitBFNGauss(BAS[ATNO][  3]);
  BAS[ATNO][  3].l  = 0;
  BAS[ATNO][  3].ng = 43;
  BAS[ATNO][  3].a[  0] =    545000.000000000000;     BAS[ATNO][  3].d[  0] =         0.000015083247;
  BAS[ATNO][  3].a[  1] =     81640.000000000000;     BAS[ATNO][  3].d[  1] =         0.000117173546;
  BAS[ATNO][  3].a[  2] =     18580.000000000000;     BAS[ATNO][  3].d[  2] =         0.000614798122;
  BAS[ATNO][  3].a[  3] =      5261.000000000000;     BAS[ATNO][  3].d[  3] =         0.002570582601;
  BAS[ATNO][  3].a[  4] =      1717.000000000000;     BAS[ATNO][  3].d[  4] =         0.009074275606;
  BAS[ATNO][  3].a[  5] =       619.900000000000;     BAS[ATNO][  3].d[  5] =         0.027260549164;
  BAS[ATNO][  3].a[  6] =       241.600000000000;     BAS[ATNO][  3].d[  6] =         0.066586557376;
  BAS[ATNO][  3].a[  7] =        99.790000000000;     BAS[ATNO][  3].d[  7] =         0.118058035716;
  BAS[ATNO][  3].a[  8] =        43.150000000000;     BAS[ATNO][  3].d[  8] =         0.115669615644;
  BAS[ATNO][  3].a[  9] =        19.140000000000;     BAS[ATNO][  3].d[  9] =         0.039133955149;
  BAS[ATNO][  3].a[ 10] =         7.488000000000;     BAS[ATNO][  3].d[ 10] =         0.001853656193;
  BAS[ATNO][  3].a[ 11] =         3.205000000000;     BAS[ATNO][  3].d[ 11] =         0.000159980135;
  BAS[ATNO][  3].a[ 12] =         0.520400000000;     BAS[ATNO][  3].d[ 12] =         0.000009663042;
  BAS[ATNO][  3].a[ 13] =    545000.000000000000;     BAS[ATNO][  3].d[ 13] =        -0.000032017604;
  BAS[ATNO][  3].a[ 14] =     81640.000000000000;     BAS[ATNO][  3].d[ 14] =        -0.000248200628;
  BAS[ATNO][  3].a[ 15] =     18580.000000000000;     BAS[ATNO][  3].d[ 15] =        -0.001308826552;
  BAS[ATNO][  3].a[ 16] =      5261.000000000000;     BAS[ATNO][  3].d[ 16] =        -0.005471643977;
  BAS[ATNO][  3].a[ 17] =      1717.000000000000;     BAS[ATNO][  3].d[ 17] =        -0.019693454916;
  BAS[ATNO][  3].a[ 18] =       619.900000000000;     BAS[ATNO][  3].d[ 18] =        -0.060748455454;
  BAS[ATNO][  3].a[ 19] =       241.600000000000;     BAS[ATNO][  3].d[ 19] =        -0.162570076446;
  BAS[ATNO][  3].a[ 20] =        99.790000000000;     BAS[ATNO][  3].d[ 20] =        -0.340913798539;
  BAS[ATNO][  3].a[ 21] =        43.150000000000;     BAS[ATNO][  3].d[ 21] =        -0.498314140722;
  BAS[ATNO][  3].a[ 22] =        19.140000000000;     BAS[ATNO][  3].d[ 22] =        -0.102028973849;
  BAS[ATNO][  3].a[ 23] =         7.488000000000;     BAS[ATNO][  3].d[ 23] =         1.197851994867;
  BAS[ATNO][  3].a[ 24] =         3.205000000000;     BAS[ATNO][  3].d[ 24] =         1.431510736723;
  BAS[ATNO][  3].a[ 25] =         0.520400000000;     BAS[ATNO][  3].d[ 25] =        -0.017980952637;
  BAS[ATNO][  3].a[ 26] =    545000.000000000000;     BAS[ATNO][  3].d[ 26] =         0.000014010304;
  BAS[ATNO][  3].a[ 27] =     81640.000000000000;     BAS[ATNO][  3].d[ 27] =         0.000108518885;
  BAS[ATNO][  3].a[ 28] =     18580.000000000000;     BAS[ATNO][  3].d[ 28] =         0.000573039051;
  BAS[ATNO][  3].a[ 29] =      5261.000000000000;     BAS[ATNO][  3].d[ 29] =         0.002392749213;
  BAS[ATNO][  3].a[ 30] =      1717.000000000000;     BAS[ATNO][  3].d[ 30] =         0.008641284701;
  BAS[ATNO][  3].a[ 31] =       619.900000000000;     BAS[ATNO][  3].d[ 31] =         0.026674686574;
  BAS[ATNO][  3].a[ 32] =       241.600000000000;     BAS[ATNO][  3].d[ 32] =         0.072202934265;
  BAS[ATNO][  3].a[ 33] =        99.790000000000;     BAS[ATNO][  3].d[ 33] =         0.153586130834;
  BAS[ATNO][  3].a[ 34] =        43.150000000000;     BAS[ATNO][  3].d[ 34] =         0.235318036919;
  BAS[ATNO][  3].a[ 35] =        19.140000000000;     BAS[ATNO][  3].d[ 35] =         0.048898898772;
  BAS[ATNO][  3].a[ 36] =         7.488000000000;     BAS[ATNO][  3].d[ 36] =        -0.717791553404;
  BAS[ATNO][  3].a[ 37] =         3.205000000000;     BAS[ATNO][  3].d[ 37] =        -1.470409085862;
  BAS[ATNO][  3].a[ 38] =         0.520400000000;     BAS[ATNO][  3].d[ 38] =         2.537923764386;
  BAS[ATNO][  3].a[ 39] =         1.196000000000;     BAS[ATNO][  3].d[ 39] =        -2.435670211982;
  BAS[ATNO][  3].a[ 40] =         0.195400000000;     BAS[ATNO][  3].d[ 40] =        -0.130912951426;
  BAS[ATNO][  3].a[ 41] =        17.362000000000;     BAS[ATNO][  3].d[ 41] =         0.210612114466;
  BAS[ATNO][  3].a[ 42] =         3.378000000000;     BAS[ATNO][  3].d[ 42] =         0.093169058761;

  // Basis function   5 L = s
  InitBFNGauss(BAS[ATNO][  4]);
  BAS[ATNO][  4].l  = 0;
  BAS[ATNO][  4].ng = 43;
  BAS[ATNO][  4].a[  0] =    545000.000000000000;     BAS[ATNO][  4].d[  0] =         0.000014007425;
  BAS[ATNO][  4].a[  1] =     81640.000000000000;     BAS[ATNO][  4].d[  1] =         0.000108816073;
  BAS[ATNO][  4].a[  2] =     18580.000000000000;     BAS[ATNO][  4].d[  2] =         0.000570947279;
  BAS[ATNO][  4].a[  3] =      5261.000000000000;     BAS[ATNO][  4].d[  3] =         0.002387234263;
  BAS[ATNO][  4].a[  4] =      1717.000000000000;     BAS[ATNO][  4].d[  4] =         0.008427047482;
  BAS[ATNO][  4].a[  5] =       619.900000000000;     BAS[ATNO][  4].d[  5] =         0.025316174222;
  BAS[ATNO][  4].a[  6] =       241.600000000000;     BAS[ATNO][  4].d[  6] =         0.061837231424;
  BAS[ATNO][  4].a[  7] =        99.790000000000;     BAS[ATNO][  4].d[  7] =         0.109637475846;
  BAS[ATNO][  4].a[  8] =        43.150000000000;     BAS[ATNO][  4].d[  8] =         0.107419411261;
  BAS[ATNO][  4].a[  9] =        19.140000000000;     BAS[ATNO][  4].d[  9] =         0.036342702438;
  BAS[ATNO][  4].a[ 10] =         7.488000000000;     BAS[ATNO][  4].d[ 10] =         0.001721443059;
  BAS[ATNO][  4].a[ 11] =         3.205000000000;     BAS[ATNO][  4].d[ 11] =         0.000148569457;
  BAS[ATNO][  4].a[ 12] =         0.520400000000;     BAS[ATNO][  4].d[ 12] =         0.000008973820;
  BAS[ATNO][  4].a[ 13] =    545000.000000000000;     BAS[ATNO][  4].d[ 13] =        -0.000035411937;
  BAS[ATNO][  4].a[ 14] =     81640.000000000000;     BAS[ATNO][  4].d[ 14] =        -0.000274513514;
  BAS[ATNO][  4].a[ 15] =     18580.000000000000;     BAS[ATNO][  4].d[ 15] =        -0.001447581255;
  BAS[ATNO][  4].a[ 16] =      5261.000000000000;     BAS[ATNO][  4].d[ 16] =        -0.006051718040;
  BAS[ATNO][  4].a[ 17] =      1717.000000000000;     BAS[ATNO][  4].d[ 17] =        -0.021781248357;
  BAS[ATNO][  4].a[ 18] =       619.900000000000;     BAS[ATNO][  4].d[ 18] =        -0.067188677723;
  BAS[ATNO][  4].a[ 19] =       241.600000000000;     BAS[ATNO][  4].d[ 19] =        -0.179804875566;
  BAS[ATNO][  4].a[ 20] =        99.790000000000;     BAS[ATNO][  4].d[ 20] =        -0.377055633269;
  BAS[ATNO][  4].a[ 21] =        43.150000000000;     BAS[ATNO][  4].d[ 21] =        -0.551142707341;
  BAS[ATNO][  4].a[ 22] =        19.140000000000;     BAS[ATNO][  4].d[ 22] =        -0.112845533126;
  BAS[ATNO][  4].a[ 23] =         7.488000000000;     BAS[ATNO][  4].d[ 23] =         1.324841776492;
  BAS[ATNO][  4].a[ 24] =         3.205000000000;     BAS[ATNO][  4].d[ 24] =         1.583271752800;
  BAS[ATNO][  4].a[ 25] =         0.520400000000;     BAS[ATNO][  4].d[ 25] =        -0.019887195861;
  BAS[ATNO][  4].a[ 26] =    545000.000000000000;     BAS[ATNO][  4].d[ 26] =         0.000020199172;
  BAS[ATNO][  4].a[ 27] =     81640.000000000000;     BAS[ATNO][  4].d[ 27] =         0.000156455680;
  BAS[ATNO][  4].a[ 28] =     18580.000000000000;     BAS[ATNO][  4].d[ 28] =         0.000826171539;
  BAS[ATNO][  4].a[ 29] =      5261.000000000000;     BAS[ATNO][  4].d[ 29] =         0.003449714806;
  BAS[ATNO][  4].a[ 30] =      1717.000000000000;     BAS[ATNO][  4].d[ 30] =         0.012458458919;
  BAS[ATNO][  4].a[ 31] =       619.900000000000;     BAS[ATNO][  4].d[ 31] =         0.038457879628;
  BAS[ATNO][  4].a[ 32] =       241.600000000000;     BAS[ATNO][  4].d[ 32] =         0.104097633803;
  BAS[ATNO][  4].a[ 33] =        99.790000000000;     BAS[ATNO][  4].d[ 33] =         0.221430790419;
  BAS[ATNO][  4].a[ 34] =        43.150000000000;     BAS[ATNO][  4].d[ 34] =         0.339266694406;
  BAS[ATNO][  4].a[ 35] =        19.140000000000;     BAS[ATNO][  4].d[ 35] =         0.070499346178;
  BAS[ATNO][  4].a[ 36] =         7.488000000000;     BAS[ATNO][  4].d[ 36] =        -1.034866560951;
  BAS[ATNO][  4].a[ 37] =         3.205000000000;     BAS[ATNO][  4].d[ 37] =        -2.119943020590;
  BAS[ATNO][  4].a[ 38] =         0.520400000000;     BAS[ATNO][  4].d[ 38] =         3.659018311865;
  BAS[ATNO][  4].a[ 39] =         1.196000000000;     BAS[ATNO][  4].d[ 39] =        -1.869934346958;
  BAS[ATNO][  4].a[ 40] =         0.195400000000;     BAS[ATNO][  4].d[ 40] =        -2.426454972292;
  BAS[ATNO][  4].a[ 41] =        17.362000000000;     BAS[ATNO][  4].d[ 41] =         0.177883670550;
  BAS[ATNO][  4].a[ 42] =         3.378000000000;     BAS[ATNO][  4].d[ 42] =         0.414057880520;

  // Basis function   6 L = s
  InitBFNGauss(BAS[ATNO][  5]);
  BAS[ATNO][  5].l  = 0;
  BAS[ATNO][  5].ng = 43;
  BAS[ATNO][  5].a[  0] =    545000.000000000000;     BAS[ATNO][  5].d[  0] =        -0.000055268739;
  BAS[ATNO][  5].a[  1] =     81640.000000000000;     BAS[ATNO][  5].d[  1] =        -0.000429352797;
  BAS[ATNO][  5].a[  2] =     18580.000000000000;     BAS[ATNO][  5].d[  2] =        -0.002252772079;
  BAS[ATNO][  5].a[  3] =      5261.000000000000;     BAS[ATNO][  5].d[  3] =        -0.009419249193;
  BAS[ATNO][  5].a[  4] =      1717.000000000000;     BAS[ATNO][  5].d[  4] =        -0.033250385784;
  BAS[ATNO][  5].a[  5] =       619.900000000000;     BAS[ATNO][  5].d[  5] =        -0.099889381336;
  BAS[ATNO][  5].a[  6] =       241.600000000000;     BAS[ATNO][  5].d[  6] =        -0.243989582954;
  BAS[ATNO][  5].a[  7] =        99.790000000000;     BAS[ATNO][  5].d[  7] =        -0.432593785200;
  BAS[ATNO][  5].a[  8] =        43.150000000000;     BAS[ATNO][  5].d[  8] =        -0.423842024480;
  BAS[ATNO][  5].a[  9] =        19.140000000000;     BAS[ATNO][  5].d[  9] =        -0.143396471787;
  BAS[ATNO][  5].a[ 10] =         7.488000000000;     BAS[ATNO][  5].d[ 10] =        -0.006792253862;
  BAS[ATNO][  5].a[ 11] =         3.205000000000;     BAS[ATNO][  5].d[ 11] =        -0.000586206707;
  BAS[ATNO][  5].a[ 12] =         0.520400000000;     BAS[ATNO][  5].d[ 12] =        -0.000035407771;
  BAS[ATNO][  5].a[ 13] =    545000.000000000000;     BAS[ATNO][  5].d[ 13] =         0.000037471202;
  BAS[ATNO][  5].a[ 14] =     81640.000000000000;     BAS[ATNO][  5].d[ 14] =         0.000290476945;
  BAS[ATNO][  5].a[ 15] =     18580.000000000000;     BAS[ATNO][  5].d[ 15] =         0.001531760584;
  BAS[ATNO][  5].a[ 16] =      5261.000000000000;     BAS[ATNO][  5].d[ 16] =         0.006403635808;
  BAS[ATNO][  5].a[ 17] =      1717.000000000000;     BAS[ATNO][  5].d[ 17] =         0.023047865251;
  BAS[ATNO][  5].a[ 18] =       619.900000000000;     BAS[ATNO][  5].d[ 18] =         0.071095814396;
  BAS[ATNO][  5].a[ 19] =       241.600000000000;     BAS[ATNO][  5].d[ 19] =         0.190260837004;
  BAS[ATNO][  5].a[ 20] =        99.790000000000;     BAS[ATNO][  5].d[ 20] =         0.398982064068;
  BAS[ATNO][  5].a[ 21] =        43.150000000000;     BAS[ATNO][  5].d[ 21] =         0.583192599628;
  BAS[ATNO][  5].a[ 22] =        19.140000000000;     BAS[ATNO][  5].d[ 22] =         0.119407694130;
  BAS[ATNO][  5].a[ 23] =         7.488000000000;     BAS[ATNO][  5].d[ 23] =        -1.401883594643;
  BAS[ATNO][  5].a[ 24] =         3.205000000000;     BAS[ATNO][  5].d[ 24] =        -1.675341716645;
  BAS[ATNO][  5].a[ 25] =         0.520400000000;     BAS[ATNO][  5].d[ 25] =         0.021043670358;
  BAS[ATNO][  5].a[ 26] =    545000.000000000000;     BAS[ATNO][  5].d[ 26] =         0.000020485980;
  BAS[ATNO][  5].a[ 27] =     81640.000000000000;     BAS[ATNO][  5].d[ 27] =         0.000158677193;
  BAS[ATNO][  5].a[ 28] =     18580.000000000000;     BAS[ATNO][  5].d[ 28] =         0.000837902338;
  BAS[ATNO][  5].a[ 29] =      5261.000000000000;     BAS[ATNO][  5].d[ 29] =         0.003498697264;
  BAS[ATNO][  5].a[ 30] =      1717.000000000000;     BAS[ATNO][  5].d[ 30] =         0.012635356424;
  BAS[ATNO][  5].a[ 31] =       619.900000000000;     BAS[ATNO][  5].d[ 31] =         0.039003942588;
  BAS[ATNO][  5].a[ 32] =       241.600000000000;     BAS[ATNO][  5].d[ 32] =         0.105575714826;
  BAS[ATNO][  5].a[ 33] =        99.790000000000;     BAS[ATNO][  5].d[ 33] =         0.224574883491;
  BAS[ATNO][  5].a[ 34] =        43.150000000000;     BAS[ATNO][  5].d[ 34] =         0.344083938030;
  BAS[ATNO][  5].a[ 35] =        19.140000000000;     BAS[ATNO][  5].d[ 35] =         0.071500365527;
  BAS[ATNO][  5].a[ 36] =         7.488000000000;     BAS[ATNO][  5].d[ 36] =        -1.049560618530;
  BAS[ATNO][  5].a[ 37] =         3.205000000000;     BAS[ATNO][  5].d[ 37] =        -2.150044065484;
  BAS[ATNO][  5].a[ 38] =         0.520400000000;     BAS[ATNO][  5].d[ 38] =         3.710972667903;
  BAS[ATNO][  5].a[ 39] =         1.196000000000;     BAS[ATNO][  5].d[ 39] =        -5.336839440329;
  BAS[ATNO][  5].a[ 40] =         0.195400000000;     BAS[ATNO][  5].d[ 40] =        -1.136943821384;
  BAS[ATNO][  5].a[ 41] =        17.362000000000;     BAS[ATNO][  5].d[ 41] =        -0.881254879843;
  BAS[ATNO][  5].a[ 42] =         3.378000000000;     BAS[ATNO][  5].d[ 42] =         9.072441324872;

  // Basis function   7 L = s
  InitBFNGauss(BAS[ATNO][  6]);
  BAS[ATNO][  6].l  = 0;
  BAS[ATNO][  6].ng = 43;
  BAS[ATNO][  6].a[  0] =    545000.000000000000;     BAS[ATNO][  6].d[  0] =        -0.000278571588;
  BAS[ATNO][  6].a[  1] =     81640.000000000000;     BAS[ATNO][  6].d[  1] =        -0.002164071268;
  BAS[ATNO][  6].a[  2] =     18580.000000000000;     BAS[ATNO][  6].d[  2] =        -0.011354670028;
  BAS[ATNO][  6].a[  3] =      5261.000000000000;     BAS[ATNO][  6].d[  3] =        -0.047475937533;
  BAS[ATNO][  6].a[  4] =      1717.000000000000;     BAS[ATNO][  6].d[  4] =        -0.167592257738;
  BAS[ATNO][  6].a[  5] =       619.900000000000;     BAS[ATNO][  6].d[  5] =        -0.503473464971;
  BAS[ATNO][  6].a[  6] =       241.600000000000;     BAS[ATNO][  6].d[  6] =        -1.229783177186;
  BAS[ATNO][  6].a[  7] =        99.790000000000;     BAS[ATNO][  6].d[  7] =        -2.180406856531;
  BAS[ATNO][  6].a[  8] =        43.150000000000;     BAS[ATNO][  6].d[  8] =        -2.136295267936;
  BAS[ATNO][  6].a[  9] =        19.140000000000;     BAS[ATNO][  6].d[  9] =        -0.722762695588;
  BAS[ATNO][  6].a[ 10] =         7.488000000000;     BAS[ATNO][  6].d[ 10] =        -0.034235066244;
  BAS[ATNO][  6].a[ 11] =         3.205000000000;     BAS[ATNO][  6].d[ 11] =        -0.002954663629;
  BAS[ATNO][  6].a[ 12] =         0.520400000000;     BAS[ATNO][  6].d[ 12] =        -0.000178466149;
  BAS[ATNO][  6].a[ 13] =    545000.000000000000;     BAS[ATNO][  6].d[ 13] =         0.000157942420;
[...]
  BAS[ATNO][  6].a[ 24] =         3.205000000000;     BAS[ATNO][  6].d[ 24] =        -7.061623621929;
  BAS[ATNO][  6].a[ 25] =         0.520400000000;     BAS[ATNO][  6].d[ 25] =         0.088699802684;
  BAS[ATNO][  6].a[ 26] =    545000.000000000000;     BAS[ATNO][  6].d[ 26] =         0.000008053670;
  BAS[ATNO][  6].a[ 27] =     81640.000000000000;     BAS[ATNO][  6].d[ 27] =         0.000062380896;
  BAS[ATNO][  6].a[ 28] =     18580.000000000000;     BAS[ATNO][  6].d[ 28] =         0.000329405239;
  BAS[ATNO][  6].a[ 29] =      5261.000000000000;     BAS[ATNO][  6].d[ 29] =         0.001375445749;
  BAS[ATNO][  6].a[ 30] =      1717.000000000000;     BAS[ATNO][  6].d[ 30] =         0.004967348123;
  BAS[ATNO][  6].a[ 31] =       619.900000000000;     BAS[ATNO][  6].d[ 31] =         0.015333652214;
  BAS[ATNO][  6].a[ 32] =       241.600000000000;     BAS[ATNO][  6].d[ 32] =         0.041505068101;
  BAS[ATNO][  6].a[ 33] =        99.790000000000;     BAS[ATNO][  6].d[ 33] =         0.088287309714;
  BAS[ATNO][  6].a[ 34] =        43.150000000000;     BAS[ATNO][  6].d[ 34] =         0.135270003182;
  BAS[ATNO][  6].a[ 35] =        19.140000000000;     BAS[ATNO][  6].d[ 35] =         0.028108997844;
  BAS[ATNO][  6].a[ 36] =         7.488000000000;     BAS[ATNO][  6].d[ 36] =        -0.412614634153;
  BAS[ATNO][  6].a[ 37] =         3.205000000000;     BAS[ATNO][  6].d[ 37] =        -0.845248601967;
  BAS[ATNO][  6].a[ 38] =         0.520400000000;     BAS[ATNO][  6].d[ 38] =         1.458897754627;
  BAS[ATNO][  6].a[ 39] =         1.196000000000;     BAS[ATNO][  6].d[ 39] =        -2.722678289466;
  BAS[ATNO][  6].a[ 40] =         0.195400000000;     BAS[ATNO][  6].d[ 40] =        -0.409692809813;
  BAS[ATNO][  6].a[ 41] =        17.362000000000;     BAS[ATNO][  6].d[ 41] =         3.240873519057;
  BAS[ATNO][  6].a[ 42] =         3.378000000000;     BAS[ATNO][  6].d[ 42] =        13.121198696348;

  // Basis function   8 L = p
  InitBFNGauss(BAS[ATNO][  7]);
  BAS[ATNO][  7].l  = 1;
  BAS[ATNO][  7].ng = 18;
  BAS[ATNO][  7].a[  0] =       761.800000000000;     BAS[ATNO][  7].d[  0] =         0.003405070225;
  BAS[ATNO][  7].a[  1] =       180.200000000000;     BAS[ATNO][  7].d[  1] =         0.027329389967;
  BAS[ATNO][  7].a[  2] =        57.500000000000;     BAS[ATNO][  7].d[  2] =         0.126561748424;
  BAS[ATNO][  7].a[  3] =        21.240000000000;     BAS[ATNO][  7].d[  3] =         0.368384008934;
  BAS[ATNO][  7].a[  4] =         8.388000000000;     BAS[ATNO][  7].d[  4] =         0.630376815952;
  BAS[ATNO][  7].a[  5] =         3.416000000000;     BAS[ATNO][  7].d[  5] =         0.499416334543;
  BAS[ATNO][  7].a[  6] =         0.452300000000;     BAS[ATNO][  7].d[  6] =        -0.007527576630;
  BAS[ATNO][  7].a[  7] =       761.800000000000;     BAS[ATNO][  7].d[  7] =        -0.000042735328;
  BAS[ATNO][  7].a[  8] =       180.200000000000;     BAS[ATNO][  7].d[  8] =        -0.000341208941;
  BAS[ATNO][  7].a[  9] =        57.500000000000;     BAS[ATNO][  7].d[  9] =        -0.001636456828;
  BAS[ATNO][  7].a[ 10] =        21.240000000000;     BAS[ATNO][  7].d[ 10] =        -0.004849899413;
  BAS[ATNO][  7].a[ 11] =         8.388000000000;     BAS[ATNO][  7].d[ 11] =        -0.009039666743;
  BAS[ATNO][  7].a[ 12] =         3.416000000000;     BAS[ATNO][  7].d[ 12] =        -0.005974443871;
  BAS[ATNO][  7].a[ 13] =         0.452300000000;     BAS[ATNO][  7].d[ 13] =         0.036025313427;
  BAS[ATNO][  7].a[ 14] =         1.206000000000;     BAS[ATNO][  7].d[ 14] =        -0.068234763911;
  BAS[ATNO][  7].a[ 15] =         0.154500000000;     BAS[ATNO][  7].d[ 15] =        -0.008224188729;
  BAS[ATNO][  7].a[ 16] =        11.019000000000;     BAS[ATNO][  7].d[ 16] =        -0.026414240059;
  BAS[ATNO][  7].a[ 17] =         4.307000000000;     BAS[ATNO][  7].d[ 17] =        -0.393318038820;

  // Basis function   9 L = p
  InitBFNGauss(BAS[ATNO][  8]);
  BAS[ATNO][  8].l  = 1;
  BAS[ATNO][  8].ng = 18;
  BAS[ATNO][  8].a[  0] =       761.800000000000;     BAS[ATNO][  8].d[  0] =        -0.002271776072;
  BAS[ATNO][  8].a[  1] =       180.200000000000;     BAS[ATNO][  8].d[  1] =        -0.018233472467;
  BAS[ATNO][  8].a[  2] =        57.500000000000;     BAS[ATNO][  8].d[  2] =        -0.084438772986;
  BAS[ATNO][  8].a[  3] =        21.240000000000;     BAS[ATNO][  8].d[  3] =        -0.245776422097;
  BAS[ATNO][  8].a[  4] =         8.388000000000;     BAS[ATNO][  8].d[  4] =        -0.420571345771;
  BAS[ATNO][  8].a[  5] =         3.416000000000;     BAS[ATNO][  8].d[  5] =        -0.333197850244;
  BAS[ATNO][  8].a[  6] =         0.452300000000;     BAS[ATNO][  8].d[  6] =         0.005022207279;
  BAS[ATNO][  8].a[  7] =       761.800000000000;     BAS[ATNO][  8].d[  7] =         0.000230316345;
  BAS[ATNO][  8].a[  8] =       180.200000000000;     BAS[ATNO][  8].d[  8] =         0.001838900022;
  BAS[ATNO][  8].a[  9] =        57.500000000000;     BAS[ATNO][  8].d[  9] =         0.008819465538;
  BAS[ATNO][  8].a[ 10] =        21.240000000000;     BAS[ATNO][  8].d[ 10] =         0.026137885224;
  BAS[ATNO][  8].a[ 11] =         8.388000000000;     BAS[ATNO][  8].d[ 11] =         0.048718076739;
  BAS[ATNO][  8].a[ 12] =         3.416000000000;     BAS[ATNO][  8].d[ 12] =         0.032198467406;
  BAS[ATNO][  8].a[ 13] =         0.452300000000;     BAS[ATNO][  8].d[ 13] =        -0.194153615823;
  BAS[ATNO][  8].a[ 14] =         1.206000000000;     BAS[ATNO][  8].d[ 14] =         0.889228926264;
  BAS[ATNO][  8].a[ 15] =         0.154500000000;     BAS[ATNO][  8].d[ 15] =         0.053624148929;
  BAS[ATNO][  8].a[ 16] =        11.019000000000;     BAS[ATNO][  8].d[ 16] =        -0.141071983843;
  BAS[ATNO][  8].a[ 17] =         4.307000000000;     BAS[ATNO][  8].d[ 17] =         0.870425461311;

  // Basis function  10 L = p
  InitBFNGauss(BAS[ATNO][  9]);
  BAS[ATNO][  9].l  = 1;
  BAS[ATNO][  9].ng = 18;
  BAS[ATNO][  9].a[  0] =       761.800000000000;     BAS[ATNO][  9].d[  0] =         0.002918155346;
  BAS[ATNO][  9].a[  1] =       180.200000000000;     BAS[ATNO][  9].d[  1] =         0.023421368773;
  BAS[ATNO][  9].a[  2] =        57.500000000000;     BAS[ATNO][  9].d[  2] =         0.108463796153;
  BAS[ATNO][  9].a[  3] =        21.240000000000;     BAS[ATNO][  9].d[  3] =         0.315706195185;
  BAS[ATNO][  9].a[  4] =         8.388000000000;     BAS[ATNO][  9].d[  4] =         0.540234812780;
  BAS[ATNO][  9].a[  5] =         3.416000000000;     BAS[ATNO][  9].d[  5] =         0.428001289329;
  BAS[ATNO][  9].a[  6] =         0.452300000000;     BAS[ATNO][  9].d[  6] =        -0.006451155640;
  BAS[ATNO][  9].a[  7] =       761.800000000000;     BAS[ATNO][  9].d[  7] =        -0.001502518967;
  BAS[ATNO][  9].a[  8] =       180.200000000000;     BAS[ATNO][  9].d[  8] =        -0.011996465837;
  BAS[ATNO][  9].a[  9] =        57.500000000000;     BAS[ATNO][  9].d[  9] =        -0.057535709251;
  BAS[ATNO][  9].a[ 10] =        21.240000000000;     BAS[ATNO][  9].d[ 10] =        -0.170516201704;
  BAS[ATNO][  9].a[ 11] =         8.388000000000;     BAS[ATNO][  9].d[ 11] =        -0.317823011647;
  BAS[ATNO][  9].a[ 12] =         3.416000000000;     BAS[ATNO][  9].d[ 12] =        -0.210053732953;
  BAS[ATNO][  9].a[ 13] =         0.452300000000;     BAS[ATNO][  9].d[ 13] =         1.266603508046;
  BAS[ATNO][  9].a[ 14] =         1.206000000000;     BAS[ATNO][  9].d[ 14] =        -0.292095213460;
  BAS[ATNO][  9].a[ 15] =         0.154500000000;     BAS[ATNO][  9].d[ 15] =        -0.161128449003;
  BAS[ATNO][  9].a[ 16] =        11.019000000000;     BAS[ATNO][  9].d[ 16] =         0.202188149534;
  BAS[ATNO][  9].a[ 17] =         4.307000000000;     BAS[ATNO][  9].d[ 17] =        -1.005612099206;

  // Basis function  11 L = p
  InitBFNGauss(BAS[ATNO][ 10]);
  BAS[ATNO][ 10].l  = 1;
  BAS[ATNO][ 10].ng = 18;
  BAS[ATNO][ 10].a[  0] =       761.800000000000;     BAS[ATNO][ 10].d[  0] =        -0.001595301826;
  BAS[ATNO][ 10].a[  1] =       180.200000000000;     BAS[ATNO][ 10].d[  1] =        -0.012804031292;
  BAS[ATNO][ 10].a[  2] =        57.500000000000;     BAS[ATNO][ 10].d[  2] =        -0.059295161330;
  BAS[ATNO][ 10].a[  3] =        21.240000000000;     BAS[ATNO][ 10].d[  3] =        -0.172590767062;
  BAS[ATNO][ 10].a[  4] =         8.388000000000;     BAS[ATNO][ 10].d[  4] =        -0.295336430368;
  BAS[ATNO][ 10].a[  5] =         3.416000000000;     BAS[ATNO][ 10].d[  5] =        -0.233980428498;
  BAS[ATNO][ 10].a[  6] =         0.452300000000;     BAS[ATNO][ 10].d[  6] =         0.003526728070;
  BAS[ATNO][ 10].a[  7] =       761.800000000000;     BAS[ATNO][ 10].d[  7] =         0.000443132925;
  BAS[ATNO][ 10].a[  8] =       180.200000000000;     BAS[ATNO][ 10].d[  8] =         0.003538077799;
  BAS[ATNO][ 10].a[  9] =        57.500000000000;     BAS[ATNO][ 10].d[  9] =         0.016968815509;
  BAS[ATNO][ 10].a[ 10] =        21.240000000000;     BAS[ATNO][ 10].d[ 10] =         0.050289776656;
  BAS[ATNO][ 10].a[ 11] =         8.388000000000;     BAS[ATNO][ 10].d[ 11] =         0.093734484536;
  BAS[ATNO][ 10].a[ 12] =         3.416000000000;     BAS[ATNO][ 10].d[ 12] =         0.061950449343;
  BAS[ATNO][ 10].a[ 13] =         0.452300000000;     BAS[ATNO][ 10].d[ 13] =        -0.373555163055;
  BAS[ATNO][ 10].a[ 14] =         1.206000000000;     BAS[ATNO][ 10].d[ 14] =        -0.616016440465;
  BAS[ATNO][ 10].a[ 15] =         0.154500000000;     BAS[ATNO][ 10].d[ 15] =         1.148419702373;
  BAS[ATNO][ 10].a[ 16] =        11.019000000000;     BAS[ATNO][ 10].d[ 16] =        -0.199531866659;
  BAS[ATNO][ 10].a[ 17] =         4.307000000000;     BAS[ATNO][ 10].d[ 17] =         1.097841565800;

  // Basis function  12 L = p
  InitBFNGauss(BAS[ATNO][ 11]);
  BAS[ATNO][ 11].l  = 1;
  BAS[ATNO][ 11].ng = 18;
  BAS[ATNO][ 11].a[  0] =       761.800000000000;     BAS[ATNO][ 11].d[  0] =        -0.000783810400;
  BAS[ATNO][ 11].a[  1] =       180.200000000000;     BAS[ATNO][ 11].d[  1] =        -0.006290930482;
  BAS[ATNO][ 11].a[  2] =        57.500000000000;     BAS[ATNO][ 11].d[  2] =        -0.029133147939;
  BAS[ATNO][ 11].a[  3] =        21.240000000000;     BAS[ATNO][ 11].d[  3] =        -0.084798021236;
  BAS[ATNO][ 11].a[  4] =         8.388000000000;     BAS[ATNO][ 11].d[  4] =        -0.145105936549;
  BAS[ATNO][ 11].a[  5] =         3.416000000000;     BAS[ATNO][ 11].d[  5] =        -0.114960247772;
  BAS[ATNO][ 11].a[  6] =         0.452300000000;     BAS[ATNO][ 11].d[  6] =         0.001732766861;
  BAS[ATNO][ 11].a[  7] =       761.800000000000;     BAS[ATNO][ 11].d[  7] =         0.002584914000;
  BAS[ATNO][ 11].a[  8] =       180.200000000000;     BAS[ATNO][ 11].d[  8] =         0.020638563087;
  BAS[ATNO][ 11].a[  9] =        57.500000000000;     BAS[ATNO][ 11].d[  9] =         0.098983682469;
  BAS[ATNO][ 11].a[ 10] =        21.240000000000;     BAS[ATNO][ 11].d[ 10] =         0.293353845548;
  BAS[ATNO][ 11].a[ 11] =         8.388000000000;     BAS[ATNO][ 11].d[ 11] =         0.546778556752;
  BAS[ATNO][ 11].a[ 12] =         3.416000000000;     BAS[ATNO][ 11].d[ 12] =         0.361373697735;
  BAS[ATNO][ 11].a[ 13] =         0.452300000000;     BAS[ATNO][ 11].d[ 13] =        -2.179048126557;
  BAS[ATNO][ 11].a[ 14] =         1.206000000000;     BAS[ATNO][ 11].d[ 14] =         2.193270419141;
  BAS[ATNO][ 11].a[ 15] =         0.154500000000;     BAS[ATNO][ 11].d[ 15] =         1.149794474304;
  BAS[ATNO][ 11].a[ 16] =        11.019000000000;     BAS[ATNO][ 11].d[ 16] =         0.286199718305;
  BAS[ATNO][ 11].a[ 17] =         4.307000000000;     BAS[ATNO][ 11].d[ 17] =        -2.011722273586;

  // Basis function  13 L = p
  InitBFNGauss(BAS[ATNO][ 12]);
  BAS[ATNO][ 12].l  = 1;
  BAS[ATNO][ 12].ng = 18;
  BAS[ATNO][ 12].a[  0] =       761.800000000000;     BAS[ATNO][ 12].d[  0] =        -0.015078297586;
  BAS[ATNO][ 12].a[  1] =       180.200000000000;     BAS[ATNO][ 12].d[  1] =        -0.121019728691;
  BAS[ATNO][ 12].a[  2] =        57.500000000000;     BAS[ATNO][ 12].d[  2] =        -0.560439456408;
  BAS[ATNO][ 12].a[  3] =        21.240000000000;     BAS[ATNO][ 12].d[  3] =        -1.631274348586;
  BAS[ATNO][ 12].a[  4] =         8.388000000000;     BAS[ATNO][ 12].d[  4] =        -2.791428251141;
  BAS[ATNO][ 12].a[  5] =         3.416000000000;     BAS[ATNO][ 12].d[  5] =        -2.211510369744;
  BAS[ATNO][ 12].a[  6] =         0.452300000000;     BAS[ATNO][ 12].d[  6] =         0.033333538823;
  BAS[ATNO][ 12].a[  7] =       761.800000000000;     BAS[ATNO][ 12].d[  7] =         0.000681761985;
  BAS[ATNO][ 12].a[  8] =       180.200000000000;     BAS[ATNO][ 12].d[  8] =         0.005443348497;
  BAS[ATNO][ 12].a[  9] =        57.500000000000;     BAS[ATNO][ 12].d[  9] =         0.026106598456;
  BAS[ATNO][ 12].a[ 10] =        21.240000000000;     BAS[ATNO][ 12].d[ 10] =         0.077371046016;
  BAS[ATNO][ 12].a[ 11] =         8.388000000000;     BAS[ATNO][ 12].d[ 11] =         0.144210923146;
  BAS[ATNO][ 12].a[ 12] =         3.416000000000;     BAS[ATNO][ 12].d[ 12] =         0.095311043031;
  BAS[ATNO][ 12].a[ 13] =         0.452300000000;     BAS[ATNO][ 12].d[ 13] =        -0.574716286933;
  BAS[ATNO][ 12].a[ 14] =         1.206000000000;     BAS[ATNO][ 12].d[ 14] =         1.052777501928;
  BAS[ATNO][ 12].a[ 15] =         0.154500000000;     BAS[ATNO][ 12].d[ 15] =         0.169529045919;
  BAS[ATNO][ 12].a[ 16] =        11.019000000000;     BAS[ATNO][ 12].d[ 16] =         4.711682712293;
  BAS[ATNO][ 12].a[ 17] =         4.307000000000;     BAS[ATNO][ 12].d[ 17] =         1.161698812390;

  // Basis function  14 L = d
  InitBFNGauss(BAS[ATNO][ 13]);
  BAS[ATNO][ 13].l  = 2;
  BAS[ATNO][ 13].ng = 4;
  BAS[ATNO][ 13].a[  0] =         0.410000000000;     BAS[ATNO][ 13].d[  0] =        -0.116928990115;
  BAS[ATNO][ 13].a[  1] =         1.254000000000;     BAS[ATNO][ 13].d[  1] =         0.578140677825;
  BAS[ATNO][ 13].a[  2] =        20.706000000000;     BAS[ATNO][ 13].d[  2] =         0.068197285927;
  BAS[ATNO][ 13].a[  3] =         6.681000000000;     BAS[ATNO][ 13].d[  3] =         0.655314015478;

  // Basis function  15 L = d
  InitBFNGauss(BAS[ATNO][ 14]);
  BAS[ATNO][ 14].l  = 2;
  BAS[ATNO][ 14].ng = 4;
  BAS[ATNO][ 14].a[  0] =         0.410000000000;     BAS[ATNO][ 14].d[  0] =         0.455403432264;
  BAS[ATNO][ 14].a[  1] =         1.254000000000;     BAS[ATNO][ 14].d[  1] =         0.586952025418;
  BAS[ATNO][ 14].a[  2] =        20.706000000000;     BAS[ATNO][ 14].d[  2] =        -0.077135978772;
  BAS[ATNO][ 14].a[  3] =         6.681000000000;     BAS[ATNO][ 14].d[  3] =        -0.586196347341;

  // Basis function  16 L = d
  InitBFNGauss(BAS[ATNO][ 15]);
  BAS[ATNO][ 15].l  = 2;
  BAS[ATNO][ 15].ng = 4;
  BAS[ATNO][ 15].a[  0] =         0.410000000000;     BAS[ATNO][ 15].d[  0] =         1.167175731180;
  BAS[ATNO][ 15].a[  1] =         1.254000000000;     BAS[ATNO][ 15].d[  1] =        -1.031865762432;
  BAS[ATNO][ 15].a[  2] =        20.706000000000;     BAS[ATNO][ 15].d[  2] =         0.070181397581;
  BAS[ATNO][ 15].a[  3] =         6.681000000000;     BAS[ATNO][ 15].d[  3] =         0.456103534191;

  // Basis function  17 L = d
  InitBFNGauss(BAS[ATNO][ 16]);
  BAS[ATNO][ 16].l  = 2;
  BAS[ATNO][ 16].ng = 4;
  BAS[ATNO][ 16].a[  0] =         0.410000000000;     BAS[ATNO][ 16].d[  0] =        -0.134582929143;
  BAS[ATNO][ 16].a[  1] =         1.254000000000;     BAS[ATNO][ 16].d[  1] =         0.308838450137;
  BAS[ATNO][ 16].a[  2] =        20.706000000000;     BAS[ATNO][ 16].d[  2] =         1.250846052072;
  BAS[ATNO][ 16].a[  3] =         6.681000000000;     BAS[ATNO][ 16].d[  3] =        -0.913825043981;

  // Basis function  18 L = f
  InitBFNGauss(BAS[ATNO][ 17]);
  BAS[ATNO][ 17].l  = 3;
  BAS[ATNO][ 17].ng = 2;
  BAS[ATNO][ 17].a[  0] =         0.890000000000;     BAS[ATNO][ 17].d[  0] =         0.998791449267;
  BAS[ATNO][ 17].a[  1] =        13.674000000000;     BAS[ATNO][ 17].d[  1] =         0.024755770734;

  // Basis function  19 L = f
  InitBFNGauss(BAS[ATNO][ 18]);
  BAS[ATNO][ 18].l  = 3;
  BAS[ATNO][ 18].ng = 2;
  BAS[ATNO][ 18].a[  0] =         0.890000000000;     BAS[ATNO][ 18].d[  0] =        -0.061208021887;
  BAS[ATNO][ 18].a[  1] =        13.674000000000;     BAS[ATNO][ 18].d[  1] =         1.000358902038;

-------
TIMINGS
-------

Total SCF time: 0 days 0 hours 0 min 2 sec 

Total time                  ....       2.295 sec
Sum of individual times     ....       2.090 sec  ( 91.1%)

Fock matrix formation       ....       1.613 sec  ( 70.3%)
  XC integration            ....       0.033 sec  (  2.0% of F)
    Basis function eval.    ....       0.007 sec  ( 21.4% of XC)
    Density eval.           ....       0.002 sec  (  5.7% of XC)
    XC-Functional eval.     ....       0.002 sec  (  6.0% of XC)
    XC-Potential eval.      ....       0.002 sec  (  7.2% of XC)
Diagonalization             ....       0.003 sec  (  0.1%)
Density matrix formation    ....       0.001 sec  (  0.0%)
Population analysis         ....       0.001 sec  (  0.0%)
Initial guess               ....       0.095 sec  (  4.1%)
Orbital Transformation      ....       0.000 sec  (  0.0%)
Orbital Orthonormalization  ....       0.000 sec  (  0.0%)
DIIS solution               ....       0.000 sec  (  0.0%)
SOSCF solution              ....       0.001 sec  (  0.0%)
Grid generation             ....       0.376 sec  ( 16.4%)

-------------------------   --------------------
FINAL SINGLE POINT ENERGY      -312.200440237830
-------------------------   --------------------


                            ***************************************
                            *     ORCA property calculations      *
                            ***************************************

                                    ---------------------
                                    Active property flags
                                    ---------------------
   (+) Dipole Moment


------------------------------------------------------------------------------
                       ORCA ELECTRIC PROPERTIES CALCULATION
------------------------------------------------------------------------------

Dipole Moment Calculation                       ... on
Quadrupole Moment Calculation                   ... off
Polarizability Calculation                      ... off
GBWName                                         ... Ar_cc-pcvtz_274.071978_.gbw
Electron density file                           ... Ar_cc-pcvtz_274.071978_.scfp
The origin for moment calculation is the CENTER OF MASS  = ( 0.000000,  0.000000  0.000000)

-------------
DIPOLE MOMENT
-------------
                                X             Y             Z
Electronic contribution:      0.00000      -0.00000      -0.00000
Nuclear contribution   :      0.00000       0.00000       0.00000
                        -----------------------------------------
Total Dipole Moment    :      0.00000      -0.00000      -0.00000
                        -----------------------------------------
Magnitude (a.u.)       :      0.00000
Magnitude (Debye)      :      0.00000



--------------------
Rotational spectrum 
--------------------
 
Rotational constants in cm-1:     0.000000     0.000000     0.000000 
Rotational constants in MHz :     0.000000     0.000000     0.000000 

 Dipole components along the rotational axes: 
x,y,z [a.u.] :     0.000000    -0.000000    -0.000000 
x,y,z [Debye]:     0.000000    -0.000000    -0.000000 

 

Timings for individual modules:

Sum of individual times         ...        3.514 sec (=   0.059 min)
GTO integral calculation        ...        0.575 sec (=   0.010 min)  16.4 %
Relativistic integrals          ...        0.383 sec (=   0.006 min)  10.9 %
SCF iterations                  ...        2.556 sec (=   0.043 min)  72.7 %
                             ****ORCA TERMINATED NORMALLY****
TOTAL RUN TIME: 0 days 0 hours 0 minutes 3 seconds 866 msec
