
                                 *****************
                                 * O   R   C   A *
                                 *****************

           --- An Ab Initio, DFT and Semiempirical electronic structure package ---

                  #######################################################
                  #                        -***-                        #
                  #          Department of theory and spectroscopy      #
                  #               Directorship: Frank Neese             #
                  #        Max Planck Institute fuer Kohlenforschung    #
                  #                Kaiser Wilhelm Platz 1               #
                  #                 D-45470 Muelheim/Ruhr               #
                  #                      Germany                        #
                  #                                                     #
                  #                  All rights reserved                #
                  #                        -***-                        #
                  #######################################################


                         Program Version 4.2.1 -  RELEASE  -


 With contributions from (in alphabetic order):
   Daniel Aravena         : Magnetic Suceptibility
   Michael Atanasov       : Ab Initio Ligand Field Theory (pilot matlab implementation)
   Alexander A. Auer      : GIAO ZORA, VPT2
   Ute Becker             : Parallelization
   Giovanni Bistoni       : ED, misc. LED, open-shell LED, HFLD
   Martin Brehm           : Molecular dynamics
   Dmytro Bykov           : SCF Hessian
   Vijay G. Chilkuri      : MRCI spin determinant printing, contributions to CSF-ICE
   Dipayan Datta          : RHF DLPNO-CCSD density
   Achintya Kumar Dutta   : EOM-CC, STEOM-CC
   Dmitry Ganyushin       : Spin-Orbit,Spin-Spin,Magnetic field MRCI
   Miquel Garcia          : C-PCM Hessian, Gaussian charge scheme
   Yang Guo               : DLPNO-NEVPT2, CIM, IAO-localization
   Andreas Hansen         : Spin unrestricted coupled pair/coupled cluster methods
   Benjamin Helmich-Paris : CASSCF linear response (MC-RPA)
   Lee Huntington         : MR-EOM, pCC
   Robert Izsak           : Overlap fitted RIJCOSX, COSX-SCS-MP3, EOM
   Christian Kollmar      : KDIIS, OOCD, Brueckner-CCSD(T), CCSD density
   Simone Kossmann        : Meta GGA functionals, TD-DFT gradient, OOMP2, MP2 Hessian
   Martin Krupicka        : AUTO-CI
   Lucas Lang             : DCDCAS
   Dagmar Lenk            : GEPOL surface, SMD
   Dimitrios Liakos       : Extrapolation schemes; Compound Job, initial MDCI parallelization
   Dimitrios Manganas     : Further ROCIS development; embedding schemes
   Dimitrios Pantazis     : SARC Basis sets
   Taras Petrenko         : DFT Hessian,TD-DFT gradient, ASA, ECA, R-Raman, ABS, FL, XAS/XES, NRVS
   Peter Pinski           : DLPNO-MP2, DLPNO-MP2 Gradient
   Christoph Reimann      : Effective Core Potentials
   Marius Retegan         : Local ZFS, SOC
   Christoph Riplinger    : Optimizer, TS searches, QM/MM, DLPNO-CCSD(T), (RO)-DLPNO pert. Triples
   Tobias Risthaus        : Range-separated hybrids, TD-DFT gradient, RPA, STAB
   Michael Roemelt        : Original ROCIS implementation
   Masaaki Saitow         : Open-shell DLPNO-CCSD energy and density
   Barbara Sandhoefer     : DKH picture change effects
   Avijit Sen             : IP-ROCIS
   Kantharuban Sivalingam : CASSCF convergence, NEVPT2, FIC-MRCI
   Bernardo de Souza      : ESD, SOC TD-DFT
   Georgi Stoychev        : AutoAux, RI-MP2 NMR
   Willem Van den Heuvel  : Paramagnetic NMR
   Boris Wezisla          : Elementary symmetry handling
   Frank Wennmohs         : Technical directorship


 We gratefully acknowledge several colleagues who have allowed us to
 interface, adapt or use parts of their codes:
   Stefan Grimme, W. Hujo, H. Kruse,             : VdW corrections, initial TS optimization,
                  C. Bannwarth                     DFT functionals, gCP, sTDA/sTD-DF
   Ed Valeev, F. Pavosevic, A. Kumar             : LibInt (2-el integral package), F12 methods
   Garnet Chan, S. Sharma, J. Yang, R. Olivares  : DMRG
   Ulf Ekstrom                                   : XCFun DFT Library
   Mihaly Kallay                                 : mrcc  (arbitrary order and MRCC methods)
   Andreas Klamt, Michael Diedenhofen            : otool_cosmo (COSMO solvation model)
   Jiri Pittner, Ondrej Demel                    : Mk-CCSD
   Frank Weinhold                                : gennbo (NPA and NBO analysis)
   Christopher J. Cramer and Donald G. Truhlar   : smd solvation model
   Lars Goerigk                                  : TD-DFT with DH, B97 family of functionals
   V. Asgeirsson, H. Jonsson                     : NEB implementation
   FAccTs GmbH                                   : IRC, NEB, NEB-TS, Multilevel, MM, QM/MM, CI optimization
   S Lehtola, MJT Oliveira, MAL Marques          : LibXC Library


 Your calculation uses the libint2 library for the computation of 2-el integrals
 For citations please refer to: http://libint.valeyev.net

 Your ORCA version has been built with support for libXC version: 4.2.3
 For citations please refer to: https://tddft.org/programs/libxc/

 This ORCA versions uses:
   CBLAS   interface :  Fast vector & matrix operations
   LAPACKE interface :  Fast linear algebra routines
   SCALAPACK package :  Parallel linear algebra routines


----- Orbital basis set information -----
Your calculation utilizes the basis: cc-pCVDZ 
             H : cc-pVDZ. Obtained from the ccRepo (grant-hill.group.shef.ac.uk/ccrepo) Feb. 2017
                 T. H. Dunning, Jr., J. Chem. Phys. 90, 1007 (1989)
            He : cc-pVDZ. Obtained from the ccRepo (grant-hill.group.shef.ac.uk/ccrepo) Feb. 2017
                 D. E. Woon, T. H. Dunning, Jr., J. Chem. Phys. 100, 2975 (1994)
  Li-Be, Na-Mg : Obtained from the ccRepo (grant-hill.group.shef.ac.uk/ccrepo) Feb. 2017
                 B. P. Prascher, D. E. Woon, K. A. Peterson, T. H. Dunning, Jr., A. K. Wilson, Theor. Chem. Acc. 128, 69 (2011)
          B-Ne : Obtained from the ccRepo (grant-hill.group.shef.ac.uk/ccrepo) Feb. 2017
                 D. E. Woon, T. H. Dunning, Jr., J. Chem. Phys. 103, 4572 (1995)
                  K. A. Peterson, T. H. Dunning, Jr., J. Chem. Phys. 117, 10548 (2002)
         Al-Ar : Obtained from the EMSL Basis Set Exchange (bse.pnl.gov) Feb. 2017
                 K. A. Peterson, T. H. Dunning, Jr., J. Chem. Phys. 117, 10548 (2002)
            Ca : Obtained from the Peterson Research Group Website (tyr0.chem.wsu.edu/~kipeters) Feb. 2017
                 J. Koput, K. A. Peterson, J. Phys. Chem. 106, 9595 (2002)
         Ga-Kr : Obtained from the Peterson Research Group Website (tyr0.chem.wsu.edu/~kipeters) Feb. 2017
                 N. J. DeYonker, K. A. Peterson, A. K. Wilson, J. Phys. Chem. A 111, 11383 (2007)

================================================================================
                                        WARNINGS
                       Please study these warnings very carefully!
================================================================================


INFO   : the flag for use of LIBINT has been found!

================================================================================
                                       INPUT FILE
================================================================================
NAME = Ar_cc-pcvdz_137.035989_.inp
|  1> ! LDA cc-pcvdz nori grid5 finalgrid6 verytightscf
|  2> %Pal NProcs 18 End
|  3> 
|  4> % REL
|  5>   Method ZORA
|  6>   ModelPot 1, 0, 0, 0
|  7>   velit 137.035989
|  8> END
|  9> 
| 10> *xyz 16 1
| 11> Ar 0.0 0.0 0.0
| 12> **                         ****END OF INPUT****
================================================================================

                       ****************************
                       * Single Point Calculation *
                       ****************************

---------------------------------
CARTESIAN COORDINATES (ANGSTROEM)
---------------------------------
  Ar     0.000000    0.000000    0.000000

----------------------------
CARTESIAN COORDINATES (A.U.)
----------------------------
  NO LB      ZA    FRAG     MASS         X           Y           Z
   0 Ar   18.0000    0    39.948    0.000000    0.000000    0.000000

--------------------------------
INTERNAL COORDINATES (ANGSTROEM)
--------------------------------
 Ar     0   0   0     0.000000000000     0.00000000     0.00000000

---------------------------
INTERNAL COORDINATES (A.U.)
---------------------------
 Ar     0   0   0     0.000000000000     0.00000000     0.00000000

---------------------
BASIS SET INFORMATION
---------------------
There are 1 groups of distinct atoms

 Group   1 Type Ar  : 35s16p2d contracted to 5s4p2d pattern {11111111/7711/11}

Atom   0Ar   basis set group =>   1


           ************************************************************
           *        Program running with 18 parallel MPI-processes    *
           *              working on a common directory               *
           ************************************************************
------------------------------------------------------------------------------
                           ORCA GTO INTEGRAL CALCULATION
------------------------------------------------------------------------------

                         BASIS SET STATISTICS AND STARTUP INFO

 # of primitive gaussian shells          ...   53
 # of primitive gaussian functions       ...   93
 # of contracted shells                  ...   11
 # of contracted basis functions         ...   27
 Highest angular momentum                ...    2
 Maximum contraction depth               ...   11
 Integral package used                   ... LIBINT
 Integral threshhold            Thresh   ...  1.000e-12
 Primitive cut-off              TCut     ...  1.000e-14


------------------------------ INTEGRAL EVALUATION ----------------------------


 * One electron integrals 
 Pre-screening matrix                    ... done
 Shell pair data                         ... done (   0.000 sec)



           ************************************************************
           *        Program running with 18 parallel MPI-processes    *
           *              working on a common directory               *
           ************************************************************
------------------------------------------------------------------------------
                          ORCA RELATIVISTIC HAMILTONIAN
------------------------------------------------------------------------------

Relativistic Method            ... ZORA(MP)
Treatment of potential         ... Van Wuellen
Nucleus model                  ... Point Nucleus
Speed of light used            ... 137.03598900000000


            *************************************************
            *         ZERO ORDER REGULAR APPROXIMATION      *
            *                     ZORA(MP)                  *
            *            Programmed by FN according to      *
            *                   C. van Wuellen              *
            *       J. Chem. Phys. (1998) vol 109, 392-399  *
            *************************************************

Terms included in model potential: +V(e,N)
Basis function cutoff value   ... 1.000000e-12
Loading the fitted atomic densities  (DKH4)  ... done
Calculating the cutoffs                      ... done
Number of fit functions                      ... 15
Setting up the integration grid ... done


           ************************************************************
           *        Program running with 18 parallel MPI-processes    *
           *              working on a common directory               *
           ************************************************************
-------------------------------------------------------------------------------
                                 ORCA SCF
-------------------------------------------------------------------------------

------------
SCF SETTINGS
------------
Hamiltonian:
 Density Functional     Method          .... DFT(GTOs)
 Exchange Functional    Exchange        .... Slater
   X-Alpha parameter    XAlpha          ....  0.666667
 Correlation Functional Correlation     .... VWN-5
 Gradients option       PostSCFGGA      .... off
   Density functional embedding theory  .... OFF

Relativistic Settings:
 Scalar relativistic method             .... ZORA
 Speed of light used       Velit        ....       137.035989
Orbital energies will be scaled


General Settings:
 Integral files         IntName         .... Ar_cc-pcvdz_137.035989_
 Hartree-Fock type      HFTyp           .... RHF
 Total Charge           Charge          ....   16
 Multiplicity           Mult            ....    1
 Number of Electrons    NEL             ....    2
 Basis Dimension        Dim             ....   27
 Nuclear Repulsion      ENuc            ....      0.0000000000 Eh

Convergence Acceleration:
 DIIS                   CNVDIIS         .... on
   Start iteration      DIISMaxIt       ....    12
   Startup error        DIISStart       ....  0.200000
   # of expansion vecs  DIISMaxEq       ....     5
   Bias factor          DIISBfac        ....   1.050
   Max. coefficient     DIISMaxC        ....  10.000
 Newton-Raphson         CNVNR           .... off
 SOSCF                  CNVSOSCF        .... on
   Start iteration      SOSCFMaxIt      ....   150
   Startup grad/error   SOSCFStart      ....  0.003300
 Level Shifting         CNVShift        .... on
   Level shift para.    LevelShift      ....    0.2500
   Turn off err/grad.   ShiftErr        ....    0.0010
 Zerner damping         CNVZerner       .... off
 Static damping         CNVDamp         .... on
   Fraction old density DampFac         ....    0.7000
   Max. Damping (<1)    DampMax         ....    0.9800
   Min. Damping (>=0)   DampMin         ....    0.0000
   Turn off err/grad.   DampErr         ....    0.1000
 Fernandez-Rico         CNVRico         .... off

SCF Procedure:
 Maximum # iterations   MaxIter         ....   125
 SCF integral mode      SCFMode         .... Direct
   Integral package                     .... LIBINT
 Reset frequency        DirectResetFreq ....    20
 Integral Threshold     Thresh          ....  1.000e-12 Eh
 Primitive CutOff       TCut            ....  1.000e-14 Eh

Convergence Tolerance:
 Convergence Check Mode ConvCheckMode   .... Total+1el-Energy
 Convergence forced     ConvForced      .... 0
 Energy Change          TolE            ....  1.000e-09 Eh
 1-El. energy change                    ....  1.000e-06 Eh
 Orbital Gradient       TolG            ....  2.000e-06
 Orbital Rotation angle TolX            ....  2.000e-06
 DIIS Error             TolErr          ....  1.000e-08


Diagonalization of the overlap matrix:
Smallest eigenvalue                        ... 5.526e-02
Time for diagonalization                   ...    0.001 sec
Threshold for overlap eigenvalues          ... 1.000e-08
Number of eigenvalues below threshold      ... 0
Time for construction of square roots      ...    0.001 sec
Total time needed                          ...    0.002 sec

-------------------
DFT GRID GENERATION
-------------------

General Integration Accuracy     IntAcc      ...  5.010
Radial Grid Type                 RadialGrid  ... Gauss-Chebyshev
Angular Grid (max. acc.)         AngularGrid ... Lebedev-434
Angular grid pruning method      GridPruning ... 3 (G Style)
Weight generation scheme         WeightScheme... Becke
Basis function cutoff            BFCut       ...    1.0000e-12
Integration weight cutoff        WCut        ...    1.0000e-14
Grids for H and He will be reduced by one unit

# of grid points (after initial pruning)     ...  11992 (   0.0 sec)
# of grid points (after weights+screening)   ...  11992 (   0.0 sec)
Grid point division into batches done        ...    0.1 sec
Reduced shell lists constructed in    0.1 sec

Total number of grid points                  ...    11992
Total number of batches                      ...      188
Average number of points per batch           ...       63
Average number of grid points per atom       ...    11992
Average number of shells per batch           ...     0.00 ( 0.00%)
Average number of basis functions per batch  ...     0.00 ( 0.00%)
Average number of large shells per batch     ...     0.00 ( -nan%)
Average number of large basis fcns per batch ...     0.00 ( -nan%)
Maximum spatial batch extension              ...  18.71, 18.71, 18.71 au
Average spatial batch extension              ...   0.97,  0.98,  0.97 au

Time for grid setup =    0.150 sec

------------------------------
INITIAL GUESS: MODEL POTENTIAL
------------------------------
Loading ZORA relativistic densities                ... done
Calculating cut-offs                               ... done
Setting up the integral package                    ... done
Initializing the effective Hamiltonian             ... done
Starting the Coulomb interaction                   ... done (   0.0 sec)
Reading the grid                                   ... done
Mapping shells                                     ... done
Starting the XC term evaluation                    ... done (   0.0 sec)
  promolecular density results
     # of electrons  =     18.000000116
     EX              =    -28.047870263
     EC              =     -1.433252902
     EX+EC           =    -29.481123164
Transforming the Hamiltonian                       ... done (   0.0 sec)
Diagonalizing the Hamiltonian                      ... done (   0.0 sec)
Back transforming the eigenvectors                 ... done (   0.0 sec)
Now organizing SCF variables                       ... done
                      ------------------
                      INITIAL GUESS DONE (   0.2 sec)
                      ------------------
--------------
SCF ITERATIONS
--------------
ITER       Energy         Delta-E        Max-DP      RMS-DP      [F,P]     Damp
               ***  Starting incremental Fock matrix formation  ***
  0   -314.1407648811   0.000000000000 0.01421317  0.00072034  2.1074614 0.7000
  1   -314.1498259584  -0.009061077276 0.00987734  0.00050045  1.4658935 0.7000
  2   -314.1561104913  -0.006284532915 0.00684620  0.00034678  1.0187559 0.7000
                      *** Initiating the SOSCF procedure ***
                      *** Re-Reading the Fockian *** 
                      *** Removing any level shift *** 
ITER      Energy       Delta-E        Grad      Rot      Max-DP    RMS-DP
  3   -314.16048164  -0.0043711496  0.002674  0.002674  0.015817  0.000801
               *** Restarting incremental Fock matrix formation ***
  4   -314.17059313  -0.0101114856  0.006176  0.000047  0.000363  0.000019
  5   -314.17059426  -0.0000011302  0.000114  0.000001  0.000007  0.000000
                 **** Energy Check signals convergence ****
              ***Rediagonalizing the Fockian in SOSCF/NRSCF***

               *****************************************************
               *                     SUCCESS                       *
               *           SCF CONVERGED AFTER   6 CYCLES          *
               *****************************************************

Setting up the final grid:

General Integration Accuracy     IntAcc      ...  5.340
Radial Grid Type                 RadialGrid  ... Gauss-Chebyshev
Angular Grid (max. acc.)         AngularGrid ... Lebedev-590
Angular grid pruning method      GridPruning ... 3 (G Style)
Weight generation scheme         WeightScheme... Becke
Basis function cutoff            BFCut       ...    1.0000e-12
Integration weight cutoff        WCut        ...    1.0000e-14
Grids for H and He will be reduced by one unit

# of grid points (after initial pruning)     ...  18110 (   0.0 sec)
# of grid points (after weights+screening)   ...  18110 (   0.0 sec)
Grid point division into batches done        ...    0.2 sec
Reduced shell lists constructed in    0.2 sec

Total number of grid points                  ...    18110
Total number of batches                      ...      283
Average number of points per batch           ...       63
Average number of grid points per atom       ...    18110
Average number of shells per batch           ...     0.00 ( 0.00%)
Average number of basis functions per batch  ...     0.00 ( 0.00%)
Average number of large shells per batch     ...     0.00 ( -nan%)
Average number of large basis fcns per batch ...     0.00 ( -nan%)
Maximum spatial batch extension              ...  19.03, 19.03, 19.03 au
Average spatial batch extension              ...   0.84,  0.84,  0.80 au

Final grid set up in    0.2 sec
Final integration                            ... done (   0.0 sec)
Change in XC energy                          ...     0.000001225
Integrated number of electrons               ...     1.999999987
Previous integrated no of electrons          ...     2.000000071

----------------
TOTAL SCF ENERGY
----------------

Total Energy       :         -314.17059303 Eh           -8549.01646 eV

Components:
Nuclear Repulsion  :            0.00000000 Eh               0.00000 eV
Electronic Energy  :         -314.17059303 Eh           -8549.01646 eV
One Electron Energy:         -326.57384923 Eh           -8886.52622 eV
Two Electron Energy:           12.40325620 Eh             337.50976 eV

Virial components:
Potential Energy   :         -626.43397710 Eh          -17046.13513 eV
Kinetic Energy     :          312.26338407 Eh            8497.11867 eV
Virial Ratio       :            2.00610769


DFT components:
N(Alpha)           :        0.999999993747 electrons
N(Beta)            :        0.999999993747 electrons
N(Total)           :        1.999999987494 electrons
E(X)               :       -9.496253749980 Eh       
E(C)               :       -0.237337890594 Eh       
E(XC)              :       -9.733591640574 Eh       
DFET-embed. en.    :        0.000000000000 Eh       

---------------
SCF CONVERGENCE
---------------

  Last Energy change         ...   -3.9040e-10  Tolerance :   1.0000e-09
  Last MAX-Density change    ...    0.0000e+00  Tolerance :   1.0000e-08
  Last RMS-Density change    ...    0.0000e+00  Tolerance :   1.0000e-09
  Last Orbital Gradient      ...    7.3450e-10  Tolerance :   2.0000e-06
  Last Orbital Rotation      ...    0.0000e+00  Tolerance :   2.0000e-06

================================================================================
                                        WARNING
Number of found core electrons (2) does not match given number of chemical core electrons (10)
================================================================================
             **** THE GBW FILE WAS UPDATED (Ar_cc-pcvdz_137.035989_.gbw) ****
             **** DENSITY FILE WAS UPDATED (Ar_cc-pcvdz_137.035989_.scfp) ****
             **** ENERGY FILE WAS UPDATED (Ar_cc-pcvdz_137.035989_.en.tmp) ****
             **** THE GBW FILE WAS UPDATED (Ar_cc-pcvdz_137.035989_.gbw) ****
             **** DENSITY FILE WAS UPDATED (Ar_cc-pcvdz_137.035989_.scfp) ****
----------------
ORBITAL ENERGIES
----------------

  NO   OCC          E(Eh)            E(eV) 
   0   2.0000    -147.609137     -4016.6488 
   1   0.0000     -34.262060      -932.3180 
   2   0.0000     -33.308634      -906.3740 
   3   0.0000     -33.308634      -906.3740 
   4   0.0000     -33.308634      -906.3740 
   5   0.0000     -13.778027      -374.9192 
   6   0.0000     -13.579829      -369.5259 
   7   0.0000     -13.579829      -369.5259 
   8   0.0000     -13.579829      -369.5259 
   9   0.0000      -9.748518      -265.2707 
  10   0.0000      -9.748518      -265.2707 
  11   0.0000      -9.748518      -265.2707 
  12   0.0000      -9.748518      -265.2707 
  13   0.0000      -9.748518      -265.2707 
  14   0.0000      -7.160435      -194.8453 
  15   0.0000      -7.160435      -194.8453 
  16   0.0000      -7.160435      -194.8453 
  17   0.0000      -6.614007      -179.9763 
  18   0.0000      -5.579253      -151.8192 
  19   0.0000      -5.579253      -151.8192 
  20   0.0000      -5.579253      -151.8192 
  21   0.0000      -5.579253      -151.8192 
  22   0.0000      -5.579253      -151.8192 
  23   0.0000      -4.781875      -130.1214 
  24   0.0000      -4.781875      -130.1214 
  25   0.0000      -4.781875      -130.1214 
  26   0.0000       0.181332         4.9343 

                    ********************************
                    * MULLIKEN POPULATION ANALYSIS *
                    ********************************

-----------------------
MULLIKEN ATOMIC CHARGES
-----------------------
   0 Ar:   16.000000
Sum of atomic charges:   16.0000000

--------------------------------
MULLIKEN REDUCED ORBITAL CHARGES
--------------------------------
  0 Ars       :     2.000000  s :     2.000000
      pz      :     0.000000  p :     0.000000
      px      :     0.000000
      py      :     0.000000
      dz2     :     0.000000  d :     0.000000
      dxz     :     0.000000
      dyz     :     0.000000
      dx2y2   :     0.000000
      dxy     :     0.000000


                     *******************************
                     * LOEWDIN POPULATION ANALYSIS *
                     *******************************

----------------------
LOEWDIN ATOMIC CHARGES
----------------------
   0 Ar:   16.000000

-------------------------------
LOEWDIN REDUCED ORBITAL CHARGES
-------------------------------
  0 Ars       :     2.000000  s :     2.000000
      pz      :     0.000000  p :     0.000000
      px      :     0.000000
      py      :     0.000000
      dz2     :     0.000000  d :     0.000000
      dxz     :     0.000000
      dyz     :     0.000000
      dx2y2   :     0.000000
      dxy     :     0.000000


                      *****************************
                      * MAYER POPULATION ANALYSIS *
                      *****************************

  NA   - Mulliken gross atomic population
  ZA   - Total nuclear charge
  QA   - Mulliken gross atomic charge
  VA   - Mayer's total valence
  BVA  - Mayer's bonded valence
  FA   - Mayer's free valence

  ATOM       NA         ZA         QA         VA         BVA        FA
  0 Ar     2.0000    18.0000    16.0000    -0.0000     0.0000    -0.0000

  Mayer bond orders larger than 0.100000


--------------------------
ATOM BASIS FOR ELEMENT Ar
--------------------------
 NewGTO Ar
 S 35
    1     145700.000000000000         0.000241154778
    2      21840.000000000000         0.001869769682
    3       4972.000000000000         0.009707931643
    4       1408.000000000000         0.039355298351
    5        459.700000000000         0.126416248572
    6        165.900000000000         0.302050689713
    7         64.690000000000         0.430011469945
    8         26.440000000000         0.246260087028
    9          7.628000000000         0.020428265073
   10          2.996000000000        -0.003677941485
   11          0.650400000000         0.000993968271
   12     145700.000000000000        -0.000000788288
   13      21840.000000000000        -0.000006056288
   14       4972.000000000000        -0.000032099299
   15       1408.000000000000        -0.000129655120
   16        459.700000000000        -0.000449466101
   17        165.900000000000        -0.001165186146
   18         64.690000000000        -0.002372048529
   19         26.440000000000        -0.001583888545
   20          7.628000000000         0.005923989372
   21          2.996000000000         0.007158590361
   22          0.650400000000         0.000517382412
   23     145700.000000000000        -0.000000202302
   24      21840.000000000000        -0.000001562660
   25       4972.000000000000        -0.000008223157
   26       1408.000000000000        -0.000033619314
   27        459.700000000000        -0.000115500215
   28        165.900000000000        -0.000308915686
   29         64.690000000000        -0.000629888358
   30         26.440000000000        -0.000480020494
   31          7.628000000000         0.002208659489
   32          2.996000000000         0.004046929293
   33          0.650400000000        -0.006174420649
   34          0.233700000000         0.001817808259
   35          9.548000000000        -0.034428275520
 S 35
    1     145700.000000000000         0.000049792136
    2      21840.000000000000         0.000386058391
    3       4972.000000000000         0.002004433225
    4       1408.000000000000         0.008125836738
    5        459.700000000000         0.026101639169
    6        165.900000000000         0.062365544009
    7         64.690000000000         0.088786088449
    8         26.440000000000         0.050846248058
    9          7.628000000000         0.004217900862
   10          2.996000000000        -0.000759398437
   11          0.650400000000         0.000205228374
   12     145700.000000000000         0.000044556255
   13      21840.000000000000         0.000342318211
   14       4972.000000000000         0.001814341577
   15       1408.000000000000         0.007328467770
   16        459.700000000000         0.025405073257
   17        165.900000000000         0.065859559473
   18         64.690000000000         0.134074775679
   19         26.440000000000         0.089525782815
   20          7.628000000000        -0.334840344335
   21          2.996000000000        -0.404623423658
   22          0.650400000000        -0.029243891925
   23     145700.000000000000         0.000003016790
   24      21840.000000000000         0.000023302831
   25       4972.000000000000         0.000122626089
   26       1408.000000000000         0.000501340928
   27        459.700000000000         0.001722372602
   28        165.900000000000         0.004606640021
   29         64.690000000000         0.009393077303
   30         26.440000000000         0.007158204387
   31          7.628000000000        -0.032936168850
   32          2.996000000000        -0.060348979639
   33          0.650400000000         0.092074745825
   34          0.233700000000        -0.023489473654
   35          9.548000000000        -0.388267823889
 S 35
    1     145700.000000000000         0.000109518920
    2      21840.000000000000         0.000849144093
    3       4972.000000000000         0.004408795848
    4       1408.000000000000         0.017872960208
    5        459.700000000000         0.057411140939
    6        165.900000000000         0.137174413209
    7         64.690000000000         0.195286993448
    8         26.440000000000         0.111837463331
    9          7.628000000000         0.009277367573
   10          2.996000000000        -0.001670313898
   11          0.650400000000         0.000451404413
   12     145700.000000000000        -0.000079725492
   13      21840.000000000000        -0.000612517547
   14       4972.000000000000        -0.003246441517
   15       1408.000000000000        -0.013112989484
   16        459.700000000000        -0.045457859532
   17        165.900000000000        -0.117843966559
   18         64.690000000000        -0.239902961816
   19         26.440000000000        -0.160190463474
   20          7.628000000000         0.599137234688
   21          2.996000000000         0.724001642101
   22          0.650400000000         0.052326742688
   23     145700.000000000000         0.000043986500
   24      21840.000000000000         0.000339768477
   25       4972.000000000000         0.001787957806
   26       1408.000000000000         0.007309834589
   27        459.700000000000         0.025113167734
   28        165.900000000000         0.067167419758
   29         64.690000000000         0.136956385363
   30         26.440000000000         0.104370672887
   31          7.628000000000        -0.480227990040
   32          2.996000000000        -0.879922292279
   33          0.650400000000         1.342501926152
   34          0.233700000000        -0.337798897608
   35          9.548000000000        -0.704309120972
 S 35
    1     145700.000000000000        -0.000101302167
    2      21840.000000000000        -0.000785436315
    3       4972.000000000000        -0.004078022083
    4       1408.000000000000        -0.016532025735
    5        459.700000000000        -0.053103819873
    6        165.900000000000        -0.126882782872
    7         64.690000000000        -0.180635415947
    8         26.440000000000        -0.103446759821
    9          7.628000000000        -0.008581324956
   10          2.996000000000         0.001544997137
   11          0.650400000000        -0.000417537402
   12     145700.000000000000         0.000094059486
   13      21840.000000000000         0.000722643208
   14       4972.000000000000         0.003830125231
   15       1408.000000000000         0.015470598072
   16        459.700000000000         0.053630812023
   17        165.900000000000         0.139031350874
   18         64.690000000000         0.283035558238
   19         26.440000000000         0.188991402651
   20          7.628000000000        -0.706857224259
   21          2.996000000000        -0.854171234011
   22          0.650400000000        -0.061734664363
   23     145700.000000000000        -0.000042620467
   24      21840.000000000000        -0.000329216719
   25       4972.000000000000        -0.001732431469
   26       1408.000000000000        -0.007082822333
   27        459.700000000000        -0.024333259953
   28        165.900000000000        -0.065081486438
   29         64.690000000000        -0.132703104701
   30         26.440000000000        -0.101129365346
   31          7.628000000000         0.465314158764
   32          2.996000000000         0.852595662273
   33          0.650400000000        -1.300809547473
   34          0.233700000000         1.783302067904
   35          9.548000000000         0.519736451045
 S 35
    1     145700.000000000000         0.000372127825
    2      21840.000000000000         0.002885256227
    3       4972.000000000000         0.014980385285
    4       1408.000000000000         0.060729468853
    5        459.700000000000         0.195073902418
    6        165.900000000000         0.466096782939
    7         64.690000000000         0.663554064247
    8         26.440000000000         0.380005867356
    9          7.628000000000         0.031523015691
   10          2.996000000000        -0.005675460286
   11          0.650400000000         0.001533800217
   12     145700.000000000000        -0.000098130294
   13      21840.000000000000        -0.000753918538
   14       4972.000000000000        -0.003995889515
   15       1408.000000000000        -0.016140151274
   16        459.700000000000        -0.055951904054
   17        165.900000000000        -0.145048499382
   18         64.690000000000        -0.295285075891
   19         26.440000000000        -0.197170776075
   20          7.628000000000         0.737449352334
   21          2.996000000000         0.891138976423
   22          0.650400000000         0.064406483641
   23     145700.000000000000        -0.000061793579
   24      21840.000000000000        -0.000477317132
   25       4972.000000000000        -0.002511777721
   26       1408.000000000000        -0.010269078840
   27        459.700000000000        -0.035279744874
   28        165.900000000000        -0.094358842260
   29         64.690000000000        -0.192400512178
   30         26.440000000000        -0.146623108273
   31          7.628000000000         0.674638944366
   32          2.996000000000         1.236141704981
   33          0.650400000000        -1.885987699705
   34          0.233700000000         0.920404173062
   35          9.548000000000        -3.036509555986
 P 16
    1        453.700000000000         0.007767198123
    2        106.800000000000         0.058600276990
    3         33.730000000000         0.240400536961
    4         12.130000000000         0.553879210546
    5          4.594000000000         0.616073427304
    6          1.678000000000         0.167174014187
    7          0.590900000000        -0.006071525609
    8        453.700000000000         0.000239571636
    9        106.800000000000         0.001815021140
   10         33.730000000000         0.007766099580
   11         12.130000000000         0.018451884809
   12          4.594000000000         0.022609698981
   13          1.678000000000        -0.021238673104
   14          0.590900000000        -0.087161844256
   15          0.185200000000         0.033348103803
   16          4.361000000000        -0.439326342405
 P 16
    1        453.700000000000         0.004421383071
    2        106.800000000000         0.033357495016
    3         33.730000000000         0.136845082059
    4         12.130000000000         0.315289004660
    5          4.594000000000         0.350692306181
    6          1.678000000000         0.095161774507
    7          0.590900000000        -0.003456142115
    8        453.700000000000         0.001951214531
    9        106.800000000000         0.014782616501
   10         33.730000000000         0.063251754647
   11         12.130000000000         0.150283173506
   12          4.594000000000         0.184146896109
   13          1.678000000000        -0.172980442282
   14          0.590900000000        -0.709898132311
   15          0.185200000000         0.223206262246
   16          4.361000000000        -1.168942460992
 P 16
    1        453.700000000000         0.008486153291
    2        106.800000000000         0.064024494495
    3         33.730000000000         0.262652732133
    4         12.130000000000         0.605147932534
    5          4.594000000000         0.673099032648
    6          1.678000000000         0.182648142650
    7          0.590900000000        -0.006633524241
    8        453.700000000000        -0.001295112961
    9        106.800000000000        -0.009811918645
   10         33.730000000000        -0.041983167911
   11         12.130000000000        -0.099750018679
   12          4.594000000000        -0.122226965921
   13          1.678000000000         0.114815264718
   14          0.590900000000         0.471192817574
   15          0.185200000000         0.383431334752
   16          4.361000000000        -1.734313906688
 P 16
    1        453.700000000000         0.007028384174
    2        106.800000000000         0.053026233255
    3         33.730000000000         0.217533697828
    4         12.130000000000         0.501194358146
    5          4.594000000000         0.557472676515
    6          1.678000000000         0.151272463642
    7          0.590900000000        -0.005494003607
    8        453.700000000000        -0.002274303618
    9        106.800000000000        -0.017230375064
   10         33.730000000000        -0.073725206626
   11         12.130000000000        -0.175167599399
   12          4.594000000000        -0.214638598424
   13          1.678000000000         0.201623163196
   14          0.590900000000         0.827445606538
   15          0.185200000000        -1.231422999366
   16          4.361000000000        -1.224758105232
 D 2
    1          0.738000000000         0.893154699608
    2         11.459000000000         0.387820963125
 D 2
    1          0.738000000000        -0.455973947950
    2         11.459000000000         0.924787791443
 end
  // -----------------------------------------------
  // The basis set
  // -----------------------------------------------
  BAS[ATNO] = new BFNGauss[NSH];
  // Basis function   1 L = s
  InitBFNGauss(BAS[ATNO][  0]);
  BAS[ATNO][  0].l  = 0;
  BAS[ATNO][  0].ng = 35;
  BAS[ATNO][  0].a[  0] =    145700.000000000000;     BAS[ATNO][  0].d[  0] =         0.000241154778;
  BAS[ATNO][  0].a[  1] =     21840.000000000000;     BAS[ATNO][  0].d[  1] =         0.001869769682;
  BAS[ATNO][  0].a[  2] =      4972.000000000000;     BAS[ATNO][  0].d[  2] =         0.009707931643;
  BAS[ATNO][  0].a[  3] =      1408.000000000000;     BAS[ATNO][  0].d[  3] =         0.039355298351;
  BAS[ATNO][  0].a[  4] =       459.700000000000;     BAS[ATNO][  0].d[  4] =         0.126416248572;
  BAS[ATNO][  0].a[  5] =       165.900000000000;     BAS[ATNO][  0].d[  5] =         0.302050689713;
  BAS[ATNO][  0].a[  6] =        64.690000000000;     BAS[ATNO][  0].d[  6] =         0.430011469945;
  BAS[ATNO][  0].a[  7] =        26.440000000000;     BAS[ATNO][  0].d[  7] =         0.246260087028;
  BAS[ATNO][  0].a[  8] =         7.628000000000;     BAS[ATNO][  0].d[  8] =         0.020428265073;
  BAS[ATNO][  0].a[  9] =         2.996000000000;     BAS[ATNO][  0].d[  9] =        -0.003677941485;
  BAS[ATNO][  0].a[ 10] =         0.650400000000;     BAS[ATNO][  0].d[ 10] =         0.000993968271;
  BAS[ATNO][  0].a[ 11] =    145700.000000000000;     BAS[ATNO][  0].d[ 11] =        -0.000000788288;
  BAS[ATNO][  0].a[ 12] =     21840.000000000000;     BAS[ATNO][  0].d[ 12] =        -0.000006056288;
  BAS[ATNO][  0].a[ 13] =      4972.000000000000;     BAS[ATNO][  0].d[ 13] =        -0.000032099299;
  BAS[ATNO][  0].a[ 14] =      1408.000000000000;     BAS[ATNO][  0].d[ 14] =        -0.000129655120;
  BAS[ATNO][  0].a[ 15] =       459.700000000000;     BAS[ATNO][  0].d[ 15] =        -0.000449466101;
  BAS[ATNO][  0].a[ 16] =       165.900000000000;     BAS[ATNO][  0].d[ 16] =        -0.001165186146;
  BAS[ATNO][  0].a[ 17] =        64.690000000000;     BAS[ATNO][  0].d[ 17] =        -0.002372048529;
  BAS[ATNO][  0].a[ 18] =        26.440000000000;     BAS[ATNO][  0].d[ 18] =        -0.001583888545;
  BAS[ATNO][  0].a[ 19] =         7.628000000000;     BAS[ATNO][  0].d[ 19] =         0.005923989372;
  BAS[ATNO][  0].a[ 20] =         2.996000000000;     BAS[ATNO][  0].d[ 20] =         0.007158590361;
  BAS[ATNO][  0].a[ 21] =         0.650400000000;     BAS[ATNO][  0].d[ 21] =         0.000517382412;
  BAS[ATNO][  0].a[ 22] =    145700.000000000000;     BAS[ATNO][  0].d[ 22] =        -0.000000202302;
  BAS[ATNO][  0].a[ 23] =     21840.000000000000;     BAS[ATNO][  0].d[ 23] =        -0.000001562660;
  BAS[ATNO][  0].a[ 24] =      4972.000000000000;     BAS[ATNO][  0].d[ 24] =        -0.000008223157;
  BAS[ATNO][  0].a[ 25] =      1408.000000000000;     BAS[ATNO][  0].d[ 25] =        -0.000033619314;
  BAS[ATNO][  0].a[ 26] =       459.700000000000;     BAS[ATNO][  0].d[ 26] =        -0.000115500215;
  BAS[ATNO][  0].a[ 27] =       165.900000000000;     BAS[ATNO][  0].d[ 27] =        -0.000308915686;
  BAS[ATNO][  0].a[ 28] =        64.690000000000;     BAS[ATNO][  0].d[ 28] =        -0.000629888358;
  BAS[ATNO][  0].a[ 29] =        26.440000000000;     BAS[ATNO][  0].d[ 29] =        -0.000480020494;
  BAS[ATNO][  0].a[ 30] =         7.628000000000;     BAS[ATNO][  0].d[ 30] =         0.002208659489;
  BAS[ATNO][  0].a[ 31] =         2.996000000000;     BAS[ATNO][  0].d[ 31] =         0.004046929293;
  BAS[ATNO][  0].a[ 32] =         0.650400000000;     BAS[ATNO][  0].d[ 32] =        -0.006174420649;
  BAS[ATNO][  0].a[ 33] =         0.233700000000;     BAS[ATNO][  0].d[ 33] =         0.001817808259;
  BAS[ATNO][  0].a[ 34] =         9.548000000000;     BAS[ATNO][  0].d[ 34] =        -0.034428275520;

  // Basis function   2 L = s
  InitBFNGauss(BAS[ATNO][  1]);
  BAS[ATNO][  1].l  = 0;
  BAS[ATNO][  1].ng = 35;
  BAS[ATNO][  1].a[  0] =    145700.000000000000;     BAS[ATNO][  1].d[  0] =        -0.000049792136;
  BAS[ATNO][  1].a[  1] =     21840.000000000000;     BAS[ATNO][  1].d[  1] =        -0.000386058391;
  BAS[ATNO][  1].a[  2] =      4972.000000000000;     BAS[ATNO][  1].d[  2] =        -0.002004433225;
  BAS[ATNO][  1].a[  3] =      1408.000000000000;     BAS[ATNO][  1].d[  3] =        -0.008125836738;
  BAS[ATNO][  1].a[  4] =       459.700000000000;     BAS[ATNO][  1].d[  4] =        -0.026101639169;
  BAS[ATNO][  1].a[  5] =       165.900000000000;     BAS[ATNO][  1].d[  5] =        -0.062365544009;
  BAS[ATNO][  1].a[  6] =        64.690000000000;     BAS[ATNO][  1].d[  6] =        -0.088786088449;
  BAS[ATNO][  1].a[  7] =        26.440000000000;     BAS[ATNO][  1].d[  7] =        -0.050846248058;
  BAS[ATNO][  1].a[  8] =         7.628000000000;     BAS[ATNO][  1].d[  8] =        -0.004217900862;
  BAS[ATNO][  1].a[  9] =         2.996000000000;     BAS[ATNO][  1].d[  9] =         0.000759398437;
  BAS[ATNO][  1].a[ 10] =         0.650400000000;     BAS[ATNO][  1].d[ 10] =        -0.000205228374;
  BAS[ATNO][  1].a[ 11] =    145700.000000000000;     BAS[ATNO][  1].d[ 11] =        -0.000044556255;
  BAS[ATNO][  1].a[ 12] =     21840.000000000000;     BAS[ATNO][  1].d[ 12] =        -0.000342318211;
  BAS[ATNO][  1].a[ 13] =      4972.000000000000;     BAS[ATNO][  1].d[ 13] =        -0.001814341577;
  BAS[ATNO][  1].a[ 14] =      1408.000000000000;     BAS[ATNO][  1].d[ 14] =        -0.007328467770;
  BAS[ATNO][  1].a[ 15] =       459.700000000000;     BAS[ATNO][  1].d[ 15] =        -0.025405073257;
  BAS[ATNO][  1].a[ 16] =       165.900000000000;     BAS[ATNO][  1].d[ 16] =        -0.065859559473;
  BAS[ATNO][  1].a[ 17] =        64.690000000000;     BAS[ATNO][  1].d[ 17] =        -0.134074775679;
  BAS[ATNO][  1].a[ 18] =        26.440000000000;     BAS[ATNO][  1].d[ 18] =        -0.089525782815;
  BAS[ATNO][  1].a[ 19] =         7.628000000000;     BAS[ATNO][  1].d[ 19] =         0.334840344335;
  BAS[ATNO][  1].a[ 20] =         2.996000000000;     BAS[ATNO][  1].d[ 20] =         0.404623423658;
  BAS[ATNO][  1].a[ 21] =         0.650400000000;     BAS[ATNO][  1].d[ 21] =         0.029243891925;
  BAS[ATNO][  1].a[ 22] =    145700.000000000000;     BAS[ATNO][  1].d[ 22] =        -0.000003016790;
  BAS[ATNO][  1].a[ 23] =     21840.000000000000;     BAS[ATNO][  1].d[ 23] =        -0.000023302831;
  BAS[ATNO][  1].a[ 24] =      4972.000000000000;     BAS[ATNO][  1].d[ 24] =        -0.000122626089;
  BAS[ATNO][  1].a[ 25] =      1408.000000000000;     BAS[ATNO][  1].d[ 25] =        -0.000501340928;
  BAS[ATNO][  1].a[ 26] =       459.700000000000;     BAS[ATNO][  1].d[ 26] =        -0.001722372602;
  BAS[ATNO][  1].a[ 27] =       165.900000000000;     BAS[ATNO][  1].d[ 27] =        -0.004606640021;
  BAS[ATNO][  1].a[ 28] =        64.690000000000;     BAS[ATNO][  1].d[ 28] =        -0.009393077303;
  BAS[ATNO][  1].a[ 29] =        26.440000000000;     BAS[ATNO][  1].d[ 29] =        -0.007158204387;
  BAS[ATNO][  1].a[ 30] =         7.628000000000;     BAS[ATNO][  1].d[ 30] =         0.032936168850;
  BAS[ATNO][  1].a[ 31] =         2.996000000000;     BAS[ATNO][  1].d[ 31] =         0.060348979639;
  BAS[ATNO][  1].a[ 32] =         0.650400000000;     BAS[ATNO][  1].d[ 32] =        -0.092074745825;
  BAS[ATNO][  1].a[ 33] =         0.233700000000;     BAS[ATNO][  1].d[ 33] =         0.023489473654;
  BAS[ATNO][  1].a[ 34] =         9.548000000000;     BAS[ATNO][  1].d[ 34] =         0.388267823889;

  // Basis function   3 L = s
  InitBFNGauss(BAS[ATNO][  2]);
  BAS[ATNO][  2].l  = 0;
  BAS[ATNO][  2].ng = 35;
  BAS[ATNO][  2].a[  0] =    145700.000000000000;     BAS[ATNO][  2].d[  0] =         0.000109518920;
  BAS[ATNO][  2].a[  1] =     21840.000000000000;     BAS[ATNO][  2].d[  1] =         0.000849144093;
  BAS[ATNO][  2].a[  2] =      4972.000000000000;     BAS[ATNO][  2].d[  2] =         0.004408795848;
  BAS[ATNO][  2].a[  3] =      1408.000000000000;     BAS[ATNO][  2].d[  3] =         0.017872960208;
  BAS[ATNO][  2].a[  4] =       459.700000000000;     BAS[ATNO][  2].d[  4] =         0.057411140939;
  BAS[ATNO][  2].a[  5] =       165.900000000000;     BAS[ATNO][  2].d[  5] =         0.137174413209;
  BAS[ATNO][  2].a[  6] =        64.690000000000;     BAS[ATNO][  2].d[  6] =         0.195286993448;
  BAS[ATNO][  2].a[  7] =        26.440000000000;     BAS[ATNO][  2].d[  7] =         0.111837463331;
  BAS[ATNO][  2].a[  8] =         7.628000000000;     BAS[ATNO][  2].d[  8] =         0.009277367573;
  BAS[ATNO][  2].a[  9] =         2.996000000000;     BAS[ATNO][  2].d[  9] =        -0.001670313898;
  BAS[ATNO][  2].a[ 10] =         0.650400000000;     BAS[ATNO][  2].d[ 10] =         0.000451404413;
  BAS[ATNO][  2].a[ 11] =    145700.000000000000;     BAS[ATNO][  2].d[ 11] =        -0.000079725492;
  BAS[ATNO][  2].a[ 12] =     21840.000000000000;     BAS[ATNO][  2].d[ 12] =        -0.000612517547;
  BAS[ATNO][  2].a[ 13] =      4972.000000000000;     BAS[ATNO][  2].d[ 13] =        -0.003246441517;
  BAS[ATNO][  2].a[ 14] =      1408.000000000000;     BAS[ATNO][  2].d[ 14] =        -0.013112989484;
  BAS[ATNO][  2].a[ 15] =       459.700000000000;     BAS[ATNO][  2].d[ 15] =        -0.045457859532;
  BAS[ATNO][  2].a[ 16] =       165.900000000000;     BAS[ATNO][  2].d[ 16] =        -0.117843966559;
  BAS[ATNO][  2].a[ 17] =        64.690000000000;     BAS[ATNO][  2].d[ 17] =        -0.239902961816;
  BAS[ATNO][  2].a[ 18] =        26.440000000000;     BAS[ATNO][  2].d[ 18] =        -0.160190463474;
  BAS[ATNO][  2].a[ 19] =         7.628000000000;     BAS[ATNO][  2].d[ 19] =         0.599137234688;
  BAS[ATNO][  2].a[ 20] =         2.996000000000;     BAS[ATNO][  2].d[ 20] =         0.724001642101;
  BAS[ATNO][  2].a[ 21] =         0.650400000000;     BAS[ATNO][  2].d[ 21] =         0.052326742688;
  BAS[ATNO][  2].a[ 22] =    145700.000000000000;     BAS[ATNO][  2].d[ 22] =         0.000043986500;
  BAS[ATNO][  2].a[ 23] =     21840.000000000000;     BAS[ATNO][  2].d[ 23] =         0.000339768477;
  BAS[ATNO][  2].a[ 24] =      4972.000000000000;     BAS[ATNO][  2].d[ 24] =         0.001787957806;
  BAS[ATNO][  2].a[ 25] =      1408.000000000000;     BAS[ATNO][  2].d[ 25] =         0.007309834589;
  BAS[ATNO][  2].a[ 26] =       459.700000000000;     BAS[ATNO][  2].d[ 26] =         0.025113167734;
  BAS[ATNO][  2].a[ 27] =       165.900000000000;     BAS[ATNO][  2].d[ 27] =         0.067167419758;
  BAS[ATNO][  2].a[ 28] =        64.690000000000;     BAS[ATNO][  2].d[ 28] =         0.136956385363;
  BAS[ATNO][  2].a[ 29] =        26.440000000000;     BAS[ATNO][  2].d[ 29] =         0.104370672887;
  BAS[ATNO][  2].a[ 30] =         7.628000000000;     BAS[ATNO][  2].d[ 30] =        -0.480227990040;
  BAS[ATNO][  2].a[ 31] =         2.996000000000;     BAS[ATNO][  2].d[ 31] =        -0.879922292279;
  BAS[ATNO][  2].a[ 32] =         0.650400000000;     BAS[ATNO][  2].d[ 32] =         1.342501926152;
  BAS[ATNO][  2].a[ 33] =         0.233700000000;     BAS[ATNO][  2].d[ 33] =        -0.337798897608;
  BAS[ATNO][  2].a[ 34] =         9.548000000000;     BAS[ATNO][  2].d[ 34] =        -0.704309120972;

  // Basis function   4 L = s
  InitBFNGauss(BAS[ATNO][  3]);
  BAS[ATNO][  3].l  = 0;
  BAS[ATNO][  3].ng = 35;
  BAS[ATNO][  3].a[  0] =    145700.000000000000;     BAS[ATNO][  3].d[  0] =        -0.000101302167;
  BAS[ATNO][  3].a[  1] =     21840.000000000000;     BAS[ATNO][  3].d[  1] =        -0.000785436315;
  BAS[ATNO][  3].a[  2] =      4972.000000000000;     BAS[ATNO][  3].d[  2] =        -0.004078022083;
  BAS[ATNO][  3].a[  3] =      1408.000000000000;     BAS[ATNO][  3].d[  3] =        -0.016532025735;
  BAS[ATNO][  3].a[  4] =       459.700000000000;     BAS[ATNO][  3].d[  4] =        -0.053103819873;
  BAS[ATNO][  3].a[  5] =       165.900000000000;     BAS[ATNO][  3].d[  5] =        -0.126882782872;
  BAS[ATNO][  3].a[  6] =        64.690000000000;     BAS[ATNO][  3].d[  6] =        -0.180635415947;
  BAS[ATNO][  3].a[  7] =        26.440000000000;     BAS[ATNO][  3].d[  7] =        -0.103446759821;
  BAS[ATNO][  3].a[  8] =         7.628000000000;     BAS[ATNO][  3].d[  8] =        -0.008581324956;
  BAS[ATNO][  3].a[  9] =         2.996000000000;     BAS[ATNO][  3].d[  9] =         0.001544997137;
  BAS[ATNO][  3].a[ 10] =         0.650400000000;     BAS[ATNO][  3].d[ 10] =        -0.000417537402;
  BAS[ATNO][  3].a[ 11] =    145700.000000000000;     BAS[ATNO][  3].d[ 11] =         0.000094059486;
  BAS[ATNO][  3].a[ 12] =     21840.000000000000;     BAS[ATNO][  3].d[ 12] =         0.000722643208;
  BAS[ATNO][  3].a[ 13] =      4972.000000000000;     BAS[ATNO][  3].d[ 13] =         0.003830125231;
  BAS[ATNO][  3].a[ 14] =      1408.000000000000;     BAS[ATNO][  3].d[ 14] =         0.015470598072;
  BAS[ATNO][  3].a[ 15] =       459.700000000000;     BAS[ATNO][  3].d[ 15] =         0.053630812023;
  BAS[ATNO][  3].a[ 16] =       165.900000000000;     BAS[ATNO][  3].d[ 16] =         0.139031350874;
  BAS[ATNO][  3].a[ 17] =        64.690000000000;     BAS[ATNO][  3].d[ 17] =         0.283035558238;
  BAS[ATNO][  3].a[ 18] =        26.440000000000;     BAS[ATNO][  3].d[ 18] =         0.188991402651;
  BAS[ATNO][  3].a[ 19] =         7.628000000000;     BAS[ATNO][  3].d[ 19] =        -0.706857224259;
  BAS[ATNO][  3].a[ 20] =         2.996000000000;     BAS[ATNO][  3].d[ 20] =        -0.854171234011;
  BAS[ATNO][  3].a[ 21] =         0.650400000000;     BAS[ATNO][  3].d[ 21] =        -0.061734664363;
  BAS[ATNO][  3].a[ 22] =    145700.000000000000;     BAS[ATNO][  3].d[ 22] =        -0.000042620467;
  BAS[ATNO][  3].a[ 23] =     21840.000000000000;     BAS[ATNO][  3].d[ 23] =        -0.000329216719;
  BAS[ATNO][  3].a[ 24] =      4972.000000000000;     BAS[ATNO][  3].d[ 24] =        -0.001732431469;
  BAS[ATNO][  3].a[ 25] =      1408.000000000000;     BAS[ATNO][  3].d[ 25] =        -0.007082822333;
  BAS[ATNO][  3].a[ 26] =       459.700000000000;     BAS[ATNO][  3].d[ 26] =        -0.024333259953;
  BAS[ATNO][  3].a[ 27] =       165.900000000000;     BAS[ATNO][  3].d[ 27] =        -0.065081486438;
  BAS[ATNO][  3].a[ 28] =        64.690000000000;     BAS[ATNO][  3].d[ 28] =        -0.132703104701;
  BAS[ATNO][  3].a[ 29] =        26.440000000000;     BAS[ATNO][  3].d[ 29] =        -0.101129365346;
  BAS[ATNO][  3].a[ 30] =         7.628000000000;     BAS[ATNO][  3].d[ 30] =         0.465314158764;
  BAS[ATNO][  3].a[ 31] =         2.996000000000;     BAS[ATNO][  3].d[ 31] =         0.852595662273;
  BAS[ATNO][  3].a[ 32] =         0.650400000000;     BAS[ATNO][  3].d[ 32] =        -1.300809547473;
  BAS[ATNO][  3].a[ 33] =         0.233700000000;     BAS[ATNO][  3].d[ 33] =         1.783302067904;
  BAS[ATNO][  3].a[ 34] =         9.548000000000;     BAS[ATNO][  3].d[ 34] =         0.519736451045;

  // Basis function   5 L = s
  InitBFNGauss(BAS[ATNO][  4]);
  BAS[ATNO][  4].l  = 0;
  BAS[ATNO][  4].ng = 35;
  BAS[ATNO][  4].a[  0] =    145700.000000000000;     BAS[ATNO][  4].d[  0] =        -0.000372127825;
  BAS[ATNO][  4].a[  1] =     21840.000000000000;     BAS[ATNO][  4].d[  1] =        -0.002885256227;
  BAS[ATNO][  4].a[  2] =      4972.000000000000;     BAS[ATNO][  4].d[  2] =        -0.014980385285;
  BAS[ATNO][  4].a[  3] =      1408.000000000000;     BAS[ATNO][  4].d[  3] =        -0.060729468853;
  BAS[ATNO][  4].a[  4] =       459.700000000000;     BAS[ATNO][  4].d[  4] =        -0.195073902418;
  BAS[ATNO][  4].a[  5] =       165.900000000000;     BAS[ATNO][  4].d[  5] =        -0.466096782939;
  BAS[ATNO][  4].a[  6] =        64.690000000000;     BAS[ATNO][  4].d[  6] =        -0.663554064247;
  BAS[ATNO][  4].a[  7] =        26.440000000000;     BAS[ATNO][  4].d[  7] =        -0.380005867356;
  BAS[ATNO][  4].a[  8] =         7.628000000000;     BAS[ATNO][  4].d[  8] =        -0.031523015691;
  BAS[ATNO][  4].a[  9] =         2.996000000000;     BAS[ATNO][  4].d[  9] =         0.005675460286;
  BAS[ATNO][  4].a[ 10] =         0.650400000000;     BAS[ATNO][  4].d[ 10] =        -0.001533800217;
  BAS[ATNO][  4].a[ 11] =    145700.000000000000;     BAS[ATNO][  4].d[ 11] =         0.000098130294;
  BAS[ATNO][  4].a[ 12] =     21840.000000000000;     BAS[ATNO][  4].d[ 12] =         0.000753918538;
  BAS[ATNO][  4].a[ 13] =      4972.000000000000;     BAS[ATNO][  4].d[ 13] =         0.003995889515;
  BAS[ATNO][  4].a[ 14] =      1408.000000000000;     BAS[ATNO][  4].d[ 14] =         0.016140151274;
  BAS[ATNO][  4].a[ 15] =       459.700000000000;     BAS[ATNO][  4].d[ 15] =         0.055951904054;
  BAS[ATNO][  4].a[ 16] =       165.900000000000;     BAS[ATNO][  4].d[ 16] =         0.145048499382;
  BAS[ATNO][  4].a[ 17] =        64.690000000000;     BAS[ATNO][  4].d[ 17] =         0.295285075891;
  BAS[ATNO][  4].a[ 18] =        26.440000000000;     BAS[ATNO][  4].d[ 18] =         0.197170776075;
  BAS[ATNO][  4].a[ 19] =         7.628000000000;     BAS[ATNO][  4].d[ 19] =        -0.737449352334;
  BAS[ATNO][  4].a[ 20] =         2.996000000000;     BAS[ATNO][  4].d[ 20] =        -0.891138976423;
  BAS[ATNO][  4].a[ 21] =         0.650400000000;     BAS[ATNO][  4].d[ 21] =        -0.064406483641;
  BAS[ATNO][  4].a[ 22] =    145700.000000000000;     BAS[ATNO][  4].d[ 22] =         0.000061793579;
  BAS[ATNO][  4].a[ 23] =     21840.000000000000;     BAS[ATNO][  4].d[ 23] =         0.000477317132;
  BAS[ATNO][  4].a[ 24] =      4972.000000000000;     BAS[ATNO][  4].d[ 24] =         0.002511777721;
  BAS[ATNO][  4].a[ 25] =      1408.000000000000;     BAS[ATNO][  4].d[ 25] =         0.010269078840;
  BAS[ATNO][  4].a[ 26] =       459.700000000000;     BAS[ATNO][  4].d[ 26] =         0.035279744874;
  BAS[ATNO][  4].a[ 27] =       165.900000000000;     BAS[ATNO][  4].d[ 27] =         0.094358842260;
  BAS[ATNO][  4].a[ 28] =        64.690000000000;     BAS[ATNO][  4].d[ 28] =         0.192400512178;
  BAS[ATNO][  4].a[ 29] =        26.440000000000;     BAS[ATNO][  4].d[ 29] =         0.146623108273;
  BAS[ATNO][  4].a[ 30] =         7.628000000000;     BAS[ATNO][  4].d[ 30] =        -0.674638944366;
  BAS[ATNO][  4].a[ 31] =         2.996000000000;     BAS[ATNO][  4].d[ 31] =        -1.236141704981;
  BAS[ATNO][  4].a[ 32] =         0.650400000000;     BAS[ATNO][  4].d[ 32] =         1.885987699705;
  BAS[ATNO][  4].a[ 33] =         0.233700000000;     BAS[ATNO][  4].d[ 33] =        -0.920404173062;
  BAS[ATNO][  4].a[ 34] =         9.548000000000;     BAS[ATNO][  4].d[ 34] =         3.036509555986;

  // Basis function   6 L = p
  InitBFNGauss(BAS[ATNO][  5]);
  BAS[ATNO][  5].l  = 1;
  BAS[ATNO][  5].ng = 16;
  BAS[ATNO][  5].a[  0] =       453.700000000000;     BAS[ATNO][  5].d[  0] =         0.007767198123;
  BAS[ATNO][  5].a[  1] =       106.800000000000;     BAS[ATNO][  5].d[  1] =         0.058600276990;
  BAS[ATNO][  5].a[  2] =        33.730000000000;     BAS[ATNO][  5].d[  2] =         0.240400536961;
  BAS[ATNO][  5].a[  3] =        12.130000000000;     BAS[ATNO][  5].d[  3] =         0.553879210546;
  BAS[ATNO][  5].a[  4] =         4.594000000000;     BAS[ATNO][  5].d[  4] =         0.616073427304;
  BAS[ATNO][  5].a[  5] =         1.678000000000;     BAS[ATNO][  5].d[  5] =         0.167174014187;
  BAS[ATNO][  5].a[  6] =         0.590900000000;     BAS[ATNO][  5].d[  6] =        -0.006071525609;
  BAS[ATNO][  5].a[  7] =       453.700000000000;     BAS[ATNO][  5].d[  7] =         0.000239571636;
  BAS[ATNO][  5].a[  8] =       106.800000000000;     BAS[ATNO][  5].d[  8] =         0.001815021140;
  BAS[ATNO][  5].a[  9] =        33.730000000000;     BAS[ATNO][  5].d[  9] =         0.007766099580;
  BAS[ATNO][  5].a[ 10] =        12.130000000000;     BAS[ATNO][  5].d[ 10] =         0.018451884809;
  BAS[ATNO][  5].a[ 11] =         4.594000000000;     BAS[ATNO][  5].d[ 11] =         0.022609698981;
  BAS[ATNO][  5].a[ 12] =         1.678000000000;     BAS[ATNO][  5].d[ 12] =        -0.021238673104;
  BAS[ATNO][  5].a[ 13] =         0.590900000000;     BAS[ATNO][  5].d[ 13] =        -0.087161844256;
  BAS[ATNO][  5].a[ 14] =         0.185200000000;     BAS[ATNO][  5].d[ 14] =         0.033348103803;
  BAS[ATNO][  5].a[ 15] =         4.361000000000;     BAS[ATNO][  5].d[ 15] =        -0.439326342405;

  // Basis function   7 L = p
  InitBFNGauss(BAS[ATNO][  6]);
  BAS[ATNO][  6].l  = 1;
  BAS[ATNO][  6].ng = 16;
  BAS[ATNO][  6].a[  0] =       453.700000000000;     BAS[ATNO][  6].d[  0] =        -0.004421383071;
  BAS[ATNO][  6].a[  1] =       106.800000000000;     BAS[ATNO][  6].d[  1] =        -0.033357495016;
  BAS[ATNO][  6].a[  2] =        33.730000000000;     BAS[ATNO][  6].d[  2] =        -0.136845082059;
  BAS[ATNO][  6].a[  3] =        12.130000000000;     BAS[ATNO][  6].d[  3] =        -0.315289004660;
  BAS[ATNO][  6].a[  4] =         4.594000000000;     BAS[ATNO][  6].d[  4] =        -0.350692306181;
  BAS[ATNO][  6].a[  5] =         1.678000000000;     BAS[ATNO][  6].d[  5] =        -0.095161774507;
  BAS[ATNO][  6].a[  6] =         0.590900000000;     BAS[ATNO][  6].d[  6] =         0.003456142115;
  BAS[ATNO][  6].a[  7] =       453.700000000000;     BAS[ATNO][  6].d[  7] =        -0.001951214531;
  BAS[ATNO][  6].a[  8] =       106.800000000000;     BAS[ATNO][  6].d[  8] =        -0.014782616501;
  BAS[ATNO][  6].a[  9] =        33.730000000000;     BAS[ATNO][  6].d[  9] =        -0.063251754647;
  BAS[ATNO][  6].a[ 10] =        12.130000000000;     BAS[ATNO][  6].d[ 10] =        -0.150283173506;
  BAS[ATNO][  6].a[ 11] =         4.594000000000;     BAS[ATNO][  6].d[ 11] =        -0.184146896109;
  BAS[ATNO][  6].a[ 12] =         1.678000000000;     BAS[ATNO][  6].d[ 12] =         0.172980442282;
  BAS[ATNO][  6].a[ 13] =         0.590900000000;     BAS[ATNO][  6].d[ 13] =         0.709898132311;
  BAS[ATNO][  6].a[ 14] =         0.185200000000;     BAS[ATNO][  6].d[ 14] =        -0.223206262246;
  BAS[ATNO][  6].a[ 15] =         4.361000000000;     BAS[ATNO][  6].d[ 15] =         1.168942460992;

  // Basis function   8 L = p
  InitBFNGauss(BAS[ATNO][  7]);
  BAS[ATNO][  7].l  = 1;
  BAS[ATNO][  7].ng = 16;
  BAS[ATNO][  7].a[  0] =       453.700000000000;     BAS[ATNO][  7].d[  0] =        -0.008486153291;
  BAS[ATNO][  7].a[  1] =       106.800000000000;     BAS[ATNO][  7].d[  1] =        -0.064024494495;
  BAS[ATNO][  7].a[  2] =        33.730000000000;     BAS[ATNO][  7].d[  2] =        -0.262652732133;
  BAS[ATNO][  7].a[  3] =        12.130000000000;     BAS[ATNO][  7].d[  3] =        -0.605147932534;
  BAS[ATNO][  7].a[  4] =         4.594000000000;     BAS[ATNO][  7].d[  4] =        -0.673099032648;
  BAS[ATNO][  7].a[  5] =         1.678000000000;     BAS[ATNO][  7].d[  5] =        -0.182648142650;
  BAS[ATNO][  7].a[  6] =         0.590900000000;     BAS[ATNO][  7].d[  6] =         0.006633524241;
  BAS[ATNO][  7].a[  7] =       453.700000000000;     BAS[ATNO][  7].d[  7] =         0.001295112961;
  BAS[ATNO][  7].a[  8] =       106.800000000000;     BAS[ATNO][  7].d[  8] =         0.009811918645;
  BAS[ATNO][  7].a[  9] =        33.730000000000;     BAS[ATNO][  7].d[  9] =         0.041983167911;
  BAS[ATNO][  7].a[ 10] =        12.130000000000;     BAS[ATNO][  7].d[ 10] =         0.099750018679;
  BAS[ATNO][  7].a[ 11] =         4.594000000000;     BAS[ATNO][  7].d[ 11] =         0.122226965921;
  BAS[ATNO][  7].a[ 12] =         1.678000000000;     BAS[ATNO][  7].d[ 12] =        -0.114815264718;
  BAS[ATNO][  7].a[ 13] =         0.590900000000;     BAS[ATNO][  7].d[ 13] =        -0.471192817574;
  BAS[ATNO][  7].a[ 14] =         0.185200000000;     BAS[ATNO][  7].d[ 14] =        -0.383431334752;
  BAS[ATNO][  7].a[ 15] =         4.361000000000;     BAS[ATNO][  7].d[ 15] =         1.734313906688;

  // Basis function   9 L = p
  InitBFNGauss(BAS[ATNO][  8]);
  BAS[ATNO][  8].l  = 1;
  BAS[ATNO][  8].ng = 16;
  BAS[ATNO][  8].a[  0] =       453.700000000000;     BAS[ATNO][  8].d[  0] =        -0.007028384174;
  BAS[ATNO][  8].a[  1] =       106.800000000000;     BAS[ATNO][  8].d[  1] =        -0.053026233255;
  BAS[ATNO][  8].a[  2] =        33.730000000000;     BAS[ATNO][  8].d[  2] =        -0.217533697828;
  BAS[ATNO][  8].a[  3] =        12.130000000000;     BAS[ATNO][  8].d[  3] =        -0.501194358146;
  BAS[ATNO][  8].a[  4] =         4.594000000000;     BAS[ATNO][  8].d[  4] =        -0.557472676515;
  BAS[ATNO][  8].a[  5] =         1.678000000000;     BAS[ATNO][  8].d[  5] =        -0.151272463642;
  BAS[ATNO][  8].a[  6] =         0.590900000000;     BAS[ATNO][  8].d[  6] =         0.005494003607;
  BAS[ATNO][  8].a[  7] =       453.700000000000;     BAS[ATNO][  8].d[  7] =         0.002274303618;
  BAS[ATNO][  8].a[  8] =       106.800000000000;     BAS[ATNO][  8].d[  8] =         0.017230375064;
  BAS[ATNO][  8].a[  9] =        33.730000000000;     BAS[ATNO][  8].d[  9] =         0.073725206626;
  BAS[ATNO][  8].a[ 10] =        12.130000000000;     BAS[ATNO][  8].d[ 10] =         0.175167599399;
  BAS[ATNO][  8].a[ 11] =         4.594000000000;     BAS[ATNO][  8].d[ 11] =         0.214638598424;
  BAS[ATNO][  8].a[ 12] =         1.678000000000;     BAS[ATNO][  8].d[ 12] =        -0.201623163196;
  BAS[ATNO][  8].a[ 13] =         0.590900000000;     BAS[ATNO][  8].d[ 13] =        -0.827445606538;
  BAS[ATNO][  8].a[ 14] =         0.185200000000;     BAS[ATNO][  8].d[ 14] =         1.231422999366;
  BAS[ATNO][  8].a[ 15] =         4.361000000000;     BAS[ATNO][  8].d[ 15] =         1.224758105232;

  // Basis function  10 L = d
  InitBFNGauss(BAS[ATNO][  9]);
  BAS[ATNO][  9].l  = 2;
  BAS[ATNO][  9].ng = 2;
  BAS[ATNO][  9].a[  0] =         0.738000000000;     BAS[ATNO][  9].d[  0] =         0.893154699608;
  BAS[ATNO][  9].a[  1] =        11.459000000000;     BAS[ATNO][  9].d[  1] =         0.387820963125;

  // Basis function  11 L = d
  InitBFNGauss(BAS[ATNO][ 10]);
  BAS[ATNO][ 10].l  = 2;
  BAS[ATNO][ 10].ng = 2;
  BAS[ATNO][ 10].a[  0] =         0.738000000000;     BAS[ATNO][ 10].d[  0] =        -0.455973947950;
  BAS[ATNO][ 10].a[  1] =        11.459000000000;     BAS[ATNO][ 10].d[  1] =         0.924787791443;

-------
TIMINGS
-------

Total SCF time: 0 days 0 hours 0 min 1 sec 

Total time                  ....       1.631 sec
Sum of individual times     ....       1.450 sec  ( 88.9%)

Fock matrix formation       ....       0.983 sec  ( 60.3%)
  XC integration            ....       0.023 sec  (  2.3% of F)
    Basis function eval.    ....       0.004 sec  ( 17.9% of XC)
    Density eval.           ....       0.001 sec  (  4.0% of XC)
    XC-Functional eval.     ....       0.002 sec  (  7.0% of XC)
    XC-Potential eval.      ....       0.001 sec  (  2.3% of XC)
Diagonalization             ....       0.001 sec  (  0.0%)
Density matrix formation    ....       0.000 sec  (  0.0%)
Population analysis         ....       0.001 sec  (  0.0%)
Initial guess               ....       0.091 sec  (  5.6%)
Orbital Transformation      ....       0.000 sec  (  0.0%)
Orbital Orthonormalization  ....       0.000 sec  (  0.0%)
DIIS solution               ....       0.000 sec  (  0.0%)
SOSCF solution              ....       0.000 sec  (  0.0%)
Grid generation             ....       0.373 sec  ( 22.9%)

-------------------------   --------------------
FINAL SINGLE POINT ENERGY      -314.170593031632
-------------------------   --------------------


                            ***************************************
                            *     ORCA property calculations      *
                            ***************************************

                                    ---------------------
                                    Active property flags
                                    ---------------------
   (+) Dipole Moment


------------------------------------------------------------------------------
                       ORCA ELECTRIC PROPERTIES CALCULATION
------------------------------------------------------------------------------

Dipole Moment Calculation                       ... on
Quadrupole Moment Calculation                   ... off
Polarizability Calculation                      ... off
GBWName                                         ... Ar_cc-pcvdz_137.035989_.gbw
Electron density file                           ... Ar_cc-pcvdz_137.035989_.scfp
The origin for moment calculation is the CENTER OF MASS  = ( 0.000000,  0.000000  0.000000)

-------------
DIPOLE MOMENT
-------------
                                X             Y             Z
Electronic contribution:     -0.00000       0.00000      -0.00000
Nuclear contribution   :      0.00000       0.00000       0.00000
                        -----------------------------------------
Total Dipole Moment    :     -0.00000       0.00000      -0.00000
                        -----------------------------------------
Magnitude (a.u.)       :      0.00000
Magnitude (Debye)      :      0.00000



--------------------
Rotational spectrum 
--------------------
 
Rotational constants in cm-1:     0.000000     0.000000     0.000000 
Rotational constants in MHz :     0.000000     0.000000     0.000000 

 Dipole components along the rotational axes: 
x,y,z [a.u.] :    -0.000000     0.000000    -0.000000 
x,y,z [Debye]:    -0.000000     0.000000    -0.000000 

 

Timings for individual modules:

Sum of individual times         ...        2.760 sec (=   0.046 min)
GTO integral calculation        ...        0.518 sec (=   0.009 min)  18.8 %
Relativistic integrals          ...        0.380 sec (=   0.006 min)  13.8 %
SCF iterations                  ...        1.861 sec (=   0.031 min)  67.4 %
                             ****ORCA TERMINATED NORMALLY****
TOTAL RUN TIME: 0 days 0 hours 0 minutes 3 seconds 66 msec
