
                                 *****************
                                 * O   R   C   A *
                                 *****************

           --- An Ab Initio, DFT and Semiempirical electronic structure package ---

                  #######################################################
                  #                        -***-                        #
                  #          Department of theory and spectroscopy      #
                  #               Directorship: Frank Neese             #
                  #        Max Planck Institute fuer Kohlenforschung    #
                  #                Kaiser Wilhelm Platz 1               #
                  #                 D-45470 Muelheim/Ruhr               #
                  #                      Germany                        #
                  #                                                     #
                  #                  All rights reserved                #
                  #                        -***-                        #
                  #######################################################


                         Program Version 4.2.1 -  RELEASE  -


 With contributions from (in alphabetic order):
   Daniel Aravena         : Magnetic Suceptibility
   Michael Atanasov       : Ab Initio Ligand Field Theory (pilot matlab implementation)
   Alexander A. Auer      : GIAO ZORA, VPT2
   Ute Becker             : Parallelization
   Giovanni Bistoni       : ED, misc. LED, open-shell LED, HFLD
   Martin Brehm           : Molecular dynamics
   Dmytro Bykov           : SCF Hessian
   Vijay G. Chilkuri      : MRCI spin determinant printing, contributions to CSF-ICE
   Dipayan Datta          : RHF DLPNO-CCSD density
   Achintya Kumar Dutta   : EOM-CC, STEOM-CC
   Dmitry Ganyushin       : Spin-Orbit,Spin-Spin,Magnetic field MRCI
   Miquel Garcia          : C-PCM Hessian, Gaussian charge scheme
   Yang Guo               : DLPNO-NEVPT2, CIM, IAO-localization
   Andreas Hansen         : Spin unrestricted coupled pair/coupled cluster methods
   Benjamin Helmich-Paris : CASSCF linear response (MC-RPA)
   Lee Huntington         : MR-EOM, pCC
   Robert Izsak           : Overlap fitted RIJCOSX, COSX-SCS-MP3, EOM
   Christian Kollmar      : KDIIS, OOCD, Brueckner-CCSD(T), CCSD density
   Simone Kossmann        : Meta GGA functionals, TD-DFT gradient, OOMP2, MP2 Hessian
   Martin Krupicka        : AUTO-CI
   Lucas Lang             : DCDCAS
   Dagmar Lenk            : GEPOL surface, SMD
   Dimitrios Liakos       : Extrapolation schemes; Compound Job, initial MDCI parallelization
   Dimitrios Manganas     : Further ROCIS development; embedding schemes
   Dimitrios Pantazis     : SARC Basis sets
   Taras Petrenko         : DFT Hessian,TD-DFT gradient, ASA, ECA, R-Raman, ABS, FL, XAS/XES, NRVS
   Peter Pinski           : DLPNO-MP2, DLPNO-MP2 Gradient
   Christoph Reimann      : Effective Core Potentials
   Marius Retegan         : Local ZFS, SOC
   Christoph Riplinger    : Optimizer, TS searches, QM/MM, DLPNO-CCSD(T), (RO)-DLPNO pert. Triples
   Tobias Risthaus        : Range-separated hybrids, TD-DFT gradient, RPA, STAB
   Michael Roemelt        : Original ROCIS implementation
   Masaaki Saitow         : Open-shell DLPNO-CCSD energy and density
   Barbara Sandhoefer     : DKH picture change effects
   Avijit Sen             : IP-ROCIS
   Kantharuban Sivalingam : CASSCF convergence, NEVPT2, FIC-MRCI
   Bernardo de Souza      : ESD, SOC TD-DFT
   Georgi Stoychev        : AutoAux, RI-MP2 NMR
   Willem Van den Heuvel  : Paramagnetic NMR
   Boris Wezisla          : Elementary symmetry handling
   Frank Wennmohs         : Technical directorship


 We gratefully acknowledge several colleagues who have allowed us to
 interface, adapt or use parts of their codes:
   Stefan Grimme, W. Hujo, H. Kruse,             : VdW corrections, initial TS optimization,
                  C. Bannwarth                     DFT functionals, gCP, sTDA/sTD-DF
   Ed Valeev, F. Pavosevic, A. Kumar             : LibInt (2-el integral package), F12 methods
   Garnet Chan, S. Sharma, J. Yang, R. Olivares  : DMRG
   Ulf Ekstrom                                   : XCFun DFT Library
   Mihaly Kallay                                 : mrcc  (arbitrary order and MRCC methods)
   Andreas Klamt, Michael Diedenhofen            : otool_cosmo (COSMO solvation model)
   Jiri Pittner, Ondrej Demel                    : Mk-CCSD
   Frank Weinhold                                : gennbo (NPA and NBO analysis)
   Christopher J. Cramer and Donald G. Truhlar   : smd solvation model
   Lars Goerigk                                  : TD-DFT with DH, B97 family of functionals
   V. Asgeirsson, H. Jonsson                     : NEB implementation
   FAccTs GmbH                                   : IRC, NEB, NEB-TS, Multilevel, MM, QM/MM, CI optimization
   S Lehtola, MJT Oliveira, MAL Marques          : LibXC Library


 Your calculation uses the libint2 library for the computation of 2-el integrals
 For citations please refer to: http://libint.valeyev.net

 Your ORCA version has been built with support for libXC version: 4.2.3
 For citations please refer to: https://tddft.org/programs/libxc/

 This ORCA versions uses:
   CBLAS   interface :  Fast vector & matrix operations
   LAPACKE interface :  Fast linear algebra routines
   SCALAPACK package :  Parallel linear algebra routines


----- Orbital basis set information -----
Your calculation utilizes the basis: cc-pCVTZ 
             H : cc-pVTZ. Obtained from the ccRepo (grant-hill.group.shef.ac.uk/ccrepo) Feb. 2017
                 T. H. Dunning, Jr., J. Chem. Phys. 90, 1007 (1989)
            He : cc-pVTZ. Obtained from the ccRepo (grant-hill.group.shef.ac.uk/ccrepo) Feb. 2017
                 D. E. Woon, T. H. Dunning, Jr., J. Chem. Phys. 100, 2975 (1994)
  Li-Be, Na-Mg : Obtained from the ccRepo (grant-hill.group.shef.ac.uk/ccrepo) Feb. 2017
                 B. P. Prascher, D. E. Woon, K. A. Peterson, T. H. Dunning, Jr., A. K. Wilson, Theor. Chem. Acc. 128, 69 (2011)
          B-Ne : Obtained from the ccRepo (grant-hill.group.shef.ac.uk/ccrepo) Feb. 2017
                 D. E. Woon, T. H. Dunning, Jr., J. Chem. Phys. 103, 4572 (1995)
                  K. A. Peterson, T. H. Dunning, Jr., J. Chem. Phys. 117, 10548 (2002)
         Al-Ar : Obtained from the EMSL Basis Set Exchange (bse.pnl.gov) Feb. 2017
                 K. A. Peterson, T. H. Dunning, Jr., J. Chem. Phys. 117, 10548 (2002)
            Ca : Obtained from the Peterson Research Group Website (tyr0.chem.wsu.edu/~kipeters) Feb. 2017
                 J. Koput, K. A. Peterson, J. Phys. Chem. 106, 9595 (2002)
         Ga-Kr : Obtained from the Peterson Research Group Website (tyr0.chem.wsu.edu/~kipeters) Feb. 2017
                 N. J. DeYonker, K. A. Peterson, A. K. Wilson, J. Phys. Chem. A 111, 11383 (2007)

================================================================================
                                        WARNINGS
                       Please study these warnings very carefully!
================================================================================


INFO   : the flag for use of LIBINT has been found!

================================================================================
                                       INPUT FILE
================================================================================
NAME = Ar_cc-pcvtz_2192.575824_.inp
|  1> ! LDA cc-pcvtz nori grid5 finalgrid6 verytightscf
|  2> %Pal NProcs 18 End
|  3> 
|  4> % REL
|  5>   Method ZORA
|  6>   ModelPot 1, 0, 0, 0
|  7>   velit 2192.575824
|  8> END
|  9> 
| 10> *xyz 16 1
| 11> Ar 0.0 0.0 0.0
| 12> **                         ****END OF INPUT****
================================================================================

                       ****************************
                       * Single Point Calculation *
                       ****************************

---------------------------------
CARTESIAN COORDINATES (ANGSTROEM)
---------------------------------
  Ar     0.000000    0.000000    0.000000

----------------------------
CARTESIAN COORDINATES (A.U.)
----------------------------
  NO LB      ZA    FRAG     MASS         X           Y           Z
   0 Ar   18.0000    0    39.948    0.000000    0.000000    0.000000

--------------------------------
INTERNAL COORDINATES (ANGSTROEM)
--------------------------------
 Ar     0   0   0     0.000000000000     0.00000000     0.00000000

---------------------------
INTERNAL COORDINATES (A.U.)
---------------------------
 Ar     0   0   0     0.000000000000     0.00000000     0.00000000

---------------------
BASIS SET INFORMATION
---------------------
There are 1 groups of distinct atoms

 Group   1 Type Ar  : 43s18p4d2f contracted to 7s6p4d2f pattern {1313131111/771111/1111/11}

Atom   0Ar   basis set group =>   1


           ************************************************************
           *        Program running with 18 parallel MPI-processes    *
           *              working on a common directory               *
           ************************************************************
------------------------------------------------------------------------------
                           ORCA GTO INTEGRAL CALCULATION
------------------------------------------------------------------------------

                         BASIS SET STATISTICS AND STARTUP INFO

 # of primitive gaussian shells          ...   67
 # of primitive gaussian functions       ...  131
 # of contracted shells                  ...   19
 # of contracted basis functions         ...   59
 Highest angular momentum                ...    3
 Maximum contraction depth               ...   13
 Integral package used                   ... LIBINT
 Integral threshhold            Thresh   ...  1.000e-12
 Primitive cut-off              TCut     ...  1.000e-14


------------------------------ INTEGRAL EVALUATION ----------------------------


 * One electron integrals 
 Pre-screening matrix                    ... done
 Shell pair data                         ... done (   0.000 sec)



           ************************************************************
           *        Program running with 18 parallel MPI-processes    *
           *              working on a common directory               *
           ************************************************************
------------------------------------------------------------------------------
                          ORCA RELATIVISTIC HAMILTONIAN
------------------------------------------------------------------------------

Relativistic Method            ... ZORA(MP)
Treatment of potential         ... Van Wuellen
Nucleus model                  ... Point Nucleus
Speed of light used            ... 2192.57582400000001


            *************************************************
            *         ZERO ORDER REGULAR APPROXIMATION      *
            *                     ZORA(MP)                  *
            *            Programmed by FN according to      *
            *                   C. van Wuellen              *
            *       J. Chem. Phys. (1998) vol 109, 392-399  *
            *************************************************

Terms included in model potential: +V(e,N)
Basis function cutoff value   ... 1.000000e-12
Loading the fitted atomic densities  (DKH4)  ... done
Calculating the cutoffs                      ... done
Number of fit functions                      ... 15
Setting up the integration grid ... done


           ************************************************************
           *        Program running with 18 parallel MPI-processes    *
           *              working on a common directory               *
           ************************************************************
-------------------------------------------------------------------------------
                                 ORCA SCF
-------------------------------------------------------------------------------

------------
SCF SETTINGS
------------
Hamiltonian:
 Density Functional     Method          .... DFT(GTOs)
 Exchange Functional    Exchange        .... Slater
   X-Alpha parameter    XAlpha          ....  0.666667
 Correlation Functional Correlation     .... VWN-5
 Gradients option       PostSCFGGA      .... off
   Density functional embedding theory  .... OFF

Relativistic Settings:
 Scalar relativistic method             .... ZORA
 Speed of light used       Velit        ....       2192.57582
Orbital energies will be scaled


General Settings:
 Integral files         IntName         .... Ar_cc-pcvtz_2192.575824_
 Hartree-Fock type      HFTyp           .... RHF
 Total Charge           Charge          ....   16
 Multiplicity           Mult            ....    1
 Number of Electrons    NEL             ....    2
 Basis Dimension        Dim             ....   59
 Nuclear Repulsion      ENuc            ....      0.0000000000 Eh

Convergence Acceleration:
 DIIS                   CNVDIIS         .... on
   Start iteration      DIISMaxIt       ....    12
   Startup error        DIISStart       ....  0.200000
   # of expansion vecs  DIISMaxEq       ....     5
   Bias factor          DIISBfac        ....   1.050
   Max. coefficient     DIISMaxC        ....  10.000
 Newton-Raphson         CNVNR           .... off
 SOSCF                  CNVSOSCF        .... on
   Start iteration      SOSCFMaxIt      ....   150
   Startup grad/error   SOSCFStart      ....  0.003300
 Level Shifting         CNVShift        .... on
   Level shift para.    LevelShift      ....    0.2500
   Turn off err/grad.   ShiftErr        ....    0.0010
 Zerner damping         CNVZerner       .... off
 Static damping         CNVDamp         .... on
   Fraction old density DampFac         ....    0.7000
   Max. Damping (<1)    DampMax         ....    0.9800
   Min. Damping (>=0)   DampMin         ....    0.0000
   Turn off err/grad.   DampErr         ....    0.1000
 Fernandez-Rico         CNVRico         .... off

SCF Procedure:
 Maximum # iterations   MaxIter         ....   125
 SCF integral mode      SCFMode         .... Direct
   Integral package                     .... LIBINT
 Reset frequency        DirectResetFreq ....    20
 Integral Threshold     Thresh          ....  1.000e-12 Eh
 Primitive CutOff       TCut            ....  1.000e-14 Eh

Convergence Tolerance:
 Convergence Check Mode ConvCheckMode   .... Total+1el-Energy
 Convergence forced     ConvForced      .... 0
 Energy Change          TolE            ....  1.000e-09 Eh
 1-El. energy change                    ....  1.000e-06 Eh
 Orbital Gradient       TolG            ....  2.000e-06
 Orbital Rotation angle TolX            ....  2.000e-06
 DIIS Error             TolErr          ....  1.000e-08


Diagonalization of the overlap matrix:
Smallest eigenvalue                        ... 2.200e-03
Time for diagonalization                   ...    0.001 sec
Threshold for overlap eigenvalues          ... 1.000e-08
Number of eigenvalues below threshold      ... 0
Time for construction of square roots      ...    0.001 sec
Total time needed                          ...    0.002 sec

-------------------
DFT GRID GENERATION
-------------------

General Integration Accuracy     IntAcc      ...  5.010
Radial Grid Type                 RadialGrid  ... Gauss-Chebyshev
Angular Grid (max. acc.)         AngularGrid ... Lebedev-434
Angular grid pruning method      GridPruning ... 3 (G Style)
Weight generation scheme         WeightScheme... Becke
Basis function cutoff            BFCut       ...    1.0000e-12
Integration weight cutoff        WCut        ...    1.0000e-14
Grids for H and He will be reduced by one unit

# of grid points (after initial pruning)     ...  11992 (   0.0 sec)
# of grid points (after weights+screening)   ...  11992 (   0.0 sec)
Grid point division into batches done        ...    0.1 sec
Reduced shell lists constructed in    0.1 sec

Total number of grid points                  ...    11992
Total number of batches                      ...      188
Average number of points per batch           ...       63
Average number of grid points per atom       ...    11992
Average number of shells per batch           ...     0.00 ( 0.00%)
Average number of basis functions per batch  ...     0.00 ( 0.00%)
Average number of large shells per batch     ...     0.00 ( -nan%)
Average number of large basis fcns per batch ...     0.00 ( -nan%)
Maximum spatial batch extension              ...  18.71, 18.71, 18.71 au
Average spatial batch extension              ...   0.97,  0.98,  0.97 au

Time for grid setup =    0.146 sec

------------------------------
INITIAL GUESS: MODEL POTENTIAL
------------------------------
Loading ZORA relativistic densities                ... done
Calculating cut-offs                               ... done
Setting up the integral package                    ... done
Initializing the effective Hamiltonian             ... done
Starting the Coulomb interaction                   ... done (   0.0 sec)
Reading the grid                                   ... done
Mapping shells                                     ... done
Starting the XC term evaluation                    ... done (   0.0 sec)
  promolecular density results
     # of electrons  =     18.000000116
     EX              =    -28.047870263
     EC              =     -1.433252902
     EX+EC           =    -29.481123164
Transforming the Hamiltonian                       ... done (   0.0 sec)
Diagonalizing the Hamiltonian                      ... done (   0.0 sec)
Back transforming the eigenvectors                 ... done (   0.0 sec)
Now organizing SCF variables                       ... done
                      ------------------
                      INITIAL GUESS DONE (   0.2 sec)
                      ------------------
--------------
SCF ITERATIONS
--------------
ITER       Energy         Delta-E        Max-DP      RMS-DP      [F,P]     Damp
               ***  Starting incremental Fock matrix formation  ***
  0   -311.5102166584   0.000000000000 0.01339931  0.00027930  2.1002141 0.7000
  1   -311.5209370902  -0.010720431870 0.00910310  0.00019134  1.4561608 0.7000
  2   -311.5283514851  -0.007414394903 0.00617523  0.00013096  1.0088154 0.7000
  3   -311.5334986031  -0.005147117950 0.00418632  0.00008968  0.6989348 0.7000
  4   -311.5370810629  -0.003582459787 0.00283606  0.00006145  0.4842625 0.7000
                      *** Initiating the SOSCF procedure ***
                      *** Re-Reading the Fockian *** 
                      *** Removing any level shift *** 
ITER      Energy       Delta-E        Grad      Rot      Max-DP    RMS-DP
  5   -311.53957898  -0.0024979148  0.002611  0.002611  0.006400  0.000140
               *** Restarting incremental Fock matrix formation ***
  6   -311.54537693  -0.0057979477  0.006017  0.000028  0.000502  0.000012
  7   -311.54537751  -0.0000005845  0.000166  0.000001  0.000013  0.000000
                 **** Energy Check signals convergence ****
              ***Rediagonalizing the Fockian in SOSCF/NRSCF***

               *****************************************************
               *                     SUCCESS                       *
               *           SCF CONVERGED AFTER   8 CYCLES          *
               *****************************************************

Setting up the final grid:

General Integration Accuracy     IntAcc      ...  5.340
Radial Grid Type                 RadialGrid  ... Gauss-Chebyshev
Angular Grid (max. acc.)         AngularGrid ... Lebedev-590
Angular grid pruning method      GridPruning ... 3 (G Style)
Weight generation scheme         WeightScheme... Becke
Basis function cutoff            BFCut       ...    1.0000e-12
Integration weight cutoff        WCut        ...    1.0000e-14
Grids for H and He will be reduced by one unit

# of grid points (after initial pruning)     ...  18110 (   0.0 sec)
# of grid points (after weights+screening)   ...  18110 (   0.0 sec)
Grid point division into batches done        ...    0.2 sec
Reduced shell lists constructed in    0.2 sec

Total number of grid points                  ...    18110
Total number of batches                      ...      283
Average number of points per batch           ...       63
Average number of grid points per atom       ...    18110
Average number of shells per batch           ...     0.00 ( 0.00%)
Average number of basis functions per batch  ...     0.00 ( 0.00%)
Average number of large shells per batch     ...     0.00 ( -nan%)
Average number of large basis fcns per batch ...     0.00 ( -nan%)
Maximum spatial batch extension              ...  19.03, 19.03, 19.03 au
Average spatial batch extension              ...   0.84,  0.84,  0.80 au

Final grid set up in    0.2 sec
Final integration                            ... done (   0.0 sec)
Change in XC energy                          ...     0.000000293
Integrated number of electrons               ...     1.999999988
Previous integrated no of electrons          ...     2.000000025

----------------
TOTAL SCF ENERGY
----------------

Total Energy       :         -311.54537722 Eh           -8477.58071 eV

Components:
Nuclear Repulsion  :            0.00000000 Eh               0.00000 eV
Electronic Energy  :         -311.54537722 Eh           -8477.58071 eV
One Electron Energy:         -323.86319071 Eh           -8812.76545 eV
Two Electron Energy:           12.31781349 Eh             335.18475 eV

Virial components:
Potential Energy   :         -622.93205442 Eh          -16950.84297 eV
Kinetic Energy     :          311.38667721 Eh            8473.26226 eV
Virial Ratio       :            2.00050966


DFT components:
N(Alpha)           :        0.999999993821 electrons
N(Beta)            :        0.999999993821 electrons
N(Total)           :        1.999999987642 electrons
E(X)               :       -9.434976519764 Eh       
E(C)               :       -0.236907259569 Eh       
E(XC)              :       -9.671883779333 Eh       
DFET-embed. en.    :        0.000000000000 Eh       

---------------
SCF CONVERGENCE
---------------

  Last Energy change         ...   -4.5748e-10  Tolerance :   1.0000e-09
  Last MAX-Density change    ...    1.9865e-10  Tolerance :   1.0000e-08
  Last RMS-Density change    ...    5.6721e-12  Tolerance :   1.0000e-09
  Last Orbital Gradient      ...    1.7268e-09  Tolerance :   2.0000e-06
  Last Orbital Rotation      ...    1.0889e-11  Tolerance :   2.0000e-06

================================================================================
                                        WARNING
Number of found core electrons (2) does not match given number of chemical core electrons (10)
================================================================================
             **** THE GBW FILE WAS UPDATED (Ar_cc-pcvtz_2192.575824_.gbw) ****
             **** DENSITY FILE WAS UPDATED (Ar_cc-pcvtz_2192.575824_.scfp) ****
             **** ENERGY FILE WAS UPDATED (Ar_cc-pcvtz_2192.575824_.en.tmp) ****
             **** THE GBW FILE WAS UPDATED (Ar_cc-pcvtz_2192.575824_.gbw) ****
             **** DENSITY FILE WAS UPDATED (Ar_cc-pcvtz_2192.575824_.scfp) ****
----------------
ORBITAL ENERGIES
----------------

  NO   OCC          E(Eh)            E(eV) 
   0   2.0000    -146.359887     -3982.6550 
   1   0.0000     -34.108844      -928.1488 
   2   0.0000     -33.260803      -905.0725 
   3   0.0000     -33.260803      -905.0725 
   4   0.0000     -33.260803      -905.0725 
   5   0.0000     -14.715222      -400.4215 
   6   0.0000     -14.414798      -392.2466 
   7   0.0000     -14.414798      -392.2466 
   8   0.0000     -14.414798      -392.2466 
   9   0.0000     -13.742795      -373.9605 
  10   0.0000     -13.742795      -373.9605 
  11   0.0000     -13.742795      -373.9605 
  12   0.0000     -13.742795      -373.9605 
  13   0.0000     -13.742795      -373.9605 
  14   0.0000      -8.104345      -220.5304 
  15   0.0000      -7.884182      -214.5395 
  16   0.0000      -7.884182      -214.5395 
  17   0.0000      -7.884182      -214.5395 
  18   0.0000      -7.765792      -211.3179 
  19   0.0000      -7.765792      -211.3179 
  20   0.0000      -7.765792      -211.3179 
  21   0.0000      -7.765792      -211.3179 
  22   0.0000      -7.765792      -211.3179 
  23   0.0000      -7.022821      -191.1007 
  24   0.0000      -7.022821      -191.1007 
  25   0.0000      -7.022821      -191.1007 
  26   0.0000      -7.022821      -191.1007 
  27   0.0000      -7.022821      -191.1007 
  28   0.0000      -7.022821      -191.1007 
  29   0.0000      -7.022821      -191.1007 
  30   0.0000      -5.065993      -137.8527 
  31   0.0000      -5.065993      -137.8527 
  32   0.0000      -5.065993      -137.8527 
  33   0.0000      -5.065993      -137.8527 
  34   0.0000      -5.065993      -137.8527 
  35   0.0000      -5.024480      -136.7230 
  36   0.0000      -4.732937      -128.7898 
  37   0.0000      -4.732937      -128.7898 
  38   0.0000      -4.732937      -128.7898 
  39   0.0000      -2.958136       -80.4950 
  40   0.0000      -2.958136       -80.4950 
  41   0.0000      -2.958136       -80.4950 
  42   0.0000       1.211259        32.9600 
  43   0.0000      18.162858       494.2365 
  44   0.0000      18.162858       494.2365 
  45   0.0000      18.162858       494.2365 
  46   0.0000      18.162858       494.2365 
  47   0.0000      18.162858       494.2365 
  48   0.0000      18.162858       494.2365 
  49   0.0000      18.162858       494.2365 
  50   0.0000      26.730639       727.3777 
  51   0.0000      26.730639       727.3777 
  52   0.0000      26.730639       727.3777 
  53   0.0000      26.730639       727.3777 
  54   0.0000      26.730639       727.3777 
  55   0.0000      35.740597       972.5511 
  56   0.0000      35.740597       972.5511 
  57   0.0000      35.740597       972.5511 
  58   0.0000      92.294357      2511.4571 

                    ********************************
                    * MULLIKEN POPULATION ANALYSIS *
                    ********************************

-----------------------
MULLIKEN ATOMIC CHARGES
-----------------------
   0 Ar:   16.000000
Sum of atomic charges:   16.0000000

--------------------------------
MULLIKEN REDUCED ORBITAL CHARGES
--------------------------------
  0 Ars       :     2.000000  s :     2.000000
      pz      :     0.000000  p :     0.000000
      px      :     0.000000
      py      :     0.000000
      dz2     :     0.000000  d :     0.000000
      dxz     :     0.000000
      dyz     :     0.000000
      dx2y2   :     0.000000
      dxy     :     0.000000
      f0      :     0.000000  f :     0.000000
      f+1     :     0.000000
      f-1     :     0.000000
      f+2     :     0.000000
      f-2     :     0.000000
      f+3     :     0.000000
      f-3     :     0.000000


                     *******************************
                     * LOEWDIN POPULATION ANALYSIS *
                     *******************************

----------------------
LOEWDIN ATOMIC CHARGES
----------------------
   0 Ar:   16.000000

-------------------------------
LOEWDIN REDUCED ORBITAL CHARGES
-------------------------------
  0 Ars       :     2.000000  s :     2.000000
      pz      :     0.000000  p :     0.000000
      px      :     0.000000
      py      :     0.000000
      dz2     :     0.000000  d :     0.000000
      dxz     :     0.000000
      dyz     :     0.000000
      dx2y2   :     0.000000
      dxy     :     0.000000
      f0      :     0.000000  f :     0.000000
      f+1     :     0.000000
      f-1     :     0.000000
      f+2     :     0.000000
      f-2     :     0.000000
      f+3     :     0.000000
      f-3     :     0.000000


                      *****************************
                      * MAYER POPULATION ANALYSIS *
                      *****************************

  NA   - Mulliken gross atomic population
  ZA   - Total nuclear charge
  QA   - Mulliken gross atomic charge
  VA   - Mayer's total valence
  BVA  - Mayer's bonded valence
  FA   - Mayer's free valence

  ATOM       NA         ZA         QA         VA         BVA        FA
  0 Ar     2.0000    18.0000    16.0000     0.0000     0.0000     0.0000

  Mayer bond orders larger than 0.100000


--------------------------
ATOM BASIS FOR ELEMENT Ar
--------------------------
 NewGTO Ar
 S 43
    1     545000.000000000000         0.000045665496
    2      81640.000000000000         0.000354750419
    3      18580.000000000000         0.001861340711
    4       5261.000000000000         0.007782603556
    5       1717.000000000000         0.027472950907
    6        619.900000000000         0.082533059538
    7        241.600000000000         0.201595069539
    8         99.790000000000         0.357428268673
    9         43.150000000000         0.350197173847
   10         19.140000000000         0.118480557045
   11          7.488000000000         0.005612062913
   12          3.205000000000         0.000484350112
   13          0.520400000000         0.000029255479
   14     545000.000000000000         0.000000167460
   15      81640.000000000000         0.000001298154
   16      18580.000000000000         0.000006845506
   17       5261.000000000000         0.000028618133
   18       1717.000000000000         0.000103001935
   19        619.900000000000         0.000317730356
   20        241.600000000000         0.000850284141
   21         99.790000000000         0.001783068587
   22         43.150000000000         0.002606313662
   23         19.140000000000         0.000533638295
   24          7.488000000000        -0.006265080126
   25          3.205000000000        -0.007487176634
   26          0.520400000000         0.000094045099
   27     545000.000000000000         0.000000001309
   28      81640.000000000000         0.000000010139
   29      18580.000000000000         0.000000053538
   30       5261.000000000000         0.000000223549
   31       1717.000000000000         0.000000807337
   32        619.900000000000         0.000002492159
   33        241.600000000000         0.000006745765
   34         99.790000000000         0.000014349223
   35         43.150000000000         0.000021985259
   36         19.140000000000         0.000004568519
   37          7.488000000000        -0.000067061724
   38          3.205000000000        -0.000137377165
   39          0.520400000000         0.000237112771
   40          1.196000000000        -0.000594007145
   41          0.195400000000        -0.000097233603
   42         17.362000000000        -0.006499819613
   43          3.378000000000         0.008924276372
 S 43
    1     545000.000000000000        -0.000004503871
    2      81640.000000000000        -0.000034988130
    3      18580.000000000000        -0.000183579291
    4       5261.000000000000        -0.000767578356
    5       1717.000000000000        -0.002709587136
    6        619.900000000000        -0.008140025335
    7        241.600000000000        -0.019882807964
    8         99.790000000000        -0.035252239269
    9         43.150000000000        -0.034539054814
   10         19.140000000000        -0.011685435405
   11          7.488000000000        -0.000553503463
   12          3.205000000000        -0.000047770217
   13          0.520400000000        -0.000002885393
   14     545000.000000000000         0.000019813779
   15      81640.000000000000         0.000153596515
   16      18580.000000000000         0.000809954425
   17       5261.000000000000         0.003386073004
   18       1717.000000000000         0.012187100683
   19        619.900000000000         0.037593583560
   20        241.600000000000         0.100604891228
   21         99.790000000000         0.210971147765
   22         43.150000000000         0.308376799842
   23         19.140000000000         0.063139625942
   24          7.488000000000        -0.741278913592
   25          3.205000000000        -0.885876325506
   26          0.520400000000         0.011127335508
   27     545000.000000000000        -0.000000288297
   28      81640.000000000000        -0.000002233051
   29      18580.000000000000        -0.000011791728
   30       5261.000000000000        -0.000049236868
   31       1717.000000000000        -0.000177816294
   32        619.900000000000        -0.000548899160
   33        241.600000000000        -0.001485758037
   34         99.790000000000        -0.003160423196
   35         43.150000000000        -0.004842263936
   36         19.140000000000        -0.001006218551
   37          7.488000000000         0.014770377137
   38          3.205000000000         0.030257386898
   39          0.520400000000        -0.052224202090
   40          1.196000000000         0.082536998573
   41          0.195400000000         0.010259305270
   42         17.362000000000        -0.114967309491
   43          3.378000000000         0.444407393936
 S 43
    1     545000.000000000000        -0.000012956717
    2      81640.000000000000        -0.000100653689
    3      18580.000000000000        -0.000528120050
    4       5261.000000000000        -0.002208165844
    5       1717.000000000000        -0.007794927671
    6        619.900000000000        -0.023417187027
    7        241.600000000000        -0.057198769481
    8         99.790000000000        -0.101413477982
    9         43.150000000000        -0.099361792258
   10         19.140000000000        -0.033616606229
   11          7.488000000000        -0.001592316189
   12          3.205000000000        -0.000137425139
   13          0.520400000000        -0.000008300686
   14     545000.000000000000         0.000020863921
   15      81640.000000000000         0.000161737216
   16      18580.000000000000         0.000852882465
   17       5261.000000000000         0.003565536775
   18       1717.000000000000         0.012833023864
   19        619.900000000000         0.039586064602
   20        241.600000000000         0.105937006966
   21         99.790000000000         0.222152737084
   22         43.150000000000         0.324720943428
   23         19.140000000000         0.066486061578
   24          7.488000000000        -0.780567112338
   25          3.205000000000        -0.932828268294
   26          0.520400000000         0.011717090540
   27     545000.000000000000        -0.000001648512
   28      81640.000000000000        -0.000012768792
   29      18580.000000000000        -0.000067426205
   30       5261.000000000000        -0.000281541021
   31       1717.000000000000        -0.001016770209
   32        619.900000000000        -0.003138656761
   33        241.600000000000        -0.008495703489
   34         99.790000000000        -0.018071595578
   35         43.150000000000        -0.027688518308
   36         19.140000000000        -0.005753651831
   37          7.488000000000         0.084458398633
   38          3.205000000000         0.173014569674
   39          0.520400000000        -0.298622874534
   40          1.196000000000         1.606437961870
   41          0.195400000000         0.074589094569
   42         17.362000000000        -0.200562251592
   43          3.378000000000         0.458063977383
 S 43
    1     545000.000000000000        -0.000015150132
    2      81640.000000000000        -0.000117693142
    3      18580.000000000000        -0.000617524389
    4       5261.000000000000        -0.002581981619
    5       1717.000000000000        -0.009114514665
    6        619.900000000000        -0.027381433617
    7        241.600000000000        -0.066881829475
    8         99.790000000000        -0.118581553456
    9         43.150000000000        -0.116182542150
   10         19.140000000000        -0.039307491153
   11          7.488000000000        -0.001861876065
   12          3.205000000000        -0.000160689553
   13          0.520400000000        -0.000009705892
   14     545000.000000000000         0.000032051233
   15      81640.000000000000         0.000248461315
   16      18580.000000000000         0.001310201227
   17       5261.000000000000         0.005477390906
   18       1717.000000000000         0.019714139173
   19        619.900000000000         0.060812260239
   20        241.600000000000         0.162740825624
   21         99.790000000000         0.341271864131
   22         43.150000000000         0.498837525662
   23         19.140000000000         0.102136136026
   24          7.488000000000        -1.199110112273
   25          3.205000000000        -1.433014268531
   26          0.520400000000         0.017999838234
   27     545000.000000000000        -0.000014013633
   28      81640.000000000000        -0.000108544672
   29      18580.000000000000        -0.000573175220
   30       5261.000000000000        -0.002393317792
   31       1717.000000000000        -0.008643338094
   32        619.900000000000        -0.026681025170
   33        241.600000000000        -0.072220091552
   34         99.790000000000        -0.153622626876
   35         43.150000000000        -0.235373954577
   36         19.140000000000        -0.048910518417
   37          7.488000000000         0.717962119261
   38          3.205000000000         1.470758493132
   39          0.520400000000        -2.538526840784
   40          1.196000000000         2.441237873261
   41          0.195400000000         0.129687910998
   42         17.362000000000        -0.207808687685
   43          3.378000000000        -0.096953135996
 S 43
    1     545000.000000000000        -0.000014041000
    2      81640.000000000000        -0.000109076895
    3      18580.000000000000        -0.000572315788
    4       5261.000000000000        -0.002392956251
    5       1717.000000000000        -0.008447246364
    6        619.900000000000        -0.025376854838
    7        241.600000000000        -0.061985449761
    8         99.790000000000        -0.109900267114
    9         43.150000000000        -0.107676886026
   10         19.140000000000        -0.036429812660
   11          7.488000000000        -0.001725569204
   12          3.205000000000        -0.000148925565
   13          0.520400000000        -0.000008995329
   14     545000.000000000000         0.000035464297
   15      81640.000000000000         0.000274919405
   16      18580.000000000000         0.001449721622
   17       5261.000000000000         0.006060665999
   18       1717.000000000000         0.021813453712
   19        619.900000000000         0.067288021670
   20        241.600000000000         0.180070731758
   21         99.790000000000         0.377613140814
   22         43.150000000000         0.551957616841
   23         19.140000000000         0.113012384462
   24          7.488000000000        -1.326800663247
   25          3.205000000000        -1.585612749378
   26          0.520400000000         0.019916600705
   27     545000.000000000000        -0.000020239181
   28      81640.000000000000        -0.000156765570
   29      18580.000000000000        -0.000827807926
   30       5261.000000000000        -0.003456547611
   31       1717.000000000000        -0.012483135229
   32        619.900000000000        -0.038534052657
   33        241.600000000000        -0.104303818652
   34         99.790000000000        -0.221869375546
   35         43.150000000000        -0.339938675598
   36         19.140000000000        -0.070638983329
   37          7.488000000000         1.036916307879
   38          3.205000000000         2.124141964549
   39          0.520400000000        -3.666265682520
   40          1.196000000000         1.879413082692
   41          0.195400000000         2.427979434839
   42         17.362000000000        -0.176067458286
   43          3.378000000000        -0.421417511666
 S 43
    1     545000.000000000000        -0.000055655707
    2      81640.000000000000        -0.000432358943
    3      18580.000000000000        -0.002268545036
    4       5261.000000000000        -0.009485198792
    5       1717.000000000000        -0.033483190924
    6        619.900000000000        -0.100588764542
    7        241.600000000000        -0.245697894834
    8         99.790000000000        -0.435622623947
    9         43.150000000000        -0.426809587099
   10         19.140000000000        -0.144400473242
   11          7.488000000000        -0.006839810352
   12          3.205000000000        -0.000590311078
   13          0.520400000000        -0.000035655681
   14     545000.000000000000         0.000037805802
   15      81640.000000000000         0.000293070770
   16      18580.000000000000         0.001545438497
   17       5261.000000000000         0.006460817315
   18       1717.000000000000         0.023253672031
   19        619.900000000000         0.071730667148
   20        241.600000000000         0.191959778312
   21         99.790000000000         0.402544789432
   22         43.150000000000         0.588400239907
   23         19.140000000000         0.120473949631
   24          7.488000000000        -1.414401766990
   25          3.205000000000        -1.690301743590
   26          0.520400000000         0.021231580605
   27     545000.000000000000         0.000020449003
   28      81640.000000000000         0.000158390781
   29      18580.000000000000         0.000836389928
   30       5261.000000000000         0.003492382129
   31       1717.000000000000         0.012612549655
   32        619.900000000000         0.038933540626
   33        241.600000000000         0.105385151078
   34         99.790000000000         0.224169526714
   35         43.150000000000         0.343462867882
   36         19.140000000000         0.071371307650
   37          7.488000000000        -1.047666165763
   38          3.205000000000        -2.146163244445
   39          0.520400000000         3.704274376907
   40          1.196000000000        -5.332656422946
   41          0.195400000000        -1.134038254719
   42         17.362000000000        -0.877999945339
   43          3.378000000000         9.089457790041
 S 43
    1     545000.000000000000         0.000278562137
    2      81640.000000000000         0.002163997848
    3      18580.000000000000         0.011354284801
    4       5261.000000000000         0.047474326829
    5       1717.000000000000         0.167586571879
    6        619.900000000000         0.503456383756
    7        241.600000000000         1.229741454649
    8         99.790000000000         2.180332882429
    9         43.150000000000         2.136222790397
   10         19.140000000000         0.722738174604
   11          7.488000000000         0.034233904760
   12          3.205000000000         0.002954563387
   13          0.520400000000         0.000178460095
   14     545000.000000000000        -0.000157818872
   15      81640.000000000000        -0.001223412681
   16      18580.000000000000        -0.006451373701
   17       5261.000000000000        -0.026970433944
   18       1717.000000000000        -0.097071561527
   19        619.900000000000        -0.299436917319
   20        241.600000000000        -0.801328728041
   21         99.790000000000        -1.680407775692
   22         43.150000000000        -2.456254221432
   23         19.140000000000        -0.502913879507
   24          7.488000000000         5.904365898149
   25          3.205000000000         7.056099762708
   26          0.520400000000        -0.088630418468
   27     545000.000000000000        -0.000008043518
   28      81640.000000000000        -0.000062302256
   29      18580.000000000000        -0.000328989978
   30       5261.000000000000        -0.001373711808
   31       1717.000000000000        -0.004961086087
   32        619.900000000000        -0.015314322005
   33        241.600000000000        -0.041452745171
   34         99.790000000000        -0.088176011240
   35         43.150000000000        -0.135099476467
   36         19.140000000000        -0.028073562530
   37          7.488000000000         0.412094475829
   38          3.205000000000         0.844183048155
   39          0.520400000000        -1.457058610426
   40          1.196000000000         2.719337829268
   41          0.195400000000         0.409173218381
   42         17.362000000000        -3.242532291675
   43          3.378000000000       -13.108783793539
 P 18
    1        761.800000000000         0.003392644744
    2        180.200000000000         0.027229661974
    3         57.500000000000         0.126099910486
    4         21.240000000000         0.367039734591
    5          8.388000000000         0.628076500630
    6          3.416000000000         0.497593908626
    7          0.452300000000        -0.007500107663
    8        761.800000000000        -0.000042489494
    9        180.200000000000        -0.000339246144
   10         57.500000000000        -0.001627043147
   11         21.240000000000        -0.004822000477
   12          8.388000000000        -0.008987666265
   13          3.416000000000        -0.005940076018
   14          0.452300000000         0.035818078627
   15          1.206000000000        -0.067820855697
   16          0.154500000000        -0.008170618874
   17         11.019000000000        -0.023793307306
   18          4.307000000000        -0.390458757378
 P 18
    1        761.800000000000         0.002263610896
    2        180.200000000000         0.018167938052
    3         57.500000000000         0.084135284685
    4         21.240000000000         0.244893056954
    5          8.388000000000         0.419059735893
    6          3.416000000000         0.332000276594
    7          0.452300000000        -0.005004156553
    8        761.800000000000        -0.000230155950
    9        180.200000000000        -0.001837619394
   10         57.500000000000        -0.008813323575
   11         21.240000000000        -0.026119682540
   12          8.388000000000        -0.048684148985
   13          3.416000000000        -0.032176044072
   14          0.452300000000         0.194018405309
   15          1.206000000000        -0.889895020580
   16          0.154500000000        -0.053599808404
   17         11.019000000000         0.143367859923
   18          4.307000000000        -0.867879733975
 P 18
    1        761.800000000000         0.002913388502
    2        180.200000000000         0.023383109666
    3         57.500000000000         0.108286619148
    4         21.240000000000         0.315190485059
    5          8.388000000000         0.539352332271
    6          3.416000000000         0.427302143723
    7          0.452300000000        -0.006440617594
    8        761.800000000000        -0.001504719090
    9        180.200000000000        -0.012014032136
   10         57.500000000000        -0.057619958185
   11         21.240000000000        -0.170765886783
   12          8.388000000000        -0.318288396538
   13          3.416000000000        -0.210361312423
   14          0.452300000000         1.268458182231
   15          1.206000000000        -0.295313113540
   16          0.154500000000        -0.161096673610
   17         11.019000000000         0.203830089548
   18          4.307000000000        -1.002448362998
 P 18
    1        761.800000000000         0.001596501548
    2        180.200000000000         0.012813660368
    3         57.500000000000         0.059339753353
    4         21.240000000000         0.172720561320
    5          8.388000000000         0.295558533633
    6          3.416000000000         0.234156389916
    7          0.452300000000        -0.003529380292
    8        761.800000000000        -0.000452079336
    9        180.200000000000        -0.003609508054
   10         57.500000000000        -0.017311398935
   11         21.240000000000        -0.051305076985
   12          8.388000000000        -0.095626890097
   13          3.416000000000        -0.063201167000
   14          0.452300000000         0.381096868451
   15          1.206000000000         0.609398882974
   16          0.154500000000        -1.151876961190
   17         11.019000000000         0.200839973410
   18          4.307000000000        -1.093068268513
 P 18
    1        761.800000000000        -0.000783709745
    2        180.200000000000        -0.006290122617
    3         57.500000000000        -0.029129406734
    4         21.240000000000        -0.084787131691
    5          8.388000000000        -0.145087302416
    6          3.416000000000        -0.114945484871
    7          0.452300000000         0.001732544344
    8        761.800000000000         0.002582301954
    9        180.200000000000         0.020617707890
   10         57.500000000000         0.098883659799
   11         21.240000000000         0.293057412500
   12          8.388000000000         0.546226038908
   13          3.416000000000         0.361008530861
   14          0.452300000000        -2.176846205946
   15          1.206000000000         2.194938278432
   16          0.154500000000         1.146369041488
   17         11.019000000000         0.290277369311
   18          4.307000000000        -2.015821482287
 P 18
    1        761.800000000000        -0.015083125730
    2        180.200000000000        -0.121058479790
    3         57.500000000000        -0.560618911814
    4         21.240000000000        -1.631796690469
    5          8.388000000000        -2.792322079876
    6          3.416000000000        -2.212218505988
    7          0.452300000000         0.033344212382
    8        761.800000000000         0.000681003666
    9        180.200000000000         0.005437293895
   10         57.500000000000         0.026077560253
   11         21.240000000000         0.077284986695
   12          8.388000000000         0.144050518257
   13          3.416000000000         0.095205029166
   14          0.452300000000        -0.574077033673
   15          1.206000000000         1.051718517076
   16          0.154500000000         0.169311716461
   17         11.019000000000         4.711251582564
   18          4.307000000000         1.164693743163
 D 4
    1          0.410000000000        -0.116988817704
    2          1.254000000000         0.578508285625
    3         20.706000000000         0.067934755677
    4          6.681000000000         0.655173596783
 D 4
    1          0.410000000000        -0.456591107417
    2          1.254000000000        -0.585765929243
    3         20.706000000000         0.076882492222
    4          6.681000000000         0.586120948714
 D 4
    1          0.410000000000         1.166714282571
    2          1.254000000000        -1.032377421470
    3         20.706000000000         0.070089297750
    4          6.681000000000         0.456961649524
 D 4
    1          0.410000000000        -0.134507944460
    2          1.254000000000         0.308692019171
    3         20.706000000000         1.250881107572
    4          6.681000000000        -0.913545348544
 F 2
    1          0.890000000000         0.998792523194
    2         13.674000000000         0.024738216395
 F 2
    1          0.890000000000        -0.061190495049
    2         13.674000000000         1.000359336300
 end
  // -----------------------------------------------
  // The basis set
  // -----------------------------------------------
  BAS[ATNO] = new BFNGauss[NSH];
  // Basis function   1 L = s
  InitBFNGauss(BAS[ATNO][  0]);
  BAS[ATNO][  0].l  = 0;
  BAS[ATNO][  0].ng = 43;
  BAS[ATNO][  0].a[  0] =    545000.000000000000;     BAS[ATNO][  0].d[  0] =         0.000045665496;
  BAS[ATNO][  0].a[  1] =     81640.000000000000;     BAS[ATNO][  0].d[  1] =         0.000354750419;
  BAS[ATNO][  0].a[  2] =     18580.000000000000;     BAS[ATNO][  0].d[  2] =         0.001861340711;
  BAS[ATNO][  0].a[  3] =      5261.000000000000;     BAS[ATNO][  0].d[  3] =         0.007782603556;
  BAS[ATNO][  0].a[  4] =      1717.000000000000;     BAS[ATNO][  0].d[  4] =         0.027472950907;
  BAS[ATNO][  0].a[  5] =       619.900000000000;     BAS[ATNO][  0].d[  5] =         0.082533059538;
  BAS[ATNO][  0].a[  6] =       241.600000000000;     BAS[ATNO][  0].d[  6] =         0.201595069539;
  BAS[ATNO][  0].a[  7] =        99.790000000000;     BAS[ATNO][  0].d[  7] =         0.357428268673;
  BAS[ATNO][  0].a[  8] =        43.150000000000;     BAS[ATNO][  0].d[  8] =         0.350197173847;
  BAS[ATNO][  0].a[  9] =        19.140000000000;     BAS[ATNO][  0].d[  9] =         0.118480557045;
  BAS[ATNO][  0].a[ 10] =         7.488000000000;     BAS[ATNO][  0].d[ 10] =         0.005612062913;
  BAS[ATNO][  0].a[ 11] =         3.205000000000;     BAS[ATNO][  0].d[ 11] =         0.000484350112;
  BAS[ATNO][  0].a[ 12] =         0.520400000000;     BAS[ATNO][  0].d[ 12] =         0.000029255479;
  BAS[ATNO][  0].a[ 13] =    545000.000000000000;     BAS[ATNO][  0].d[ 13] =         0.000000167460;
  BAS[ATNO][  0].a[ 14] =     81640.000000000000;     BAS[ATNO][  0].d[ 14] =         0.000001298154;
  BAS[ATNO][  0].a[ 15] =     18580.000000000000;     BAS[ATNO][  0].d[ 15] =         0.000006845506;
  BAS[ATNO][  0].a[ 16] =      5261.000000000000;     BAS[ATNO][  0].d[ 16] =         0.000028618133;
  BAS[ATNO][  0].a[ 17] =      1717.000000000000;     BAS[ATNO][  0].d[ 17] =         0.000103001935;
  BAS[ATNO][  0].a[ 18] =       619.900000000000;     BAS[ATNO][  0].d[ 18] =         0.000317730356;
  BAS[ATNO][  0].a[ 19] =       241.600000000000;     BAS[ATNO][  0].d[ 19] =         0.000850284141;
  BAS[ATNO][  0].a[ 20] =        99.790000000000;     BAS[ATNO][  0].d[ 20] =         0.001783068587;
  BAS[ATNO][  0].a[ 21] =        43.150000000000;     BAS[ATNO][  0].d[ 21] =         0.002606313662;
  BAS[ATNO][  0].a[ 22] =        19.140000000000;     BAS[ATNO][  0].d[ 22] =         0.000533638295;
  BAS[ATNO][  0].a[ 23] =         7.488000000000;     BAS[ATNO][  0].d[ 23] =        -0.006265080126;
  BAS[ATNO][  0].a[ 24] =         3.205000000000;     BAS[ATNO][  0].d[ 24] =        -0.007487176634;
  BAS[ATNO][  0].a[ 25] =         0.520400000000;     BAS[ATNO][  0].d[ 25] =         0.000094045099;
  BAS[ATNO][  0].a[ 26] =    545000.000000000000;     BAS[ATNO][  0].d[ 26] =         0.000000001309;
  BAS[ATNO][  0].a[ 27] =     81640.000000000000;     BAS[ATNO][  0].d[ 27] =         0.000000010139;
  BAS[ATNO][  0].a[ 28] =     18580.000000000000;     BAS[ATNO][  0].d[ 28] =         0.000000053538;
  BAS[ATNO][  0].a[ 29] =      5261.000000000000;     BAS[ATNO][  0].d[ 29] =         0.000000223549;
  BAS[ATNO][  0].a[ 30] =      1717.000000000000;     BAS[ATNO][  0].d[ 30] =         0.000000807337;
  BAS[ATNO][  0].a[ 31] =       619.900000000000;     BAS[ATNO][  0].d[ 31] =         0.000002492159;
  BAS[ATNO][  0].a[ 32] =       241.600000000000;     BAS[ATNO][  0].d[ 32] =         0.000006745765;
  BAS[ATNO][  0].a[ 33] =        99.790000000000;     BAS[ATNO][  0].d[ 33] =         0.000014349223;
  BAS[ATNO][  0].a[ 34] =        43.150000000000;     BAS[ATNO][  0].d[ 34] =         0.000021985259;
  BAS[ATNO][  0].a[ 35] =        19.140000000000;     BAS[ATNO][  0].d[ 35] =         0.000004568519;
  BAS[ATNO][  0].a[ 36] =         7.488000000000;     BAS[ATNO][  0].d[ 36] =        -0.000067061724;
  BAS[ATNO][  0].a[ 37] =         3.205000000000;     BAS[ATNO][  0].d[ 37] =        -0.000137377165;
  BAS[ATNO][  0].a[ 38] =         0.520400000000;     BAS[ATNO][  0].d[ 38] =         0.000237112771;
  BAS[ATNO][  0].a[ 39] =         1.196000000000;     BAS[ATNO][  0].d[ 39] =        -0.000594007145;
  BAS[ATNO][  0].a[ 40] =         0.195400000000;     BAS[ATNO][  0].d[ 40] =        -0.000097233603;
  BAS[ATNO][  0].a[ 41] =        17.362000000000;     BAS[ATNO][  0].d[ 41] =        -0.006499819613;
  BAS[ATNO][  0].a[ 42] =         3.378000000000;     BAS[ATNO][  0].d[ 42] =         0.008924276372;

  // Basis function   2 L = s
  InitBFNGauss(BAS[ATNO][  1]);
  BAS[ATNO][  1].l  = 0;
  BAS[ATNO][  1].ng = 43;
  BAS[ATNO][  1].a[  0] =    545000.000000000000;     BAS[ATNO][  1].d[  0] =         0.000004503871;
  BAS[ATNO][  1].a[  1] =     81640.000000000000;     BAS[ATNO][  1].d[  1] =         0.000034988130;
  BAS[ATNO][  1].a[  2] =     18580.000000000000;     BAS[ATNO][  1].d[  2] =         0.000183579291;
  BAS[ATNO][  1].a[  3] =      5261.000000000000;     BAS[ATNO][  1].d[  3] =         0.000767578356;
  BAS[ATNO][  1].a[  4] =      1717.000000000000;     BAS[ATNO][  1].d[  4] =         0.002709587136;
  BAS[ATNO][  1].a[  5] =       619.900000000000;     BAS[ATNO][  1].d[  5] =         0.008140025335;
  BAS[ATNO][  1].a[  6] =       241.600000000000;     BAS[ATNO][  1].d[  6] =         0.019882807964;
  BAS[ATNO][  1].a[  7] =        99.790000000000;     BAS[ATNO][  1].d[  7] =         0.035252239269;
  BAS[ATNO][  1].a[  8] =        43.150000000000;     BAS[ATNO][  1].d[  8] =         0.034539054814;
  BAS[ATNO][  1].a[  9] =        19.140000000000;     BAS[ATNO][  1].d[  9] =         0.011685435405;
  BAS[ATNO][  1].a[ 10] =         7.488000000000;     BAS[ATNO][  1].d[ 10] =         0.000553503463;
  BAS[ATNO][  1].a[ 11] =         3.205000000000;     BAS[ATNO][  1].d[ 11] =         0.000047770217;
  BAS[ATNO][  1].a[ 12] =         0.520400000000;     BAS[ATNO][  1].d[ 12] =         0.000002885393;
  BAS[ATNO][  1].a[ 13] =    545000.000000000000;     BAS[ATNO][  1].d[ 13] =        -0.000019813779;
  BAS[ATNO][  1].a[ 14] =     81640.000000000000;     BAS[ATNO][  1].d[ 14] =        -0.000153596515;
  BAS[ATNO][  1].a[ 15] =     18580.000000000000;     BAS[ATNO][  1].d[ 15] =        -0.000809954425;
  BAS[ATNO][  1].a[ 16] =      5261.000000000000;     BAS[ATNO][  1].d[ 16] =        -0.003386073004;
  BAS[ATNO][  1].a[ 17] =      1717.000000000000;     BAS[ATNO][  1].d[ 17] =        -0.012187100683;
  BAS[ATNO][  1].a[ 18] =       619.900000000000;     BAS[ATNO][  1].d[ 18] =        -0.037593583560;
  BAS[ATNO][  1].a[ 19] =       241.600000000000;     BAS[ATNO][  1].d[ 19] =        -0.100604891228;
  BAS[ATNO][  1].a[ 20] =        99.790000000000;     BAS[ATNO][  1].d[ 20] =        -0.210971147765;
  BAS[ATNO][  1].a[ 21] =        43.150000000000;     BAS[ATNO][  1].d[ 21] =        -0.308376799842;
  BAS[ATNO][  1].a[ 22] =        19.140000000000;     BAS[ATNO][  1].d[ 22] =        -0.063139625942;
  BAS[ATNO][  1].a[ 23] =         7.488000000000;     BAS[ATNO][  1].d[ 23] =         0.741278913592;
  BAS[ATNO][  1].a[ 24] =         3.205000000000;     BAS[ATNO][  1].d[ 24] =         0.885876325506;
  BAS[ATNO][  1].a[ 25] =         0.520400000000;     BAS[ATNO][  1].d[ 25] =        -0.011127335508;
  BAS[ATNO][  1].a[ 26] =    545000.000000000000;     BAS[ATNO][  1].d[ 26] =         0.000000288297;
  BAS[ATNO][  1].a[ 27] =     81640.000000000000;     BAS[ATNO][  1].d[ 27] =         0.000002233051;
  BAS[ATNO][  1].a[ 28] =     18580.000000000000;     BAS[ATNO][  1].d[ 28] =         0.000011791728;
  BAS[ATNO][  1].a[ 29] =      5261.000000000000;     BAS[ATNO][  1].d[ 29] =         0.000049236868;
  BAS[ATNO][  1].a[ 30] =      1717.000000000000;     BAS[ATNO][  1].d[ 30] =         0.000177816294;
  BAS[ATNO][  1].a[ 31] =       619.900000000000;     BAS[ATNO][  1].d[ 31] =         0.000548899160;
  BAS[ATNO][  1].a[ 32] =       241.600000000000;     BAS[ATNO][  1].d[ 32] =         0.001485758037;
  BAS[ATNO][  1].a[ 33] =        99.790000000000;     BAS[ATNO][  1].d[ 33] =         0.003160423196;
  BAS[ATNO][  1].a[ 34] =        43.150000000000;     BAS[ATNO][  1].d[ 34] =         0.004842263936;
  BAS[ATNO][  1].a[ 35] =        19.140000000000;     BAS[ATNO][  1].d[ 35] =         0.001006218551;
  BAS[ATNO][  1].a[ 36] =         7.488000000000;     BAS[ATNO][  1].d[ 36] =        -0.014770377137;
  BAS[ATNO][  1].a[ 37] =         3.205000000000;     BAS[ATNO][  1].d[ 37] =        -0.030257386898;
  BAS[ATNO][  1].a[ 38] =         0.520400000000;     BAS[ATNO][  1].d[ 38] =         0.052224202090;
  BAS[ATNO][  1].a[ 39] =         1.196000000000;     BAS[ATNO][  1].d[ 39] =        -0.082536998573;
  BAS[ATNO][  1].a[ 40] =         0.195400000000;     BAS[ATNO][  1].d[ 40] =        -0.010259305270;
  BAS[ATNO][  1].a[ 41] =        17.362000000000;     BAS[ATNO][  1].d[ 41] =         0.114967309491;
  BAS[ATNO][  1].a[ 42] =         3.378000000000;     BAS[ATNO][  1].d[ 42] =        -0.444407393936;

  // Basis function   3 L = s
  InitBFNGauss(BAS[ATNO][  2]);
  BAS[ATNO][  2].l  = 0;
  BAS[ATNO][  2].ng = 43;
  BAS[ATNO][  2].a[  0] =    545000.000000000000;     BAS[ATNO][  2].d[  0] =        -0.000012956717;
  BAS[ATNO][  2].a[  1] =     81640.000000000000;     BAS[ATNO][  2].d[  1] =        -0.000100653689;
  BAS[ATNO][  2].a[  2] =     18580.000000000000;     BAS[ATNO][  2].d[  2] =        -0.000528120050;
  BAS[ATNO][  2].a[  3] =      5261.000000000000;     BAS[ATNO][  2].d[  3] =        -0.002208165844;
  BAS[ATNO][  2].a[  4] =      1717.000000000000;     BAS[ATNO][  2].d[  4] =        -0.007794927671;
  BAS[ATNO][  2].a[  5] =       619.900000000000;     BAS[ATNO][  2].d[  5] =        -0.023417187027;
  BAS[ATNO][  2].a[  6] =       241.600000000000;     BAS[ATNO][  2].d[  6] =        -0.057198769481;
  BAS[ATNO][  2].a[  7] =        99.790000000000;     BAS[ATNO][  2].d[  7] =        -0.101413477982;
  BAS[ATNO][  2].a[  8] =        43.150000000000;     BAS[ATNO][  2].d[  8] =        -0.099361792258;
  BAS[ATNO][  2].a[  9] =        19.140000000000;     BAS[ATNO][  2].d[  9] =        -0.033616606229;
  BAS[ATNO][  2].a[ 10] =         7.488000000000;     BAS[ATNO][  2].d[ 10] =        -0.001592316189;
  BAS[ATNO][  2].a[ 11] =         3.205000000000;     BAS[ATNO][  2].d[ 11] =        -0.000137425139;
  BAS[ATNO][  2].a[ 12] =         0.520400000000;     BAS[ATNO][  2].d[ 12] =        -0.000008300686;
  BAS[ATNO][  2].a[ 13] =    545000.000000000000;     BAS[ATNO][  2].d[ 13] =         0.000020863921;
  BAS[ATNO][  2].a[ 14] =     81640.000000000000;     BAS[ATNO][  2].d[ 14] =         0.000161737216;
  BAS[ATNO][  2].a[ 15] =     18580.000000000000;     BAS[ATNO][  2].d[ 15] =         0.000852882465;
  BAS[ATNO][  2].a[ 16] =      5261.000000000000;     BAS[ATNO][  2].d[ 16] =         0.003565536775;
  BAS[ATNO][  2].a[ 17] =      1717.000000000000;     BAS[ATNO][  2].d[ 17] =         0.012833023864;
  BAS[ATNO][  2].a[ 18] =       619.900000000000;     BAS[ATNO][  2].d[ 18] =         0.039586064602;
  BAS[ATNO][  2].a[ 19] =       241.600000000000;     BAS[ATNO][  2].d[ 19] =         0.105937006966;
  BAS[ATNO][  2].a[ 20] =        99.790000000000;     BAS[ATNO][  2].d[ 20] =         0.222152737084;
  BAS[ATNO][  2].a[ 21] =        43.150000000000;     BAS[ATNO][  2].d[ 21] =         0.324720943428;
  BAS[ATNO][  2].a[ 22] =        19.140000000000;     BAS[ATNO][  2].d[ 22] =         0.066486061578;
  BAS[ATNO][  2].a[ 23] =         7.488000000000;     BAS[ATNO][  2].d[ 23] =        -0.780567112338;
  BAS[ATNO][  2].a[ 24] =         3.205000000000;     BAS[ATNO][  2].d[ 24] =        -0.932828268294;
  BAS[ATNO][  2].a[ 25] =         0.520400000000;     BAS[ATNO][  2].d[ 25] =         0.011717090540;
  BAS[ATNO][  2].a[ 26] =    545000.000000000000;     BAS[ATNO][  2].d[ 26] =        -0.000001648512;
  BAS[ATNO][  2].a[ 27] =     81640.000000000000;     BAS[ATNO][  2].d[ 27] =        -0.000012768792;
  BAS[ATNO][  2].a[ 28] =     18580.000000000000;     BAS[ATNO][  2].d[ 28] =        -0.000067426205;
  BAS[ATNO][  2].a[ 29] =      5261.000000000000;     BAS[ATNO][  2].d[ 29] =        -0.000281541021;
  BAS[ATNO][  2].a[ 30] =      1717.000000000000;     BAS[ATNO][  2].d[ 30] =        -0.001016770209;
  BAS[ATNO][  2].a[ 31] =       619.900000000000;     BAS[ATNO][  2].d[ 31] =        -0.003138656761;
  BAS[ATNO][  2].a[ 32] =       241.600000000000;     BAS[ATNO][  2].d[ 32] =        -0.008495703489;
  BAS[ATNO][  2].a[ 33] =        99.790000000000;     BAS[ATNO][  2].d[ 33] =        -0.018071595578;
  BAS[ATNO][  2].a[ 34] =        43.150000000000;     BAS[ATNO][  2].d[ 34] =        -0.027688518308;
  BAS[ATNO][  2].a[ 35] =        19.140000000000;     BAS[ATNO][  2].d[ 35] =        -0.005753651831;
  BAS[ATNO][  2].a[ 36] =         7.488000000000;     BAS[ATNO][  2].d[ 36] =         0.084458398633;
  BAS[ATNO][  2].a[ 37] =         3.205000000000;     BAS[ATNO][  2].d[ 37] =         0.173014569674;
  BAS[ATNO][  2].a[ 38] =         0.520400000000;     BAS[ATNO][  2].d[ 38] =        -0.298622874534;
  BAS[ATNO][  2].a[ 39] =         1.196000000000;     BAS[ATNO][  2].d[ 39] =         1.606437961870;
  BAS[ATNO][  2].a[ 40] =         0.195400000000;     BAS[ATNO][  2].d[ 40] =         0.074589094569;
  BAS[ATNO][  2].a[ 41] =        17.362000000000;     BAS[ATNO][  2].d[ 41] =        -0.200562251592;
  BAS[ATNO][  2].a[ 42] =         3.378000000000;     BAS[ATNO][  2].d[ 42] =         0.458063977383;

  // Basis function   4 L = s
  InitBFNGauss(BAS[ATNO][  3]);
  BAS[ATNO][  3].l  = 0;
  BAS[ATNO][  3].ng = 43;
  BAS[ATNO][  3].a[  0] =    545000.000000000000;     BAS[ATNO][  3].d[  0] =         0.000015150132;
  BAS[ATNO][  3].a[  1] =     81640.000000000000;     BAS[ATNO][  3].d[  1] =         0.000117693142;
  BAS[ATNO][  3].a[  2] =     18580.000000000000;     BAS[ATNO][  3].d[  2] =         0.000617524389;
  BAS[ATNO][  3].a[  3] =      5261.000000000000;     BAS[ATNO][  3].d[  3] =         0.002581981619;
  BAS[ATNO][  3].a[  4] =      1717.000000000000;     BAS[ATNO][  3].d[  4] =         0.009114514665;
  BAS[ATNO][  3].a[  5] =       619.900000000000;     BAS[ATNO][  3].d[  5] =         0.027381433617;
  BAS[ATNO][  3].a[  6] =       241.600000000000;     BAS[ATNO][  3].d[  6] =         0.066881829475;
  BAS[ATNO][  3].a[  7] =        99.790000000000;     BAS[ATNO][  3].d[  7] =         0.118581553456;
  BAS[ATNO][  3].a[  8] =        43.150000000000;     BAS[ATNO][  3].d[  8] =         0.116182542150;
  BAS[ATNO][  3].a[  9] =        19.140000000000;     BAS[ATNO][  3].d[  9] =         0.039307491153;
  BAS[ATNO][  3].a[ 10] =         7.488000000000;     BAS[ATNO][  3].d[ 10] =         0.001861876065;
  BAS[ATNO][  3].a[ 11] =         3.205000000000;     BAS[ATNO][  3].d[ 11] =         0.000160689553;
  BAS[ATNO][  3].a[ 12] =         0.520400000000;     BAS[ATNO][  3].d[ 12] =         0.000009705892;
  BAS[ATNO][  3].a[ 13] =    545000.000000000000;     BAS[ATNO][  3].d[ 13] =        -0.000032051233;
  BAS[ATNO][  3].a[ 14] =     81640.000000000000;     BAS[ATNO][  3].d[ 14] =        -0.000248461315;
  BAS[ATNO][  3].a[ 15] =     18580.000000000000;     BAS[ATNO][  3].d[ 15] =        -0.001310201227;
  BAS[ATNO][  3].a[ 16] =      5261.000000000000;     BAS[ATNO][  3].d[ 16] =        -0.005477390906;
  BAS[ATNO][  3].a[ 17] =      1717.000000000000;     BAS[ATNO][  3].d[ 17] =        -0.019714139173;
  BAS[ATNO][  3].a[ 18] =       619.900000000000;     BAS[ATNO][  3].d[ 18] =        -0.060812260239;
  BAS[ATNO][  3].a[ 19] =       241.600000000000;     BAS[ATNO][  3].d[ 19] =        -0.162740825624;
  BAS[ATNO][  3].a[ 20] =        99.790000000000;     BAS[ATNO][  3].d[ 20] =        -0.341271864131;
  BAS[ATNO][  3].a[ 21] =        43.150000000000;     BAS[ATNO][  3].d[ 21] =        -0.498837525662;
  BAS[ATNO][  3].a[ 22] =        19.140000000000;     BAS[ATNO][  3].d[ 22] =        -0.102136136026;
  BAS[ATNO][  3].a[ 23] =         7.488000000000;     BAS[ATNO][  3].d[ 23] =         1.199110112273;
  BAS[ATNO][  3].a[ 24] =         3.205000000000;     BAS[ATNO][  3].d[ 24] =         1.433014268531;
  BAS[ATNO][  3].a[ 25] =         0.520400000000;     BAS[ATNO][  3].d[ 25] =        -0.017999838234;
  BAS[ATNO][  3].a[ 26] =    545000.000000000000;     BAS[ATNO][  3].d[ 26] =         0.000014013633;
  BAS[ATNO][  3].a[ 27] =     81640.000000000000;     BAS[ATNO][  3].d[ 27] =         0.000108544672;
  BAS[ATNO][  3].a[ 28] =     18580.000000000000;     BAS[ATNO][  3].d[ 28] =         0.000573175220;
  BAS[ATNO][  3].a[ 29] =      5261.000000000000;     BAS[ATNO][  3].d[ 29] =         0.002393317792;
  BAS[ATNO][  3].a[ 30] =      1717.000000000000;     BAS[ATNO][  3].d[ 30] =         0.008643338094;
  BAS[ATNO][  3].a[ 31] =       619.900000000000;     BAS[ATNO][  3].d[ 31] =         0.026681025170;
  BAS[ATNO][  3].a[ 32] =       241.600000000000;     BAS[ATNO][  3].d[ 32] =         0.072220091552;
  BAS[ATNO][  3].a[ 33] =        99.790000000000;     BAS[ATNO][  3].d[ 33] =         0.153622626876;
  BAS[ATNO][  3].a[ 34] =        43.150000000000;     BAS[ATNO][  3].d[ 34] =         0.235373954577;
  BAS[ATNO][  3].a[ 35] =        19.140000000000;     BAS[ATNO][  3].d[ 35] =         0.048910518417;
  BAS[ATNO][  3].a[ 36] =         7.488000000000;     BAS[ATNO][  3].d[ 36] =        -0.717962119261;
  BAS[ATNO][  3].a[ 37] =         3.205000000000;     BAS[ATNO][  3].d[ 37] =        -1.470758493132;
  BAS[ATNO][  3].a[ 38] =         0.520400000000;     BAS[ATNO][  3].d[ 38] =         2.538526840784;
  BAS[ATNO][  3].a[ 39] =         1.196000000000;     BAS[ATNO][  3].d[ 39] =        -2.441237873261;
  BAS[ATNO][  3].a[ 40] =         0.195400000000;     BAS[ATNO][  3].d[ 40] =        -0.129687910998;
  BAS[ATNO][  3].a[ 41] =        17.362000000000;     BAS[ATNO][  3].d[ 41] =         0.207808687685;
  BAS[ATNO][  3].a[ 42] =         3.378000000000;     BAS[ATNO][  3].d[ 42] =         0.096953135996;

  // Basis function   5 L = s
  InitBFNGauss(BAS[ATNO][  4]);
  BAS[ATNO][  4].l  = 0;
  BAS[ATNO][  4].ng = 43;
  BAS[ATNO][  4].a[  0] =    545000.000000000000;     BAS[ATNO][  4].d[  0] =         0.000014041000;
  BAS[ATNO][  4].a[  1] =     81640.000000000000;     BAS[ATNO][  4].d[  1] =         0.000109076895;
  BAS[ATNO][  4].a[  2] =     18580.000000000000;     BAS[ATNO][  4].d[  2] =         0.000572315788;
  BAS[ATNO][  4].a[  3] =      5261.000000000000;     BAS[ATNO][  4].d[  3] =         0.002392956251;
  BAS[ATNO][  4].a[  4] =      1717.000000000000;     BAS[ATNO][  4].d[  4] =         0.008447246364;
  BAS[ATNO][  4].a[  5] =       619.900000000000;     BAS[ATNO][  4].d[  5] =         0.025376854838;
  BAS[ATNO][  4].a[  6] =       241.600000000000;     BAS[ATNO][  4].d[  6] =         0.061985449761;
  BAS[ATNO][  4].a[  7] =        99.790000000000;     BAS[ATNO][  4].d[  7] =         0.109900267114;
  BAS[ATNO][  4].a[  8] =        43.150000000000;     BAS[ATNO][  4].d[  8] =         0.107676886026;
  BAS[ATNO][  4].a[  9] =        19.140000000000;     BAS[ATNO][  4].d[  9] =         0.036429812660;
  BAS[ATNO][  4].a[ 10] =         7.488000000000;     BAS[ATNO][  4].d[ 10] =         0.001725569204;
  BAS[ATNO][  4].a[ 11] =         3.205000000000;     BAS[ATNO][  4].d[ 11] =         0.000148925565;
  BAS[ATNO][  4].a[ 12] =         0.520400000000;     BAS[ATNO][  4].d[ 12] =         0.000008995329;
  BAS[ATNO][  4].a[ 13] =    545000.000000000000;     BAS[ATNO][  4].d[ 13] =        -0.000035464297;
  BAS[ATNO][  4].a[ 14] =     81640.000000000000;     BAS[ATNO][  4].d[ 14] =        -0.000274919405;
  BAS[ATNO][  4].a[ 15] =     18580.000000000000;     BAS[ATNO][  4].d[ 15] =        -0.001449721622;
  BAS[ATNO][  4].a[ 16] =      5261.000000000000;     BAS[ATNO][  4].d[ 16] =        -0.006060665999;
  BAS[ATNO][  4].a[ 17] =      1717.000000000000;     BAS[ATNO][  4].d[ 17] =        -0.021813453712;
  BAS[ATNO][  4].a[ 18] =       619.900000000000;     BAS[ATNO][  4].d[ 18] =        -0.067288021670;
  BAS[ATNO][  4].a[ 19] =       241.600000000000;     BAS[ATNO][  4].d[ 19] =        -0.180070731758;
  BAS[ATNO][  4].a[ 20] =        99.790000000000;     BAS[ATNO][  4].d[ 20] =        -0.377613140814;
  BAS[ATNO][  4].a[ 21] =        43.150000000000;     BAS[ATNO][  4].d[ 21] =        -0.551957616841;
  BAS[ATNO][  4].a[ 22] =        19.140000000000;     BAS[ATNO][  4].d[ 22] =        -0.113012384462;
  BAS[ATNO][  4].a[ 23] =         7.488000000000;     BAS[ATNO][  4].d[ 23] =         1.326800663247;
  BAS[ATNO][  4].a[ 24] =         3.205000000000;     BAS[ATNO][  4].d[ 24] =         1.585612749378;
  BAS[ATNO][  4].a[ 25] =         0.520400000000;     BAS[ATNO][  4].d[ 25] =        -0.019916600705;
  BAS[ATNO][  4].a[ 26] =    545000.000000000000;     BAS[ATNO][  4].d[ 26] =         0.000020239181;
  BAS[ATNO][  4].a[ 27] =     81640.000000000000;     BAS[ATNO][  4].d[ 27] =         0.000156765570;
  BAS[ATNO][  4].a[ 28] =     18580.000000000000;     BAS[ATNO][  4].d[ 28] =         0.000827807926;
  BAS[ATNO][  4].a[ 29] =      5261.000000000000;     BAS[ATNO][  4].d[ 29] =         0.003456547611;
  BAS[ATNO][  4].a[ 30] =      1717.000000000000;     BAS[ATNO][  4].d[ 30] =         0.012483135229;
  BAS[ATNO][  4].a[ 31] =       619.900000000000;     BAS[ATNO][  4].d[ 31] =         0.038534052657;
  BAS[ATNO][  4].a[ 32] =       241.600000000000;     BAS[ATNO][  4].d[ 32] =         0.104303818652;
  BAS[ATNO][  4].a[ 33] =        99.790000000000;     BAS[ATNO][  4].d[ 33] =         0.221869375546;
  BAS[ATNO][  4].a[ 34] =        43.150000000000;     BAS[ATNO][  4].d[ 34] =         0.339938675598;
  BAS[ATNO][  4].a[ 35] =        19.140000000000;     BAS[ATNO][  4].d[ 35] =         0.070638983329;
  BAS[ATNO][  4].a[ 36] =         7.488000000000;     BAS[ATNO][  4].d[ 36] =        -1.036916307879;
  BAS[ATNO][  4].a[ 37] =         3.205000000000;     BAS[ATNO][  4].d[ 37] =        -2.124141964549;
  BAS[ATNO][  4].a[ 38] =         0.520400000000;     BAS[ATNO][  4].d[ 38] =         3.666265682520;
  BAS[ATNO][  4].a[ 39] =         1.196000000000;     BAS[ATNO][  4].d[ 39] =        -1.879413082692;
  BAS[ATNO][  4].a[ 40] =         0.195400000000;     BAS[ATNO][  4].d[ 40] =        -2.427979434839;
  BAS[ATNO][  4].a[ 41] =        17.362000000000;     BAS[ATNO][  4].d[ 41] =         0.176067458286;
  BAS[ATNO][  4].a[ 42] =         3.378000000000;     BAS[ATNO][  4].d[ 42] =         0.421417511666;

  // Basis function   6 L = s
  InitBFNGauss(BAS[ATNO][  5]);
  BAS[ATNO][  5].l  = 0;
  BAS[ATNO][  5].ng = 43;
  BAS[ATNO][  5].a[  0] =    545000.000000000000;     BAS[ATNO][  5].d[  0] =        -0.000055655707;
  BAS[ATNO][  5].a[  1] =     81640.000000000000;     BAS[ATNO][  5].d[  1] =        -0.000432358943;
  BAS[ATNO][  5].a[  2] =     18580.000000000000;     BAS[ATNO][  5].d[  2] =        -0.002268545036;
  BAS[ATNO][  5].a[  3] =      5261.000000000000;     BAS[ATNO][  5].d[  3] =        -0.009485198792;
  BAS[ATNO][  5].a[  4] =      1717.000000000000;     BAS[ATNO][  5].d[  4] =        -0.033483190924;
  BAS[ATNO][  5].a[  5] =       619.900000000000;     BAS[ATNO][  5].d[  5] =        -0.100588764542;
  BAS[ATNO][  5].a[  6] =       241.600000000000;     BAS[ATNO][  5].d[  6] =        -0.245697894834;
  BAS[ATNO][  5].a[  7] =        99.790000000000;     BAS[ATNO][  5].d[  7] =        -0.435622623947;
  BAS[ATNO][  5].a[  8] =        43.150000000000;     BAS[ATNO][  5].d[  8] =        -0.426809587099;
  BAS[ATNO][  5].a[  9] =        19.140000000000;     BAS[ATNO][  5].d[  9] =        -0.144400473242;
  BAS[ATNO][  5].a[ 10] =         7.488000000000;     BAS[ATNO][  5].d[ 10] =        -0.006839810352;
  BAS[ATNO][  5].a[ 11] =         3.205000000000;     BAS[ATNO][  5].d[ 11] =        -0.000590311078;
  BAS[ATNO][  5].a[ 12] =         0.520400000000;     BAS[ATNO][  5].d[ 12] =        -0.000035655681;
  BAS[ATNO][  5].a[ 13] =    545000.000000000000;     BAS[ATNO][  5].d[ 13] =         0.000037805802;
  BAS[ATNO][  5].a[ 14] =     81640.000000000000;     BAS[ATNO][  5].d[ 14] =         0.000293070770;
  BAS[ATNO][  5].a[ 15] =     18580.000000000000;     BAS[ATNO][  5].d[ 15] =         0.001545438497;
  BAS[ATNO][  5].a[ 16] =      5261.000000000000;     BAS[ATNO][  5].d[ 16] =         0.006460817315;
  BAS[ATNO][  5].a[ 17] =      1717.000000000000;     BAS[ATNO][  5].d[ 17] =         0.023253672031;
  BAS[ATNO][  5].a[ 18] =       619.900000000000;     BAS[ATNO][  5].d[ 18] =         0.071730667148;
  BAS[ATNO][  5].a[ 19] =       241.600000000000;     BAS[ATNO][  5].d[ 19] =         0.191959778312;
  BAS[ATNO][  5].a[ 20] =        99.790000000000;     BAS[ATNO][  5].d[ 20] =         0.402544789432;
  BAS[ATNO][  5].a[ 21] =        43.150000000000;     BAS[ATNO][  5].d[ 21] =         0.588400239907;
  BAS[ATNO][  5].a[ 22] =        19.140000000000;     BAS[ATNO][  5].d[ 22] =         0.120473949631;
  BAS[ATNO][  5].a[ 23] =         7.488000000000;     BAS[ATNO][  5].d[ 23] =        -1.414401766990;
  BAS[ATNO][  5].a[ 24] =         3.205000000000;     BAS[ATNO][  5].d[ 24] =        -1.690301743590;
  BAS[ATNO][  5].a[ 25] =         0.520400000000;     BAS[ATNO][  5].d[ 25] =         0.021231580605;
  BAS[ATNO][  5].a[ 26] =    545000.000000000000;     BAS[ATNO][  5].d[ 26] =         0.000020449003;
  BAS[ATNO][  5].a[ 27] =     81640.000000000000;     BAS[ATNO][  5].d[ 27] =         0.000158390781;
  BAS[ATNO][  5].a[ 28] =     18580.000000000000;     BAS[ATNO][  5].d[ 28] =         0.000836389928;
  BAS[ATNO][  5].a[ 29] =      5261.000000000000;     BAS[ATNO][  5].d[ 29] =         0.003492382129;
  BAS[ATNO][  5].a[ 30] =      1717.000000000000;     BAS[ATNO][  5].d[ 30] =         0.012612549655;
  BAS[ATNO][  5].a[ 31] =       619.900000000000;     BAS[ATNO][  5].d[ 31] =         0.038933540626;
  BAS[ATNO][  5].a[ 32] =       241.600000000000;     BAS[ATNO][  5].d[ 32] =         0.105385151078;
  BAS[ATNO][  5].a[ 33] =        99.790000000000;     BAS[ATNO][  5].d[ 33] =         0.224169526714;
  BAS[ATNO][  5].a[ 34] =        43.150000000000;     BAS[ATNO][  5].d[ 34] =         0.343462867882;
  BAS[ATNO][  5].a[ 35] =        19.140000000000;     BAS[ATNO][  5].d[ 35] =         0.071371307650;
  BAS[ATNO][  5].a[ 36] =         7.488000000000;     BAS[ATNO][  5].d[ 36] =        -1.047666165763;
  BAS[ATNO][  5].a[ 37] =         3.205000000000;     BAS[ATNO][  5].d[ 37] =        -2.146163244445;
  BAS[ATNO][  5].a[ 38] =         0.520400000000;     BAS[ATNO][  5].d[ 38] =         3.704274376907;
  BAS[ATNO][  5].a[ 39] =         1.196000000000;     BAS[ATNO][  5].d[ 39] =        -5.332656422946;
  BAS[ATNO][  5].a[ 40] =         0.195400000000;     BAS[ATNO][  5].d[ 40] =        -1.134038254719;
  BAS[ATNO][  5].a[ 41] =        17.362000000000;     BAS[ATNO][  5].d[ 41] =        -0.877999945339;
  BAS[ATNO][  5].a[ 42] =         3.378000000000;     BAS[ATNO][  5].d[ 42] =         9.089457790041;

  // Basis function   7 L = s
  InitBFNGauss(BAS[ATNO][  6]);
  BAS[ATNO][  6].l  = 0;
  BAS[ATNO][  6].ng = 43;
  BAS[ATNO][  6].a[  0] =    545000.000000000000;     BAS[ATNO][  6].d[  0] =        -0.000278562137;
  BAS[ATNO][  6].a[  1] =     81640.000000000000;     BAS[ATNO][  6].d[  1] =        -0.002163997848;
  BAS[ATNO][  6].a[  2] =     18580.000000000000;     BAS[ATNO][  6].d[  2] =        -0.011354284801;
  BAS[ATNO][  6].a[  3] =      5261.000000000000;     BAS[ATNO][  6].d[  3] =        -0.047474326829;
  BAS[ATNO][  6].a[  4] =      1717.000000000000;     BAS[ATNO][  6].d[  4] =        -0.167586571879;
  BAS[ATNO][  6].a[  5] =       619.900000000000;     BAS[ATNO][  6].d[  5] =        -0.503456383756;
  BAS[ATNO][  6].a[  6] =       241.600000000000;     BAS[ATNO][  6].d[  6] =        -1.229741454649;
  BAS[ATNO][  6].a[  7] =        99.790000000000;     BAS[ATNO][  6].d[  7] =        -2.180332882429;
  BAS[ATNO][  6].a[  8] =        43.150000000000;     BAS[ATNO][  6].d[  8] =        -2.136222790397;
  BAS[ATNO][  6].a[  9] =        19.140000000000;     BAS[ATNO][  6].d[  9] =        -0.722738174604;
  BAS[ATNO][  6].a[ 10] =         7.488000000000;     BAS[ATNO][  6].d[ 10] =        -0.034233904760;
  BAS[ATNO][  6].a[ 11] =         3.205000000000;     BAS[ATNO][  6].d[ 11] =        -0.002954563387;
  BAS[ATNO][  6].a[ 12] =         0.520400000000;     BAS[ATNO][  6].d[ 12] =        -0.000178460095;
[...]
  BAS[ATNO][  6].a[ 24] =         3.205000000000;     BAS[ATNO][  6].d[ 24] =        -7.056099762708;
  BAS[ATNO][  6].a[ 25] =         0.520400000000;     BAS[ATNO][  6].d[ 25] =         0.088630418468;
  BAS[ATNO][  6].a[ 26] =    545000.000000000000;     BAS[ATNO][  6].d[ 26] =         0.000008043518;
  BAS[ATNO][  6].a[ 27] =     81640.000000000000;     BAS[ATNO][  6].d[ 27] =         0.000062302256;
  BAS[ATNO][  6].a[ 28] =     18580.000000000000;     BAS[ATNO][  6].d[ 28] =         0.000328989978;
  BAS[ATNO][  6].a[ 29] =      5261.000000000000;     BAS[ATNO][  6].d[ 29] =         0.001373711808;
  BAS[ATNO][  6].a[ 30] =      1717.000000000000;     BAS[ATNO][  6].d[ 30] =         0.004961086087;
  BAS[ATNO][  6].a[ 31] =       619.900000000000;     BAS[ATNO][  6].d[ 31] =         0.015314322005;
  BAS[ATNO][  6].a[ 32] =       241.600000000000;     BAS[ATNO][  6].d[ 32] =         0.041452745171;
  BAS[ATNO][  6].a[ 33] =        99.790000000000;     BAS[ATNO][  6].d[ 33] =         0.088176011240;
  BAS[ATNO][  6].a[ 34] =        43.150000000000;     BAS[ATNO][  6].d[ 34] =         0.135099476467;
  BAS[ATNO][  6].a[ 35] =        19.140000000000;     BAS[ATNO][  6].d[ 35] =         0.028073562530;
  BAS[ATNO][  6].a[ 36] =         7.488000000000;     BAS[ATNO][  6].d[ 36] =        -0.412094475829;
  BAS[ATNO][  6].a[ 37] =         3.205000000000;     BAS[ATNO][  6].d[ 37] =        -0.844183048155;
  BAS[ATNO][  6].a[ 38] =         0.520400000000;     BAS[ATNO][  6].d[ 38] =         1.457058610426;
  BAS[ATNO][  6].a[ 39] =         1.196000000000;     BAS[ATNO][  6].d[ 39] =        -2.719337829268;
  BAS[ATNO][  6].a[ 40] =         0.195400000000;     BAS[ATNO][  6].d[ 40] =        -0.409173218381;
  BAS[ATNO][  6].a[ 41] =        17.362000000000;     BAS[ATNO][  6].d[ 41] =         3.242532291675;
  BAS[ATNO][  6].a[ 42] =         3.378000000000;     BAS[ATNO][  6].d[ 42] =        13.108783793539;

  // Basis function   8 L = p
  InitBFNGauss(BAS[ATNO][  7]);
  BAS[ATNO][  7].l  = 1;
  BAS[ATNO][  7].ng = 18;
  BAS[ATNO][  7].a[  0] =       761.800000000000;     BAS[ATNO][  7].d[  0] =         0.003392644744;
  BAS[ATNO][  7].a[  1] =       180.200000000000;     BAS[ATNO][  7].d[  1] =         0.027229661974;
  BAS[ATNO][  7].a[  2] =        57.500000000000;     BAS[ATNO][  7].d[  2] =         0.126099910486;
  BAS[ATNO][  7].a[  3] =        21.240000000000;     BAS[ATNO][  7].d[  3] =         0.367039734591;
  BAS[ATNO][  7].a[  4] =         8.388000000000;     BAS[ATNO][  7].d[  4] =         0.628076500630;
  BAS[ATNO][  7].a[  5] =         3.416000000000;     BAS[ATNO][  7].d[  5] =         0.497593908626;
  BAS[ATNO][  7].a[  6] =         0.452300000000;     BAS[ATNO][  7].d[  6] =        -0.007500107663;
  BAS[ATNO][  7].a[  7] =       761.800000000000;     BAS[ATNO][  7].d[  7] =        -0.000042489494;
  BAS[ATNO][  7].a[  8] =       180.200000000000;     BAS[ATNO][  7].d[  8] =        -0.000339246144;
  BAS[ATNO][  7].a[  9] =        57.500000000000;     BAS[ATNO][  7].d[  9] =        -0.001627043147;
  BAS[ATNO][  7].a[ 10] =        21.240000000000;     BAS[ATNO][  7].d[ 10] =        -0.004822000477;
  BAS[ATNO][  7].a[ 11] =         8.388000000000;     BAS[ATNO][  7].d[ 11] =        -0.008987666265;
  BAS[ATNO][  7].a[ 12] =         3.416000000000;     BAS[ATNO][  7].d[ 12] =        -0.005940076018;
  BAS[ATNO][  7].a[ 13] =         0.452300000000;     BAS[ATNO][  7].d[ 13] =         0.035818078627;
  BAS[ATNO][  7].a[ 14] =         1.206000000000;     BAS[ATNO][  7].d[ 14] =        -0.067820855697;
  BAS[ATNO][  7].a[ 15] =         0.154500000000;     BAS[ATNO][  7].d[ 15] =        -0.008170618874;
  BAS[ATNO][  7].a[ 16] =        11.019000000000;     BAS[ATNO][  7].d[ 16] =        -0.023793307306;
  BAS[ATNO][  7].a[ 17] =         4.307000000000;     BAS[ATNO][  7].d[ 17] =        -0.390458757378;

  // Basis function   9 L = p
  InitBFNGauss(BAS[ATNO][  8]);
  BAS[ATNO][  8].l  = 1;
  BAS[ATNO][  8].ng = 18;
  BAS[ATNO][  8].a[  0] =       761.800000000000;     BAS[ATNO][  8].d[  0] =        -0.002263610896;
  BAS[ATNO][  8].a[  1] =       180.200000000000;     BAS[ATNO][  8].d[  1] =        -0.018167938052;
  BAS[ATNO][  8].a[  2] =        57.500000000000;     BAS[ATNO][  8].d[  2] =        -0.084135284685;
  BAS[ATNO][  8].a[  3] =        21.240000000000;     BAS[ATNO][  8].d[  3] =        -0.244893056954;
  BAS[ATNO][  8].a[  4] =         8.388000000000;     BAS[ATNO][  8].d[  4] =        -0.419059735893;
  BAS[ATNO][  8].a[  5] =         3.416000000000;     BAS[ATNO][  8].d[  5] =        -0.332000276594;
  BAS[ATNO][  8].a[  6] =         0.452300000000;     BAS[ATNO][  8].d[  6] =         0.005004156553;
  BAS[ATNO][  8].a[  7] =       761.800000000000;     BAS[ATNO][  8].d[  7] =         0.000230155950;
  BAS[ATNO][  8].a[  8] =       180.200000000000;     BAS[ATNO][  8].d[  8] =         0.001837619394;
  BAS[ATNO][  8].a[  9] =        57.500000000000;     BAS[ATNO][  8].d[  9] =         0.008813323575;
  BAS[ATNO][  8].a[ 10] =        21.240000000000;     BAS[ATNO][  8].d[ 10] =         0.026119682540;
  BAS[ATNO][  8].a[ 11] =         8.388000000000;     BAS[ATNO][  8].d[ 11] =         0.048684148985;
  BAS[ATNO][  8].a[ 12] =         3.416000000000;     BAS[ATNO][  8].d[ 12] =         0.032176044072;
  BAS[ATNO][  8].a[ 13] =         0.452300000000;     BAS[ATNO][  8].d[ 13] =        -0.194018405309;
  BAS[ATNO][  8].a[ 14] =         1.206000000000;     BAS[ATNO][  8].d[ 14] =         0.889895020580;
  BAS[ATNO][  8].a[ 15] =         0.154500000000;     BAS[ATNO][  8].d[ 15] =         0.053599808404;
  BAS[ATNO][  8].a[ 16] =        11.019000000000;     BAS[ATNO][  8].d[ 16] =        -0.143367859923;
  BAS[ATNO][  8].a[ 17] =         4.307000000000;     BAS[ATNO][  8].d[ 17] =         0.867879733975;

  // Basis function  10 L = p
  InitBFNGauss(BAS[ATNO][  9]);
  BAS[ATNO][  9].l  = 1;
  BAS[ATNO][  9].ng = 18;
  BAS[ATNO][  9].a[  0] =       761.800000000000;     BAS[ATNO][  9].d[  0] =         0.002913388502;
  BAS[ATNO][  9].a[  1] =       180.200000000000;     BAS[ATNO][  9].d[  1] =         0.023383109666;
  BAS[ATNO][  9].a[  2] =        57.500000000000;     BAS[ATNO][  9].d[  2] =         0.108286619148;
  BAS[ATNO][  9].a[  3] =        21.240000000000;     BAS[ATNO][  9].d[  3] =         0.315190485059;
  BAS[ATNO][  9].a[  4] =         8.388000000000;     BAS[ATNO][  9].d[  4] =         0.539352332271;
  BAS[ATNO][  9].a[  5] =         3.416000000000;     BAS[ATNO][  9].d[  5] =         0.427302143723;
  BAS[ATNO][  9].a[  6] =         0.452300000000;     BAS[ATNO][  9].d[  6] =        -0.006440617594;
  BAS[ATNO][  9].a[  7] =       761.800000000000;     BAS[ATNO][  9].d[  7] =        -0.001504719090;
  BAS[ATNO][  9].a[  8] =       180.200000000000;     BAS[ATNO][  9].d[  8] =        -0.012014032136;
  BAS[ATNO][  9].a[  9] =        57.500000000000;     BAS[ATNO][  9].d[  9] =        -0.057619958185;
  BAS[ATNO][  9].a[ 10] =        21.240000000000;     BAS[ATNO][  9].d[ 10] =        -0.170765886783;
  BAS[ATNO][  9].a[ 11] =         8.388000000000;     BAS[ATNO][  9].d[ 11] =        -0.318288396538;
  BAS[ATNO][  9].a[ 12] =         3.416000000000;     BAS[ATNO][  9].d[ 12] =        -0.210361312423;
  BAS[ATNO][  9].a[ 13] =         0.452300000000;     BAS[ATNO][  9].d[ 13] =         1.268458182231;
  BAS[ATNO][  9].a[ 14] =         1.206000000000;     BAS[ATNO][  9].d[ 14] =        -0.295313113540;
  BAS[ATNO][  9].a[ 15] =         0.154500000000;     BAS[ATNO][  9].d[ 15] =        -0.161096673610;
  BAS[ATNO][  9].a[ 16] =        11.019000000000;     BAS[ATNO][  9].d[ 16] =         0.203830089548;
  BAS[ATNO][  9].a[ 17] =         4.307000000000;     BAS[ATNO][  9].d[ 17] =        -1.002448362998;

  // Basis function  11 L = p
  InitBFNGauss(BAS[ATNO][ 10]);
  BAS[ATNO][ 10].l  = 1;
  BAS[ATNO][ 10].ng = 18;
  BAS[ATNO][ 10].a[  0] =       761.800000000000;     BAS[ATNO][ 10].d[  0] =        -0.001596501548;
  BAS[ATNO][ 10].a[  1] =       180.200000000000;     BAS[ATNO][ 10].d[  1] =        -0.012813660368;
  BAS[ATNO][ 10].a[  2] =        57.500000000000;     BAS[ATNO][ 10].d[  2] =        -0.059339753353;
  BAS[ATNO][ 10].a[  3] =        21.240000000000;     BAS[ATNO][ 10].d[  3] =        -0.172720561320;
  BAS[ATNO][ 10].a[  4] =         8.388000000000;     BAS[ATNO][ 10].d[  4] =        -0.295558533633;
  BAS[ATNO][ 10].a[  5] =         3.416000000000;     BAS[ATNO][ 10].d[  5] =        -0.234156389916;
  BAS[ATNO][ 10].a[  6] =         0.452300000000;     BAS[ATNO][ 10].d[  6] =         0.003529380292;
  BAS[ATNO][ 10].a[  7] =       761.800000000000;     BAS[ATNO][ 10].d[  7] =         0.000452079336;
  BAS[ATNO][ 10].a[  8] =       180.200000000000;     BAS[ATNO][ 10].d[  8] =         0.003609508054;
  BAS[ATNO][ 10].a[  9] =        57.500000000000;     BAS[ATNO][ 10].d[  9] =         0.017311398935;
  BAS[ATNO][ 10].a[ 10] =        21.240000000000;     BAS[ATNO][ 10].d[ 10] =         0.051305076985;
  BAS[ATNO][ 10].a[ 11] =         8.388000000000;     BAS[ATNO][ 10].d[ 11] =         0.095626890097;
  BAS[ATNO][ 10].a[ 12] =         3.416000000000;     BAS[ATNO][ 10].d[ 12] =         0.063201167000;
  BAS[ATNO][ 10].a[ 13] =         0.452300000000;     BAS[ATNO][ 10].d[ 13] =        -0.381096868451;
  BAS[ATNO][ 10].a[ 14] =         1.206000000000;     BAS[ATNO][ 10].d[ 14] =        -0.609398882974;
  BAS[ATNO][ 10].a[ 15] =         0.154500000000;     BAS[ATNO][ 10].d[ 15] =         1.151876961190;
  BAS[ATNO][ 10].a[ 16] =        11.019000000000;     BAS[ATNO][ 10].d[ 16] =        -0.200839973410;
  BAS[ATNO][ 10].a[ 17] =         4.307000000000;     BAS[ATNO][ 10].d[ 17] =         1.093068268513;

  // Basis function  12 L = p
  InitBFNGauss(BAS[ATNO][ 11]);
  BAS[ATNO][ 11].l  = 1;
  BAS[ATNO][ 11].ng = 18;
  BAS[ATNO][ 11].a[  0] =       761.800000000000;     BAS[ATNO][ 11].d[  0] =        -0.000783709745;
  BAS[ATNO][ 11].a[  1] =       180.200000000000;     BAS[ATNO][ 11].d[  1] =        -0.006290122617;
  BAS[ATNO][ 11].a[  2] =        57.500000000000;     BAS[ATNO][ 11].d[  2] =        -0.029129406734;
  BAS[ATNO][ 11].a[  3] =        21.240000000000;     BAS[ATNO][ 11].d[  3] =        -0.084787131691;
  BAS[ATNO][ 11].a[  4] =         8.388000000000;     BAS[ATNO][ 11].d[  4] =        -0.145087302416;
  BAS[ATNO][ 11].a[  5] =         3.416000000000;     BAS[ATNO][ 11].d[  5] =        -0.114945484871;
  BAS[ATNO][ 11].a[  6] =         0.452300000000;     BAS[ATNO][ 11].d[  6] =         0.001732544344;
  BAS[ATNO][ 11].a[  7] =       761.800000000000;     BAS[ATNO][ 11].d[  7] =         0.002582301954;
  BAS[ATNO][ 11].a[  8] =       180.200000000000;     BAS[ATNO][ 11].d[  8] =         0.020617707890;
  BAS[ATNO][ 11].a[  9] =        57.500000000000;     BAS[ATNO][ 11].d[  9] =         0.098883659799;
  BAS[ATNO][ 11].a[ 10] =        21.240000000000;     BAS[ATNO][ 11].d[ 10] =         0.293057412500;
  BAS[ATNO][ 11].a[ 11] =         8.388000000000;     BAS[ATNO][ 11].d[ 11] =         0.546226038908;
  BAS[ATNO][ 11].a[ 12] =         3.416000000000;     BAS[ATNO][ 11].d[ 12] =         0.361008530861;
  BAS[ATNO][ 11].a[ 13] =         0.452300000000;     BAS[ATNO][ 11].d[ 13] =        -2.176846205946;
  BAS[ATNO][ 11].a[ 14] =         1.206000000000;     BAS[ATNO][ 11].d[ 14] =         2.194938278432;
  BAS[ATNO][ 11].a[ 15] =         0.154500000000;     BAS[ATNO][ 11].d[ 15] =         1.146369041488;
  BAS[ATNO][ 11].a[ 16] =        11.019000000000;     BAS[ATNO][ 11].d[ 16] =         0.290277369311;
  BAS[ATNO][ 11].a[ 17] =         4.307000000000;     BAS[ATNO][ 11].d[ 17] =        -2.015821482287;

  // Basis function  13 L = p
  InitBFNGauss(BAS[ATNO][ 12]);
  BAS[ATNO][ 12].l  = 1;
  BAS[ATNO][ 12].ng = 18;
  BAS[ATNO][ 12].a[  0] =       761.800000000000;     BAS[ATNO][ 12].d[  0] =        -0.015083125730;
  BAS[ATNO][ 12].a[  1] =       180.200000000000;     BAS[ATNO][ 12].d[  1] =        -0.121058479790;
  BAS[ATNO][ 12].a[  2] =        57.500000000000;     BAS[ATNO][ 12].d[  2] =        -0.560618911814;
  BAS[ATNO][ 12].a[  3] =        21.240000000000;     BAS[ATNO][ 12].d[  3] =        -1.631796690469;
  BAS[ATNO][ 12].a[  4] =         8.388000000000;     BAS[ATNO][ 12].d[  4] =        -2.792322079876;
  BAS[ATNO][ 12].a[  5] =         3.416000000000;     BAS[ATNO][ 12].d[  5] =        -2.212218505988;
  BAS[ATNO][ 12].a[  6] =         0.452300000000;     BAS[ATNO][ 12].d[  6] =         0.033344212382;
  BAS[ATNO][ 12].a[  7] =       761.800000000000;     BAS[ATNO][ 12].d[  7] =         0.000681003666;
  BAS[ATNO][ 12].a[  8] =       180.200000000000;     BAS[ATNO][ 12].d[  8] =         0.005437293895;
  BAS[ATNO][ 12].a[  9] =        57.500000000000;     BAS[ATNO][ 12].d[  9] =         0.026077560253;
  BAS[ATNO][ 12].a[ 10] =        21.240000000000;     BAS[ATNO][ 12].d[ 10] =         0.077284986695;
  BAS[ATNO][ 12].a[ 11] =         8.388000000000;     BAS[ATNO][ 12].d[ 11] =         0.144050518257;
  BAS[ATNO][ 12].a[ 12] =         3.416000000000;     BAS[ATNO][ 12].d[ 12] =         0.095205029166;
  BAS[ATNO][ 12].a[ 13] =         0.452300000000;     BAS[ATNO][ 12].d[ 13] =        -0.574077033673;
  BAS[ATNO][ 12].a[ 14] =         1.206000000000;     BAS[ATNO][ 12].d[ 14] =         1.051718517076;
  BAS[ATNO][ 12].a[ 15] =         0.154500000000;     BAS[ATNO][ 12].d[ 15] =         0.169311716461;
  BAS[ATNO][ 12].a[ 16] =        11.019000000000;     BAS[ATNO][ 12].d[ 16] =         4.711251582564;
  BAS[ATNO][ 12].a[ 17] =         4.307000000000;     BAS[ATNO][ 12].d[ 17] =         1.164693743163;

  // Basis function  14 L = d
  InitBFNGauss(BAS[ATNO][ 13]);
  BAS[ATNO][ 13].l  = 2;
  BAS[ATNO][ 13].ng = 4;
  BAS[ATNO][ 13].a[  0] =         0.410000000000;     BAS[ATNO][ 13].d[  0] =        -0.116988817704;
  BAS[ATNO][ 13].a[  1] =         1.254000000000;     BAS[ATNO][ 13].d[  1] =         0.578508285625;
  BAS[ATNO][ 13].a[  2] =        20.706000000000;     BAS[ATNO][ 13].d[  2] =         0.067934755677;
  BAS[ATNO][ 13].a[  3] =         6.681000000000;     BAS[ATNO][ 13].d[  3] =         0.655173596783;

  // Basis function  15 L = d
  InitBFNGauss(BAS[ATNO][ 14]);
  BAS[ATNO][ 14].l  = 2;
  BAS[ATNO][ 14].ng = 4;
  BAS[ATNO][ 14].a[  0] =         0.410000000000;     BAS[ATNO][ 14].d[  0] =        -0.456591107417;
  BAS[ATNO][ 14].a[  1] =         1.254000000000;     BAS[ATNO][ 14].d[  1] =        -0.585765929243;
  BAS[ATNO][ 14].a[  2] =        20.706000000000;     BAS[ATNO][ 14].d[  2] =         0.076882492222;
  BAS[ATNO][ 14].a[  3] =         6.681000000000;     BAS[ATNO][ 14].d[  3] =         0.586120948714;

  // Basis function  16 L = d
  InitBFNGauss(BAS[ATNO][ 15]);
  BAS[ATNO][ 15].l  = 2;
  BAS[ATNO][ 15].ng = 4;
  BAS[ATNO][ 15].a[  0] =         0.410000000000;     BAS[ATNO][ 15].d[  0] =         1.166714282571;
  BAS[ATNO][ 15].a[  1] =         1.254000000000;     BAS[ATNO][ 15].d[  1] =        -1.032377421470;
  BAS[ATNO][ 15].a[  2] =        20.706000000000;     BAS[ATNO][ 15].d[  2] =         0.070089297750;
  BAS[ATNO][ 15].a[  3] =         6.681000000000;     BAS[ATNO][ 15].d[  3] =         0.456961649524;

  // Basis function  17 L = d
  InitBFNGauss(BAS[ATNO][ 16]);
  BAS[ATNO][ 16].l  = 2;
  BAS[ATNO][ 16].ng = 4;
  BAS[ATNO][ 16].a[  0] =         0.410000000000;     BAS[ATNO][ 16].d[  0] =        -0.134507944460;
  BAS[ATNO][ 16].a[  1] =         1.254000000000;     BAS[ATNO][ 16].d[  1] =         0.308692019171;
  BAS[ATNO][ 16].a[  2] =        20.706000000000;     BAS[ATNO][ 16].d[  2] =         1.250881107572;
  BAS[ATNO][ 16].a[  3] =         6.681000000000;     BAS[ATNO][ 16].d[  3] =        -0.913545348544;

  // Basis function  18 L = f
  InitBFNGauss(BAS[ATNO][ 17]);
  BAS[ATNO][ 17].l  = 3;
  BAS[ATNO][ 17].ng = 2;
  BAS[ATNO][ 17].a[  0] =         0.890000000000;     BAS[ATNO][ 17].d[  0] =         0.998792523194;
  BAS[ATNO][ 17].a[  1] =        13.674000000000;     BAS[ATNO][ 17].d[  1] =         0.024738216395;

  // Basis function  19 L = f
  InitBFNGauss(BAS[ATNO][ 18]);
  BAS[ATNO][ 18].l  = 3;
  BAS[ATNO][ 18].ng = 2;
  BAS[ATNO][ 18].a[  0] =         0.890000000000;     BAS[ATNO][ 18].d[  0] =        -0.061190495049;
  BAS[ATNO][ 18].a[  1] =        13.674000000000;     BAS[ATNO][ 18].d[  1] =         1.000359336300;

-------
TIMINGS
-------

Total SCF time: 0 days 0 hours 0 min 2 sec 

Total time                  ....       2.269 sec
Sum of individual times     ....       2.068 sec  ( 91.1%)

Fock matrix formation       ....       1.601 sec  ( 70.6%)
  XC integration            ....       0.034 sec  (  2.1% of F)
    Basis function eval.    ....       0.007 sec  ( 20.0% of XC)
    Density eval.           ....       0.002 sec  (  5.4% of XC)
    XC-Functional eval.     ....       0.002 sec  (  5.2% of XC)
    XC-Potential eval.      ....       0.002 sec  (  6.6% of XC)
Diagonalization             ....       0.003 sec  (  0.1%)
Density matrix formation    ....       0.001 sec  (  0.0%)
Population analysis         ....       0.001 sec  (  0.0%)
Initial guess               ....       0.091 sec  (  4.0%)
Orbital Transformation      ....       0.000 sec  (  0.0%)
Orbital Orthonormalization  ....       0.000 sec  (  0.0%)
DIIS solution               ....       0.000 sec  (  0.0%)
SOSCF solution              ....       0.001 sec  (  0.0%)
Grid generation             ....       0.371 sec  ( 16.3%)

-------------------------   --------------------
FINAL SINGLE POINT ENERGY      -311.545377217024
-------------------------   --------------------


                            ***************************************
                            *     ORCA property calculations      *
                            ***************************************

                                    ---------------------
                                    Active property flags
                                    ---------------------
   (+) Dipole Moment


------------------------------------------------------------------------------
                       ORCA ELECTRIC PROPERTIES CALCULATION
------------------------------------------------------------------------------

Dipole Moment Calculation                       ... on
Quadrupole Moment Calculation                   ... off
Polarizability Calculation                      ... off
GBWName                                         ... Ar_cc-pcvtz_2192.575824_.gbw
Electron density file                           ... Ar_cc-pcvtz_2192.575824_.scfp
The origin for moment calculation is the CENTER OF MASS  = ( 0.000000,  0.000000  0.000000)

-------------
DIPOLE MOMENT
-------------
                                X             Y             Z
Electronic contribution:     -0.00000       0.00000       0.00000
Nuclear contribution   :      0.00000       0.00000       0.00000
                        -----------------------------------------
Total Dipole Moment    :     -0.00000       0.00000       0.00000
                        -----------------------------------------
Magnitude (a.u.)       :      0.00000
Magnitude (Debye)      :      0.00000



--------------------
Rotational spectrum 
--------------------
 
Rotational constants in cm-1:     0.000000     0.000000     0.000000 
Rotational constants in MHz :     0.000000     0.000000     0.000000 

 Dipole components along the rotational axes: 
x,y,z [a.u.] :    -0.000000     0.000000     0.000000 
x,y,z [Debye]:    -0.000000     0.000000     0.000000 

 

Timings for individual modules:

Sum of individual times         ...        3.466 sec (=   0.058 min)
GTO integral calculation        ...        0.592 sec (=   0.010 min)  17.1 %
Relativistic integrals          ...        0.350 sec (=   0.006 min)  10.1 %
SCF iterations                  ...        2.523 sec (=   0.042 min)  72.8 %
                             ****ORCA TERMINATED NORMALLY****
TOTAL RUN TIME: 0 days 0 hours 0 minutes 3 seconds 808 msec
