
                                 *****************
                                 * O   R   C   A *
                                 *****************

           --- An Ab Initio, DFT and Semiempirical electronic structure package ---

                  #######################################################
                  #                        -***-                        #
                  #          Department of theory and spectroscopy      #
                  #               Directorship: Frank Neese             #
                  #        Max Planck Institute fuer Kohlenforschung    #
                  #                Kaiser Wilhelm Platz 1               #
                  #                 D-45470 Muelheim/Ruhr               #
                  #                      Germany                        #
                  #                                                     #
                  #                  All rights reserved                #
                  #                        -***-                        #
                  #######################################################


                         Program Version 4.2.1 -  RELEASE  -


 With contributions from (in alphabetic order):
   Daniel Aravena         : Magnetic Suceptibility
   Michael Atanasov       : Ab Initio Ligand Field Theory (pilot matlab implementation)
   Alexander A. Auer      : GIAO ZORA, VPT2
   Ute Becker             : Parallelization
   Giovanni Bistoni       : ED, misc. LED, open-shell LED, HFLD
   Martin Brehm           : Molecular dynamics
   Dmytro Bykov           : SCF Hessian
   Vijay G. Chilkuri      : MRCI spin determinant printing, contributions to CSF-ICE
   Dipayan Datta          : RHF DLPNO-CCSD density
   Achintya Kumar Dutta   : EOM-CC, STEOM-CC
   Dmitry Ganyushin       : Spin-Orbit,Spin-Spin,Magnetic field MRCI
   Miquel Garcia          : C-PCM Hessian, Gaussian charge scheme
   Yang Guo               : DLPNO-NEVPT2, CIM, IAO-localization
   Andreas Hansen         : Spin unrestricted coupled pair/coupled cluster methods
   Benjamin Helmich-Paris : CASSCF linear response (MC-RPA)
   Lee Huntington         : MR-EOM, pCC
   Robert Izsak           : Overlap fitted RIJCOSX, COSX-SCS-MP3, EOM
   Christian Kollmar      : KDIIS, OOCD, Brueckner-CCSD(T), CCSD density
   Simone Kossmann        : Meta GGA functionals, TD-DFT gradient, OOMP2, MP2 Hessian
   Martin Krupicka        : AUTO-CI
   Lucas Lang             : DCDCAS
   Dagmar Lenk            : GEPOL surface, SMD
   Dimitrios Liakos       : Extrapolation schemes; Compound Job, initial MDCI parallelization
   Dimitrios Manganas     : Further ROCIS development; embedding schemes
   Dimitrios Pantazis     : SARC Basis sets
   Taras Petrenko         : DFT Hessian,TD-DFT gradient, ASA, ECA, R-Raman, ABS, FL, XAS/XES, NRVS
   Peter Pinski           : DLPNO-MP2, DLPNO-MP2 Gradient
   Christoph Reimann      : Effective Core Potentials
   Marius Retegan         : Local ZFS, SOC
   Christoph Riplinger    : Optimizer, TS searches, QM/MM, DLPNO-CCSD(T), (RO)-DLPNO pert. Triples
   Tobias Risthaus        : Range-separated hybrids, TD-DFT gradient, RPA, STAB
   Michael Roemelt        : Original ROCIS implementation
   Masaaki Saitow         : Open-shell DLPNO-CCSD energy and density
   Barbara Sandhoefer     : DKH picture change effects
   Avijit Sen             : IP-ROCIS
   Kantharuban Sivalingam : CASSCF convergence, NEVPT2, FIC-MRCI
   Bernardo de Souza      : ESD, SOC TD-DFT
   Georgi Stoychev        : AutoAux, RI-MP2 NMR
   Willem Van den Heuvel  : Paramagnetic NMR
   Boris Wezisla          : Elementary symmetry handling
   Frank Wennmohs         : Technical directorship


 We gratefully acknowledge several colleagues who have allowed us to
 interface, adapt or use parts of their codes:
   Stefan Grimme, W. Hujo, H. Kruse,             : VdW corrections, initial TS optimization,
                  C. Bannwarth                     DFT functionals, gCP, sTDA/sTD-DF
   Ed Valeev, F. Pavosevic, A. Kumar             : LibInt (2-el integral package), F12 methods
   Garnet Chan, S. Sharma, J. Yang, R. Olivares  : DMRG
   Ulf Ekstrom                                   : XCFun DFT Library
   Mihaly Kallay                                 : mrcc  (arbitrary order and MRCC methods)
   Andreas Klamt, Michael Diedenhofen            : otool_cosmo (COSMO solvation model)
   Jiri Pittner, Ondrej Demel                    : Mk-CCSD
   Frank Weinhold                                : gennbo (NPA and NBO analysis)
   Christopher J. Cramer and Donald G. Truhlar   : smd solvation model
   Lars Goerigk                                  : TD-DFT with DH, B97 family of functionals
   V. Asgeirsson, H. Jonsson                     : NEB implementation
   FAccTs GmbH                                   : IRC, NEB, NEB-TS, Multilevel, MM, QM/MM, CI optimization
   S Lehtola, MJT Oliveira, MAL Marques          : LibXC Library


 Your calculation uses the libint2 library for the computation of 2-el integrals
 For citations please refer to: http://libint.valeyev.net

 Your ORCA version has been built with support for libXC version: 4.2.3
 For citations please refer to: https://tddft.org/programs/libxc/

 This ORCA versions uses:
   CBLAS   interface :  Fast vector & matrix operations
   LAPACKE interface :  Fast linear algebra routines
   SCALAPACK package :  Parallel linear algebra routines


----- Orbital basis set information -----
Your calculation utilizes the basis: cc-pCVQZ 
             H : cc-pVQZ. Obtained from the ccRepo (grant-hill.group.shef.ac.uk/ccrepo) Feb. 2017
                 T. H. Dunning, Jr., J. Chem. Phys. 90, 1007 (1989)
            He : cc-pVQZ. Obtained from the ccRepo (grant-hill.group.shef.ac.uk/ccrepo) Feb. 2017
                 D. E. Woon, T. H. Dunning, Jr., J. Chem. Phys. 100, 2975 (1994)
  Li-Be, Na-Mg : Obtained from the ccRepo (grant-hill.group.shef.ac.uk/ccrepo) Feb. 2017
                 B. P. Prascher, D. E. Woon, K. A. Peterson, T. H. Dunning, Jr., A. K. Wilson, Theor. Chem. Acc. 128, 69 (2011)
          B-Ne : Obtained from the ccRepo (grant-hill.group.shef.ac.uk/ccrepo) Feb. 2017
                 D. E. Woon, T. H. Dunning, Jr., J. Chem. Phys. 103, 4572 (1995)
                  K. A. Peterson, T. H. Dunning, Jr., J. Chem. Phys. 117, 10548 (2002)
         Al-Ar : Obtained from the EMSL Basis Set Exchange (bse.pnl.gov) Feb. 2017
                 K. A. Peterson, T. H. Dunning, Jr., J. Chem. Phys. 117, 10548 (2002)
            Ca : Obtained from the Peterson Research Group Website (tyr0.chem.wsu.edu/~kipeters) Feb. 2017
                 J. Koput, K. A. Peterson, J. Phys. Chem. A 106, 9595 (2002)
         Ga-Kr : Obtained from the Peterson Research Group Website (tyr0.chem.wsu.edu/~kipeters) Feb. 2017
                 N. J. DeYonker, K. A. Peterson, A. K. Wilson, J. Phys. Chem. A 111, 11383 (2007)

================================================================================
                                        WARNINGS
                       Please study these warnings very carefully!
================================================================================


INFO   : the flag for use of LIBINT has been found!

================================================================================
                                       INPUT FILE
================================================================================
NAME = Ar_cc-pcvqz_34.25899725_.inp
|  1> ! LDA cc-pcvqz nori grid5 finalgrid6 verytightscf
|  2> %Pal NProcs 18 End
|  3> 
|  4> % REL
|  5>   Method ZORA
|  6>   ModelPot 1, 0, 0, 0
|  7>   velit 34.25899725
|  8> END
|  9> 
| 10> *xyz 16 1
| 11> Ar 0.0 0.0 0.0
| 12> **                         ****END OF INPUT****
================================================================================

                       ****************************
                       * Single Point Calculation *
                       ****************************

---------------------------------
CARTESIAN COORDINATES (ANGSTROEM)
---------------------------------
  Ar     0.000000    0.000000    0.000000

----------------------------
CARTESIAN COORDINATES (A.U.)
----------------------------
  NO LB      ZA    FRAG     MASS         X           Y           Z
   0 Ar   18.0000    0    39.948    0.000000    0.000000    0.000000

--------------------------------
INTERNAL COORDINATES (ANGSTROEM)
--------------------------------
 Ar     0   0   0     0.000000000000     0.00000000     0.00000000

---------------------------
INTERNAL COORDINATES (A.U.)
---------------------------
 Ar     0   0   0     0.000000000000     0.00000000     0.00000000

---------------------
BASIS SET INFORMATION
---------------------
There are 1 groups of distinct atoms

 Group   1 Type Ar  : 45s22p6d4f2g contracted to 9s8p6d4f2g pattern {131313111111/88111111/111111/1111/11}

Atom   0Ar   basis set group =>   1


           ************************************************************
           *        Program running with 18 parallel MPI-processes    *
           *              working on a common directory               *
           ************************************************************
------------------------------------------------------------------------------
                           ORCA GTO INTEGRAL CALCULATION
------------------------------------------------------------------------------

                         BASIS SET STATISTICS AND STARTUP INFO

 # of primitive gaussian shells          ...   79
 # of primitive gaussian functions       ...  187
 # of contracted shells                  ...   29
 # of contracted basis functions         ...  109
 Highest angular momentum                ...    4
 Maximum contraction depth               ...   13
 Integral package used                   ... LIBINT
 Integral threshhold            Thresh   ...  1.000e-12
 Primitive cut-off              TCut     ...  1.000e-14


------------------------------ INTEGRAL EVALUATION ----------------------------


 * One electron integrals 
 Pre-screening matrix                    ... done
 Shell pair data                         ... done (   0.000 sec)



           ************************************************************
           *        Program running with 18 parallel MPI-processes    *
           *              working on a common directory               *
           ************************************************************
------------------------------------------------------------------------------
                          ORCA RELATIVISTIC HAMILTONIAN
------------------------------------------------------------------------------

Relativistic Method            ... ZORA(MP)
Treatment of potential         ... Van Wuellen
Nucleus model                  ... Point Nucleus
Speed of light used            ...  34.25899725000000


            *************************************************
            *         ZERO ORDER REGULAR APPROXIMATION      *
            *                     ZORA(MP)                  *
            *            Programmed by FN according to      *
            *                   C. van Wuellen              *
            *       J. Chem. Phys. (1998) vol 109, 392-399  *
            *************************************************

Terms included in model potential: +V(e,N)
Basis function cutoff value   ... 1.000000e-12
Loading the fitted atomic densities  (DKH4)  ... done
Calculating the cutoffs                      ... done
Number of fit functions                      ... 15
Setting up the integration grid ... done


           ************************************************************
           *        Program running with 18 parallel MPI-processes    *
           *              working on a common directory               *
           ************************************************************
-------------------------------------------------------------------------------
                                 ORCA SCF
-------------------------------------------------------------------------------

------------
SCF SETTINGS
------------
Hamiltonian:
 Density Functional     Method          .... DFT(GTOs)
 Exchange Functional    Exchange        .... Slater
   X-Alpha parameter    XAlpha          ....  0.666667
 Correlation Functional Correlation     .... VWN-5
 Gradients option       PostSCFGGA      .... off
   Density functional embedding theory  .... OFF

Relativistic Settings:
 Scalar relativistic method             .... ZORA
 Speed of light used       Velit        ....       34.2589973
Orbital energies will be scaled


General Settings:
 Integral files         IntName         .... Ar_cc-pcvqz_34.25899725_
 Hartree-Fock type      HFTyp           .... RHF
 Total Charge           Charge          ....   16
 Multiplicity           Mult            ....    1
 Number of Electrons    NEL             ....    2
 Basis Dimension        Dim             ....  109
 Nuclear Repulsion      ENuc            ....      0.0000000000 Eh

Convergence Acceleration:
 DIIS                   CNVDIIS         .... on
   Start iteration      DIISMaxIt       ....    12
   Startup error        DIISStart       ....  0.200000
   # of expansion vecs  DIISMaxEq       ....     5
   Bias factor          DIISBfac        ....   1.050
   Max. coefficient     DIISMaxC        ....  10.000
 Newton-Raphson         CNVNR           .... off
 SOSCF                  CNVSOSCF        .... on
   Start iteration      SOSCFMaxIt      ....   150
   Startup grad/error   SOSCFStart      ....  0.003300
 Level Shifting         CNVShift        .... on
   Level shift para.    LevelShift      ....    0.2500
   Turn off err/grad.   ShiftErr        ....    0.0010
 Zerner damping         CNVZerner       .... off
 Static damping         CNVDamp         .... on
   Fraction old density DampFac         ....    0.7000
   Max. Damping (<1)    DampMax         ....    0.9800
   Min. Damping (>=0)   DampMin         ....    0.0000
   Turn off err/grad.   DampErr         ....    0.1000
 Fernandez-Rico         CNVRico         .... off

SCF Procedure:
 Maximum # iterations   MaxIter         ....   125
 SCF integral mode      SCFMode         .... Direct
   Integral package                     .... LIBINT
 Reset frequency        DirectResetFreq ....    20
 Integral Threshold     Thresh          ....  1.000e-12 Eh
 Primitive CutOff       TCut            ....  1.000e-14 Eh

Convergence Tolerance:
 Convergence Check Mode ConvCheckMode   .... Total+1el-Energy
 Convergence forced     ConvForced      .... 0
 Energy Change          TolE            ....  1.000e-09 Eh
 1-El. energy change                    ....  1.000e-06 Eh
 Orbital Gradient       TolG            ....  2.000e-06
 Orbital Rotation angle TolX            ....  2.000e-06
 DIIS Error             TolErr          ....  1.000e-08


Diagonalization of the overlap matrix:
Smallest eigenvalue                        ... 2.338e-05
Time for diagonalization                   ...    0.002 sec
Threshold for overlap eigenvalues          ... 1.000e-08
Number of eigenvalues below threshold      ... 0
Time for construction of square roots      ...    0.001 sec
Total time needed                          ...    0.004 sec

-------------------
DFT GRID GENERATION
-------------------

General Integration Accuracy     IntAcc      ...  5.010
Radial Grid Type                 RadialGrid  ... Gauss-Chebyshev
Angular Grid (max. acc.)         AngularGrid ... Lebedev-434
Angular grid pruning method      GridPruning ... 3 (G Style)
Weight generation scheme         WeightScheme... Becke
Basis function cutoff            BFCut       ...    1.0000e-12
Integration weight cutoff        WCut        ...    1.0000e-14
Grids for H and He will be reduced by one unit

# of grid points (after initial pruning)     ...  11992 (   0.0 sec)
# of grid points (after weights+screening)   ...  11992 (   0.0 sec)
Grid point division into batches done        ...    0.1 sec
Reduced shell lists constructed in    0.1 sec

Total number of grid points                  ...    11992
Total number of batches                      ...      188
Average number of points per batch           ...       63
Average number of grid points per atom       ...    11992
Average number of shells per batch           ...     0.00 ( 0.00%)
Average number of basis functions per batch  ...     0.00 ( 0.00%)
Average number of large shells per batch     ...     0.00 ( -nan%)
Average number of large basis fcns per batch ...     0.00 ( -nan%)
Maximum spatial batch extension              ...  18.71, 18.71, 18.71 au
Average spatial batch extension              ...   0.97,  0.98,  0.97 au

Time for grid setup =    0.148 sec

------------------------------
INITIAL GUESS: MODEL POTENTIAL
------------------------------
Loading ZORA relativistic densities                ... done
Calculating cut-offs                               ... done
Setting up the integral package                    ... done
Initializing the effective Hamiltonian             ... done
Starting the Coulomb interaction                   ... done (   0.0 sec)
Reading the grid                                   ... done
Mapping shells                                     ... done
Starting the XC term evaluation                    ... done (   0.0 sec)
  promolecular density results
     # of electrons  =     18.000000116
     EX              =    -28.047870263
     EC              =     -1.433252902
     EX+EC           =    -29.481123164
Transforming the Hamiltonian                       ... done (   0.0 sec)
Diagonalizing the Hamiltonian                      ... done (   0.0 sec)
Back transforming the eigenvectors                 ... done (   0.0 sec)
Now organizing SCF variables                       ... done
                      ------------------
                      INITIAL GUESS DONE (   0.2 sec)
                      ------------------
--------------
SCF ITERATIONS
--------------
ITER       Energy         Delta-E        Max-DP      RMS-DP      [F,P]     Damp
               ***  Starting incremental Fock matrix formation  ***
  0   -358.5076881520   0.000000000000 3.25486923  0.04683169  0.7670742 0.7000
                      *** Initiating the SOSCF procedure ***
                      *** Re-Reading the Fockian *** 
                      *** Removing any level shift *** 
ITER      Energy       Delta-E        Grad      Rot      Max-DP    RMS-DP
  1   -358.50942620  -0.0017380476  0.001985  0.001985  7.618719  0.109614
               *** Restarting incremental Fock matrix formation ***
  2   -358.51347161  -0.0040454093  0.003758  0.000016  0.041459  0.000582
  3   -358.51347185  -0.0000002415  0.000125  0.000001  0.001377  0.000019
                 **** Energy Check signals convergence ****
              ***Rediagonalizing the Fockian in SOSCF/NRSCF***

               *****************************************************
               *                     SUCCESS                       *
               *           SCF CONVERGED AFTER   4 CYCLES          *
               *****************************************************

Setting up the final grid:

General Integration Accuracy     IntAcc      ...  5.340
Radial Grid Type                 RadialGrid  ... Gauss-Chebyshev
Angular Grid (max. acc.)         AngularGrid ... Lebedev-590
Angular grid pruning method      GridPruning ... 3 (G Style)
Weight generation scheme         WeightScheme... Becke
Basis function cutoff            BFCut       ...    1.0000e-12
Integration weight cutoff        WCut        ...    1.0000e-14
Grids for H and He will be reduced by one unit

# of grid points (after initial pruning)     ...  18110 (   0.0 sec)
# of grid points (after weights+screening)   ...  18110 (   0.0 sec)
Grid point division into batches done        ...    0.2 sec
Reduced shell lists constructed in    0.2 sec

Total number of grid points                  ...    18110
Total number of batches                      ...      283
Average number of points per batch           ...       63
Average number of grid points per atom       ...    18110
Average number of shells per batch           ...     0.00 ( 0.00%)
Average number of basis functions per batch  ...     0.00 ( 0.00%)
Average number of large shells per batch     ...     0.00 ( -nan%)
Average number of large basis fcns per batch ...     0.00 ( -nan%)
Maximum spatial batch extension              ...  19.03, 19.03, 19.03 au
Average spatial batch extension              ...   0.84,  0.84,  0.80 au

Final grid set up in    0.2 sec
Final integration                            ... done (   0.0 sec)
Change in XC energy                          ...     0.000000041
Integrated number of electrons               ...     1.999999977
Previous integrated no of electrons          ...     2.000000104

----------------
TOTAL SCF ENERGY
----------------

Total Energy       :         -358.51347181 Eh           -9755.64754 eV

Components:
Nuclear Repulsion  :            0.00000000 Eh               0.00000 eV
Electronic Energy  :         -358.51347181 Eh           -9755.64754 eV
One Electron Energy:         -373.28176634 Eh          -10157.51326 eV
Two Electron Energy:           14.76829453 Eh             401.86572 eV

Virial components:
Potential Energy   :         -759.11039213 Eh          -20656.44392 eV
Kinetic Energy     :          400.59692032 Eh           10900.79639 eV
Virial Ratio       :            1.89494815


DFT components:
N(Alpha)           :        0.999999988425 electrons
N(Beta)            :        0.999999988425 electrons
N(Total)           :        1.999999976849 electrons
E(X)               :      -11.353492582098 Eh       
E(C)               :       -0.246643437154 Eh       
E(XC)              :      -11.600136019252 Eh       
DFET-embed. en.    :        0.000000000000 Eh       

---------------
SCF CONVERGENCE
---------------

  Last Energy change         ...   -2.7001e-10  Tolerance :   1.0000e-09
  Last MAX-Density change    ...    3.1069e-08  Tolerance :   1.0000e-08
  Last RMS-Density change    ...    5.1692e-10  Tolerance :   1.0000e-09
  Last Orbital Gradient      ...    5.9576e-09  Tolerance :   2.0000e-06
  Last Orbital Rotation      ...    2.5495e-11  Tolerance :   2.0000e-06

================================================================================
                                        WARNING
Number of found core electrons (2) does not match given number of chemical core electrons (10)
================================================================================
             **** THE GBW FILE WAS UPDATED (Ar_cc-pcvqz_34.25899725_.gbw) ****
             **** DENSITY FILE WAS UPDATED (Ar_cc-pcvqz_34.25899725_.scfp) ****
             **** ENERGY FILE WAS UPDATED (Ar_cc-pcvqz_34.25899725_.en.tmp) ****
             **** THE GBW FILE WAS UPDATED (Ar_cc-pcvqz_34.25899725_.gbw) ****
             **** DENSITY FILE WAS UPDATED (Ar_cc-pcvqz_34.25899725_.scfp) ****
----------------
ORBITAL ENERGIES
----------------

  NO   OCC          E(Eh)            E(eV) 
   0   2.0000    -167.974391     -4570.8156 
   1   0.0000     -37.896461     -1031.2151 
   2   0.0000     -34.952056      -951.0938 
   3   0.0000     -34.952056      -951.0938 
   4   0.0000     -34.952056      -951.0938 
   5   0.0000     -16.020687      -435.9450 
   6   0.0000     -15.180871      -413.0925 
   7   0.0000     -15.180871      -413.0925 
   8   0.0000     -15.180871      -413.0925 
   9   0.0000     -14.570774      -396.4909 
  10   0.0000     -14.570774      -396.4909 
  11   0.0000     -14.570774      -396.4909 
  12   0.0000     -14.570774      -396.4909 
  13   0.0000     -14.570774      -396.4909 
  14   0.0000      -8.732321      -237.6185 
  15   0.0000      -8.421993      -229.1741 
  16   0.0000      -8.421993      -229.1741 
  17   0.0000      -8.421993      -229.1741 
  18   0.0000      -8.152893      -221.8515 
  19   0.0000      -8.152893      -221.8515 
  20   0.0000      -8.152893      -221.8515 
  21   0.0000      -8.152893      -221.8515 
  22   0.0000      -8.152893      -221.8515 
  23   0.0000      -7.786407      -211.8789 
  24   0.0000      -7.786407      -211.8789 
  25   0.0000      -7.786407      -211.8789 
  26   0.0000      -7.786407      -211.8789 
  27   0.0000      -7.786407      -211.8789 
  28   0.0000      -7.786407      -211.8789 
  29   0.0000      -7.786407      -211.8789 
  30   0.0000      -5.398628      -146.9041 
  31   0.0000      -5.333834      -145.1410 
  32   0.0000      -5.333834      -145.1410 
  33   0.0000      -5.333834      -145.1410 
  34   0.0000      -5.141969      -139.9201 
  35   0.0000      -5.141969      -139.9201 
  36   0.0000      -5.141969      -139.9201 
  37   0.0000      -5.141969      -139.9201 
  38   0.0000      -5.141969      -139.9201 
  39   0.0000      -4.930069      -134.1540 
  40   0.0000      -4.930069      -134.1540 
  41   0.0000      -4.930069      -134.1540 
  42   0.0000      -4.930069      -134.1540 
  43   0.0000      -4.930069      -134.1540 
  44   0.0000      -4.930069      -134.1540 
  45   0.0000      -4.930069      -134.1540 
  46   0.0000      -4.930069      -134.1540 
  47   0.0000      -4.930069      -134.1540 
  48   0.0000      -4.885995      -132.9547 
  49   0.0000      -4.885995      -132.9547 
  50   0.0000      -4.885995      -132.9547 
  51   0.0000      -4.885995      -132.9547 
  52   0.0000      -4.885995      -132.9547 
  53   0.0000      -4.885995      -132.9547 
  54   0.0000      -4.885995      -132.9547 
  55   0.0000      -3.589272       -97.6690 
  56   0.0000      -3.589272       -97.6690 
  57   0.0000      -3.589272       -97.6690 
  58   0.0000      -3.528289       -96.0096 
  59   0.0000      -2.616630       -71.2021 
  60   0.0000      -2.616630       -71.2021 
  61   0.0000      -2.616630       -71.2021 
  62   0.0000      -2.616630       -71.2021 
  63   0.0000      -2.616630       -71.2021 
  64   0.0000       0.668237        18.1837 
  65   0.0000       0.668237        18.1837 
  66   0.0000       0.668237        18.1837 
  67   0.0000       3.903558       106.2212 
  68   0.0000       3.903558       106.2212 
  69   0.0000       3.903558       106.2212 
  70   0.0000       3.903558       106.2212 
  71   0.0000       3.903558       106.2212 
  72   0.0000       3.903558       106.2212 
  73   0.0000       3.903558       106.2212 
  74   0.0000      12.714374       345.9757 
  75   0.0000      18.717566       509.3309 
  76   0.0000      18.717566       509.3309 
  77   0.0000      18.717566       509.3309 
  78   0.0000      18.717566       509.3309 
  79   0.0000      18.717566       509.3309 
  80   0.0000      29.331326       798.1460 
  81   0.0000      29.331326       798.1460 
  82   0.0000      29.331326       798.1460 
  83   0.0000      49.523841      1347.6122 
  84   0.0000      49.523841      1347.6122 
  85   0.0000      49.523841      1347.6122 
  86   0.0000      49.523841      1347.6122 
  87   0.0000      49.523841      1347.6122 
  88   0.0000      49.523841      1347.6122 
  89   0.0000      49.523841      1347.6122 
  90   0.0000      49.523841      1347.6122 
  91   0.0000      49.523841      1347.6122 
  92   0.0000      56.970902      1550.2571 
  93   0.0000      56.970902      1550.2571 
  94   0.0000      56.970902      1550.2571 
  95   0.0000      56.970902      1550.2571 
  96   0.0000      56.970902      1550.2571 
  97   0.0000      56.970902      1550.2571 
  98   0.0000      56.970902      1550.2571 
  99   0.0000      72.489931      1972.5513 
 100   0.0000      92.064695      2505.2077 
 101   0.0000      92.064695      2505.2077 
 102   0.0000      92.064695      2505.2077 
 103   0.0000      92.064695      2505.2077 
 104   0.0000      92.064695      2505.2077 
 105   0.0000     131.048655      3566.0152 
 106   0.0000     131.048655      3566.0152 
 107   0.0000     131.048655      3566.0152 
 108   0.0000     308.287039      8388.9168 

                    ********************************
                    * MULLIKEN POPULATION ANALYSIS *
                    ********************************

-----------------------
MULLIKEN ATOMIC CHARGES
-----------------------
   0 Ar:   16.000000
Sum of atomic charges:   16.0000000

--------------------------------
MULLIKEN REDUCED ORBITAL CHARGES
--------------------------------
  0 Ars       :     2.000000  s :     2.000000
      pz      :     0.000000  p :     0.000000
      px      :     0.000000
      py      :     0.000000
      dz2     :     0.000000  d :     0.000000
      dxz     :     0.000000
      dyz     :     0.000000
      dx2y2   :     0.000000
      dxy     :     0.000000
      f0      :     0.000000  f :     0.000000
      f+1     :     0.000000
      f-1     :     0.000000
      f+2     :     0.000000
      f-2     :     0.000000
      f+3     :     0.000000
      f-3     :     0.000000
      g0      :     0.000000  g :     0.000000
      g+1     :     0.000000
      g-1     :     0.000000
      g+2     :     0.000000
      g-2     :     0.000000
      g+3     :     0.000000
      g-3     :     0.000000
      g+4     :     0.000000
      g-4     :     0.000000


                     *******************************
                     * LOEWDIN POPULATION ANALYSIS *
                     *******************************

----------------------
LOEWDIN ATOMIC CHARGES
----------------------
   0 Ar:   16.000000

-------------------------------
LOEWDIN REDUCED ORBITAL CHARGES
-------------------------------
  0 Ars       :     2.000000  s :     2.000000
      pz      :     0.000000  p :     0.000000
      px      :     0.000000
      py      :     0.000000
      dz2     :     0.000000  d :     0.000000
      dxz     :     0.000000
      dyz     :     0.000000
      dx2y2   :     0.000000
      dxy     :     0.000000
      f0      :     0.000000  f :     0.000000
      f+1     :     0.000000
      f-1     :     0.000000
      f+2     :     0.000000
      f-2     :     0.000000
      f+3     :     0.000000
      f-3     :     0.000000
      g0      :     0.000000  g :     0.000000
      g+1     :     0.000000
      g-1     :     0.000000
      g+2     :     0.000000
      g-2     :     0.000000
      g+3     :     0.000000
      g-3     :     0.000000
      g+4     :     0.000000
      g-4     :     0.000000


                      *****************************
                      * MAYER POPULATION ANALYSIS *
                      *****************************

  NA   - Mulliken gross atomic population
  ZA   - Total nuclear charge
  QA   - Mulliken gross atomic charge
  VA   - Mayer's total valence
  BVA  - Mayer's bonded valence
  FA   - Mayer's free valence

  ATOM       NA         ZA         QA         VA         BVA        FA
  0 Ar     2.0000    18.0000    16.0000     0.0000     0.0000     0.0000

  Mayer bond orders larger than 0.100000


--------------------------
ATOM BASIS FOR ELEMENT Ar
--------------------------
 NewGTO Ar
 S 45
    1     950600.000000000000        -0.000083518933
    2     142300.000000000000        -0.000649465277
    3      32360.000000000000        -0.003418210866
    4       9145.000000000000        -0.014419674394
    5       2970.000000000000        -0.052143680272
    6       1064.000000000000        -0.164477370351
    7        410.800000000000        -0.444126411802
    8        168.000000000000        -0.956438510930
    9         71.990000000000        -1.399772108583
   10         31.670000000000        -1.013253187902
   11         12.890000000000        -0.185422712695
   12          5.929000000000         0.013208650781
   13          2.678000000000        -0.008030840295
   14     950600.000000000000         0.000075694452
   15     142300.000000000000         0.000588437094
   16      32360.000000000000         0.003101856019
   17       9145.000000000000         0.013107135060
   18       2970.000000000000         0.047824555822
   19       1064.000000000000         0.153703546542
   20        410.800000000000         0.436754175145
   21        168.000000000000         1.048042513283
   22         71.990000000000         1.968547723643
   23         31.670000000000         2.103724754423
   24         12.890000000000        -1.205968877814
   25          5.929000000000        -6.590524508509
   26          2.678000000000        -5.275359765796
   27     950600.000000000000        -0.000031474224
   28     142300.000000000000        -0.000244321661
   29      32360.000000000000        -0.001290709541
   30       9145.000000000000        -0.005440370846
   31       2970.000000000000        -0.019934402041
   32       1064.000000000000        -0.063921210957
   33        410.800000000000        -0.183476064415
   34        168.000000000000        -0.442171878981
   35         71.990000000000        -0.860464719449
   36         31.670000000000        -0.946270376041
   37         12.890000000000         0.563894226379
   38          5.929000000000         4.289784376106
   39          2.678000000000         5.651917631748
   40          0.941600000000        -0.152747881884
   41          0.423900000000         0.081151584035
   42          0.171400000000        -0.021276676073
   43         24.024000000000        -0.549828519602
   44         12.706000000000         0.929173848015
   45          6.720000000000         2.087971204117
 S 45
    1     950600.000000000000         0.000023567987
    2     142300.000000000000         0.000183270892
    3      32360.000000000000         0.000964575901
    4       9145.000000000000         0.004069049854
    5       2970.000000000000         0.014714287492
    6       1064.000000000000         0.046413434969
    7        410.800000000000         0.125326859787
    8        168.000000000000         0.269894858690
    9         71.990000000000         0.394997996345
   10         31.670000000000         0.285927242412
   11         12.890000000000         0.052323945835
   12          5.929000000000        -0.003727314297
   13          2.678000000000         0.002266201624
   14     950600.000000000000        -0.000016728298
   15     142300.000000000000        -0.000130043228
   16      32360.000000000000        -0.000685502957
   17       9145.000000000000        -0.002896646325
   18       2970.000000000000        -0.010569115466
   19       1064.000000000000        -0.033968125850
   20        410.800000000000        -0.096521655620
   21        168.000000000000        -0.231614954816
   22         71.990000000000        -0.435044462688
   23         31.670000000000        -0.464918271698
   24         12.890000000000         0.266516313608
   25          5.929000000000         1.456490568758
   26          2.678000000000         1.165842223296
   27     950600.000000000000         0.000008014589
   28     142300.000000000000         0.000062214013
   29      32360.000000000000         0.000328665989
   30       9145.000000000000         0.001385334817
   31       2970.000000000000         0.005076091684
   32       1064.000000000000         0.016276882884
   33        410.800000000000         0.046720304070
   34        168.000000000000         0.112594548521
   35         71.990000000000         0.219108544008
   36         31.670000000000         0.240958077241
   37         12.890000000000        -0.143589899880
   38          5.929000000000        -1.092349735568
   39          2.678000000000        -1.439203043603
   40          0.941600000000         0.081663117558
   41          0.423900000000        -0.043795506144
   42          0.171400000000         0.011536008458
   43         24.024000000000         0.119959070015
   44         12.706000000000        -0.661583811970
   45          6.720000000000        -0.877734113716
 S 45
    1     950600.000000000000        -0.000009276645
    2     142300.000000000000        -0.000072137643
    3      32360.000000000000        -0.000379668757
    4       9145.000000000000        -0.001601627303
    5       2970.000000000000        -0.005791721763
    6       1064.000000000000        -0.018268890120
    7        410.800000000000        -0.049330169855
    8        168.000000000000        -0.106233885097
    9         71.990000000000        -0.155475995212
   10         31.670000000000        -0.112544425499
   11         12.890000000000        -0.020595338780
   12          5.929000000000         0.001467116049
   13          2.678000000000        -0.000892004405
   14     950600.000000000000        -0.000004910149
   15     142300.000000000000        -0.000038170745
   16      32360.000000000000        -0.000201211236
   17       9145.000000000000        -0.000850233803
   18       2970.000000000000        -0.003102283894
   19       1064.000000000000        -0.009970443608
   20        410.800000000000        -0.028331375377
   21        168.000000000000        -0.067984435054
   22         71.990000000000        -0.127695778723
   23         31.670000000000        -0.136464444072
   24         12.890000000000         0.078228804473
   25          5.929000000000         0.427514227469
   26          2.678000000000         0.342202104246
   27     950600.000000000000         0.000006427474
   28     142300.000000000000         0.000049893881
   29      32360.000000000000         0.000263580840
   30       9145.000000000000         0.001110999395
   31       2970.000000000000         0.004070882157
   32       1064.000000000000         0.013053600334
   33        410.800000000000         0.037468364256
   34        168.000000000000         0.090297647697
   35         71.990000000000         0.175718863604
   36         31.670000000000         0.193241572120
   37         12.890000000000        -0.115155044027
   38          5.929000000000        -0.876033634659
   39          2.678000000000        -1.154200190880
   40          0.941600000000        -0.856502495933
   41          0.423900000000         0.242263213494
   42          0.171400000000        -0.057145018039
   43         24.024000000000         0.003937795950
   44         12.706000000000         0.301486919547
   45          6.720000000000         1.405391932311
 S 45
    1     950600.000000000000         0.000003002123
    2     142300.000000000000         0.000023345304
    3      32360.000000000000         0.000122869036
    4       9145.000000000000         0.000518321296
    5       2970.000000000000         0.001874326646
    6       1064.000000000000         0.005912208656
    7        410.800000000000         0.015964311752
    8        168.000000000000         0.034379586879
    9         71.990000000000         0.050315400590
   10         31.670000000000         0.036421814477
   11         12.890000000000         0.006665097847
   12          5.929000000000        -0.000474790540
   13          2.678000000000         0.000288671952
   14     950600.000000000000         0.000019276563
   15     142300.000000000000         0.000149853050
   16      32360.000000000000         0.000789927400
   17       9145.000000000000         0.003337899973
   18       2970.000000000000         0.012179136238
   19       1064.000000000000         0.039142578565
   20        410.800000000000         0.111225049770
   21        168.000000000000         0.266897461627
   22         71.990000000000         0.501315914072
   23         31.670000000000         0.535740477893
   24         12.890000000000        -0.307115434928
   25          5.929000000000        -1.678361554823
   26          2.678000000000        -1.343437993037
   27     950600.000000000000        -0.000017415535
   28     142300.000000000000        -0.000135189747
   29      32360.000000000000        -0.000714184304
   30       9145.000000000000        -0.003010303513
   31       2970.000000000000        -0.011030240802
   32       1064.000000000000        -0.035369325238
   33        410.800000000000        -0.101522241186
   34        168.000000000000        -0.244665593231
   35         71.990000000000        -0.476118272205
   36         31.670000000000        -0.523596849814
   37         12.890000000000         0.312017841872
   38          5.929000000000         2.373653072715
   39          2.678000000000         3.127358038799
   40          0.941600000000         0.068676235487
   41          0.423900000000        -1.520772310535
   42          0.171400000000         0.195867154956
   43         24.024000000000        -0.074184827011
   44         12.706000000000         0.001320871744
   45          6.720000000000        -1.817231134878
 S 45
    1     950600.000000000000        -0.000000268456
    2     142300.000000000000        -0.000002087587
    3      32360.000000000000        -0.000010987210
    4       9145.000000000000        -0.000046349392
    5       2970.000000000000        -0.000167606272
    6       1064.000000000000        -0.000528682263
    7        410.800000000000        -0.001427562685
    8        168.000000000000        -0.003074295725
    9         71.990000000000        -0.004499310055
   10         31.670000000000        -0.003256916057
   11         12.890000000000        -0.000596007215
   12          5.929000000000         0.000042456779
   13          2.678000000000        -0.000025813659
   14     950600.000000000000         0.000028876414
   15     142300.000000000000         0.000224480828
   16      32360.000000000000         0.001183316305
   17       9145.000000000000         0.005000195539
   18       2970.000000000000         0.018244424095
   19       1064.000000000000         0.058635833407
   20        410.800000000000         0.166615836977
   21        168.000000000000         0.399814107055
   22         71.990000000000         0.750974450319
   23         31.670000000000         0.802542667420
   24         12.890000000000        -0.460060888665
   25          5.929000000000        -2.514196359403
   26          2.678000000000        -2.012478718588
   27     950600.000000000000        -0.000025028457
   28     142300.000000000000        -0.000194285785
   29      32360.000000000000        -0.001026378567
   30       9145.000000000000        -0.004326209622
   31       2970.000000000000        -0.015851934428
   32       1064.000000000000        -0.050830460959
   33        410.800000000000        -0.145901067730
   34        168.000000000000        -0.351617250289
   35         71.990000000000        -0.684245771849
   36         31.670000000000        -0.752478851482
   37         12.890000000000         0.448411458888
   38          5.929000000000         3.411257608997
   39          2.678000000000         4.494432665221
   40          0.941600000000        -2.337901139485
   41          0.423900000000        -0.035715608589
   42          0.171400000000         1.370002311645
   43         24.024000000000        -0.122648522673
   44         12.706000000000         0.209979109413
   45          6.720000000000        -2.150104878711
 S 45
    1     950600.000000000000        -0.000002442921
    2     142300.000000000000        -0.000018996799
    3      32360.000000000000        -0.000099982351
    4       9145.000000000000        -0.000421774141
    5       2970.000000000000        -0.001525197820
    6       1064.000000000000        -0.004810947853
    7        410.800000000000        -0.012990656422
    8        168.000000000000        -0.027975737885
    9         71.990000000000        -0.040943204567
   10         31.670000000000        -0.029637561926
   11         12.890000000000        -0.005423597178
   12          5.929000000000         0.000386351812
   13          2.678000000000        -0.000234901335
   14     950600.000000000000         0.000045934091
   15     142300.000000000000         0.000357084603
   16      32360.000000000000         0.001882316793
   17       9145.000000000000         0.007953876738
   18       2970.000000000000         0.029021645106
   19       1064.000000000000         0.093272790569
   20        410.800000000000         0.265038000912
   21        168.000000000000         0.635989552930
   22         71.990000000000         1.194584924575
   23         31.670000000000         1.276615165030
   24         12.890000000000        -0.731824899971
   25          5.929000000000        -3.999365180914
   26          2.678000000000        -3.201276338003
   27     950600.000000000000        -0.000039474782
   28     142300.000000000000        -0.000306426757
   29      32360.000000000000        -0.001618800135
   30       9145.000000000000        -0.006823280361
   31       2970.000000000000        -0.025001607023
   32       1064.000000000000        -0.080169597941
   33        410.800000000000        -0.230114575363
   34        168.000000000000        -0.554569308502
   35         71.990000000000        -1.079189670666
   36         31.670000000000        -1.186806608567
   37         12.890000000000         0.707232743774
   38          5.929000000000         5.380221737671
   39          2.678000000000         7.088601066112
   40          0.941600000000        -6.514887945410
   41          0.423900000000         6.397094710398
   42          0.171400000000        -2.684255878650
   43         24.024000000000        -0.188154230212
   44         12.706000000000         0.403475270565
   45          6.720000000000        -3.126756276830
 S 45
    1     950600.000000000000        -0.000059096773
    2     142300.000000000000        -0.000459552109
    3      32360.000000000000        -0.002418675901
    4       9145.000000000000        -0.010203150222
    5       2970.000000000000        -0.036896103779
    6       1064.000000000000        -0.116381776164
    7        410.800000000000        -0.314257338481
    8        168.000000000000        -0.676761869771
    9         71.990000000000        -0.990458224581
   10         31.670000000000        -0.716963102342
   11         12.890000000000        -0.131202393366
   12          5.929000000000         0.009346247665
   13          2.678000000000        -0.005682504867
   14     950600.000000000000         0.000129460507
   15     142300.000000000000         0.001006406185
   16      32360.000000000000         0.005305116062
   17       9145.000000000000         0.022417182587
   18       2970.000000000000         0.081794518415
   19       1064.000000000000         0.262879756055
   20        410.800000000000         0.746982314992
   21        168.000000000000         1.792471068014
   22         71.990000000000         3.366814605240
   23         31.670000000000         3.598008391431
   24         12.890000000000        -2.062573125622
   25          5.929000000000       -11.271798953589
   26          2.678000000000        -9.022467727891
   27     950600.000000000000        -0.000088445691
   28     142300.000000000000        -0.000686568104
   29      32360.000000000000        -0.003627021841
   30       9145.000000000000        -0.015287981738
   31       2970.000000000000        -0.056017647136
   32       1064.000000000000        -0.179624943481
   33        410.800000000000        -0.515585940996
   34        168.000000000000        -1.242546841374
   35         71.990000000000        -2.417991215833
   36         31.670000000000        -2.659113622388
   37         12.890000000000         1.584598711864
   38          5.929000000000        12.054719623936
   39          2.678000000000        15.882449189707
   40          0.941600000000        -4.323888885996
   41          0.423900000000         2.512337568311
   42          0.171400000000        -0.685560726612
   43         24.024000000000        -2.682857864849
   44         12.706000000000        10.246915394579
   45          6.720000000000       -12.135168366662
 S 45
    1     950600.000000000000        -0.000101069899
    2     142300.000000000000        -0.000785946223
    3      32360.000000000000        -0.004136525873
    4       9145.000000000000        -0.017449876134
    5       2970.000000000000        -0.063101338978
    6       1064.000000000000        -0.199041230816
    7        410.800000000000        -0.537456717932
    8        168.000000000000        -1.157427906397
    9         71.990000000000        -1.693925205390
   10         31.670000000000        -1.226181821959
   11         12.890000000000        -0.224388102006
   12          5.929000000000         0.015984363704
   13          2.678000000000        -0.009718469680
   14     950600.000000000000         0.000223046407
   15     142300.000000000000         0.001733928662
   16      32360.000000000000         0.009140139376
   17       9145.000000000000         0.038622373359
   18       2970.000000000000         0.140923080616
   19       1064.000000000000         0.452913297528
   20        410.800000000000         1.286969481997
   21        168.000000000000         3.088233169109
   22         71.990000000000         5.800656269260
   23         31.670000000000         6.198978078603
   24         12.890000000000        -3.553589708601
   25          5.929000000000       -19.420086619622
   26          2.678000000000       -15.544732967634
   27     950600.000000000000        -0.000111485447
   28     142300.000000000000        -0.000865416404
   29      32360.000000000000        -0.004571846812
   30       9145.000000000000        -0.019270441049
   31       2970.000000000000        -0.070610024615
   32       1064.000000000000        -0.226416537094
   33        410.800000000000        -0.649894057430
   34        168.000000000000        -1.566225422531
   35         71.990000000000        -3.047868448570
   36         31.670000000000        -3.351802296786
   37         12.890000000000         1.997380464375
   38          5.929000000000        15.194926829166
   39          2.678000000000        20.019764941389
   40          0.941600000000        -2.192468757238
   41          0.423900000000         1.191194717613
   42          0.171400000000        -0.314778010679
   43         24.024000000000       -10.592306302193
   44         12.706000000000        16.259696433213
   45          6.720000000000        -5.897253859932
 S 45
    1     950600.000000000000        -0.000725637648
    2     142300.000000000000        -0.005642749945
    3      32360.000000000000        -0.029698445585
    4       9145.000000000000        -0.125282474401
    5       2970.000000000000        -0.453040000083
    6       1064.000000000000        -1.429028934827
    7        410.800000000000        -3.858704038324
    8        168.000000000000        -8.309825865922
    9         71.990000000000       -12.161641696113
   10         31.670000000000        -8.803448892254
   11         12.890000000000        -1.611008377928
   12          5.929000000000         0.114760736478
   13          2.678000000000        -0.069774359400
   14     950600.000000000000         0.000982275000
   15     142300.000000000000         0.007636055667
   16      32360.000000000000         0.040252297914
   17       9145.000000000000         0.170089231094
   18       2970.000000000000         0.620611742383
   19       1064.000000000000         1.994586759656
   20        410.800000000000         5.667690268500
   21        168.000000000000        13.600282931540
   22         71.990000000000        25.545534333253
   23         31.670000000000        27.299705410441
   24         12.890000000000       -15.649668536372
   25          5.929000000000       -85.524200446988
   26          2.678000000000       -68.457514338559
   27     950600.000000000000        -0.000409720518
   28     142300.000000000000        -0.003180494557
   29      32360.000000000000        -0.016802008645
   30       9145.000000000000        -0.070820858700
   31       2970.000000000000        -0.259499124245
   32       1064.000000000000        -0.832104129844
   33        410.800000000000        -2.388427700954
   34        168.000000000000        -5.756039991972
   35         71.990000000000       -11.201230951728
   36         31.670000000000       -12.318219196256
   37         12.890000000000         7.340579246599
   38          5.929000000000        55.842923531678
   39          2.678000000000        73.574701300850
   40          0.941600000000        -2.039981039826
   41          0.423900000000         1.069866157544
   42          0.171400000000        -0.278655381663
   43         24.024000000000       -12.092972942737
   44         12.706000000000        14.950102255050
   45          6.720000000000        25.544246781170
 P 22
    1       1890.000000000000         0.000558582037
    2        447.800000000000         0.004790569518
    3        144.600000000000         0.025157441937
    4         54.460000000000         0.093618084451
    5         22.510000000000         0.244625833337
    6          9.774000000000         0.421970830297
    7          4.368000000000         0.412887077967
    8          1.959000000000         0.145625101698
    9       1890.000000000000         0.000402515563
   10        447.800000000000         0.003445628061
   11        144.600000000000         0.018335512467
   12         54.460000000000         0.069223586621
   13         22.510000000000         0.188191526134
   14          9.774000000000         0.334632023127
   15          4.368000000000         0.358421263051
   16          1.959000000000        -0.188138480796
   17          0.826000000000         0.016315662602
   18          0.329700000000        -0.006047154399
   19          0.124200000000         0.001677257185
   20         23.627000000000        -0.102544093586
   21         10.654000000000        -0.228889909137
   22          4.804000000000        -0.635070966171
 P 22
    1       1890.000000000000        -0.000847514109
    2        447.800000000000        -0.007268538878
    3        144.600000000000        -0.038170377047
    4         54.460000000000        -0.142042962508
    5         22.510000000000        -0.371160959733
    6          9.774000000000        -0.640239406507
    7          4.368000000000        -0.626456993641
    8          1.959000000000        -0.220951122660
    9       1890.000000000000         0.001422166114
   10        447.800000000000         0.012174077042
   11        144.600000000000         0.064782947378
   12         54.460000000000         0.244580454322
   13         22.510000000000         0.664917424943
   14          9.774000000000         1.182320307885
   15          4.368000000000         1.266372339752
   16          1.959000000000        -0.664730005401
   17          0.826000000000        -0.046290518747
   18          0.329700000000        -0.011977802885
   19          0.124200000000         0.004078910909
   20         23.627000000000        -0.078770305508
   21         10.654000000000        -0.131910896493
   22          4.804000000000        -0.945594855679
 P 22
    1       1890.000000000000        -0.001057495423
    2        447.800000000000        -0.009069402519
    3        144.600000000000        -0.047627524539
    4         54.460000000000        -0.177235731104
    5         22.510000000000        -0.463120332708
    6          9.774000000000        -0.798866042290
    7          4.368000000000        -0.781668878998
    8          1.959000000000        -0.275694290456
    9       1890.000000000000         0.001439279532
   10        447.800000000000         0.012320571925
   11        144.600000000000         0.065562503012
   12         54.460000000000         0.247523575601
   13         22.510000000000         0.672918606509
   14          9.774000000000         1.196547577465
   15          4.368000000000         1.281611036530
   16          1.959000000000        -0.672728931683
   17          0.826000000000         1.340215088996
   18          0.329700000000         0.158898943529
   19          0.124200000000        -0.011829611408
   20         23.627000000000        -0.065945218171
   21         10.654000000000        -0.078851637899
   22          4.804000000000        -0.941445908796
 P 22
    1       1890.000000000000        -0.000723052973
    2        447.800000000000        -0.006201122307
    3        144.600000000000        -0.032564891040
    4         54.460000000000        -0.121183335217
    5         22.510000000000        -0.316654357306
    6          9.774000000000        -0.546217462999
    7          4.368000000000        -0.534459057451
    8          1.959000000000        -0.188503488600
    9       1890.000000000000         0.000998154024
   10        447.800000000000         0.008544433637
   11        144.600000000000         0.045468218475
   12         54.460000000000         0.171659950372
   13         22.510000000000         0.466675444216
   14          9.774000000000         0.829817108395
   15          4.368000000000         0.888809425091
   16          1.959000000000        -0.466543902922
   17          0.826000000000         2.050136688454
   18          0.329700000000        -1.747168260540
   19          0.124200000000        -0.022707060517
   20         23.627000000000        -0.052929877919
   21         10.654000000000        -0.026726672493
   22          4.804000000000        -0.819747644789
 P 22
    1       1890.000000000000        -0.000148368579
    2        447.800000000000        -0.001272454075
    3        144.600000000000        -0.006682230451
    4         54.460000000000        -0.024866503370
    5         22.510000000000        -0.064976645750
    6          9.774000000000        -0.112082394500
    7          4.368000000000        -0.109669600441
    8          1.959000000000        -0.038680422735
    9       1890.000000000000         0.000327039360
   10        447.800000000000         0.002799533979
   11        144.600000000000         0.014897397301
   12         54.460000000000         0.056243384216
   13         22.510000000000         0.152903494708
   14          9.774000000000         0.271884748629
   15          4.368000000000         0.291213238044
   16          1.959000000000        -0.152860395968
   17          0.826000000000         1.370389550981
   18          0.329700000000        -2.276087791136
   19          0.124200000000         1.791211166692
   20         23.627000000000        -0.035521813934
   21         10.654000000000         0.026736529380
   22          4.804000000000        -0.585712927440
 P 22
    1       1890.000000000000         0.006483273860
    2        447.800000000000         0.055602529360
    3        144.600000000000         0.291993968273
    4         54.460000000000         1.086593623036
    5         22.510000000000         2.839289781380
    6          9.774000000000         4.897673521051
    7          4.368000000000         4.792241462567
    8          1.959000000000         1.690221582583
    9       1890.000000000000        -0.005540740118
   10        447.800000000000        -0.047430040961
   11        144.600000000000        -0.252393494576
   12         54.460000000000        -0.952882171459
   13         22.510000000000        -2.590509374421
   14          9.774000000000        -4.606304070628
   15          4.368000000000        -4.933769660070
   16          1.959000000000         2.589779190396
   17          0.826000000000        -3.396757407219
   18          0.329700000000         1.836970431735
   19          0.124200000000        -0.620827219230
   20         23.627000000000        -0.122252852461
   21         10.654000000000         0.855017743071
   22          4.804000000000        -3.313557795652
 P 22
    1       1890.000000000000         0.002853420584
    2        447.800000000000         0.024471803168
    3        144.600000000000         0.128512479561
    4         54.460000000000         0.478231936084
    5         22.510000000000         1.249629135001
    6          9.774000000000         2.155565650877
    7          4.368000000000         2.109162859267
    8          1.959000000000         0.743900868469
    9       1890.000000000000        -0.003885651317
   10        447.800000000000        -0.033262090839
   11        144.600000000000        -0.177000381479
   12         54.460000000000        -0.668244275218
   13         22.510000000000        -1.816691623797
   14          9.774000000000        -3.230343076307
   15          4.368000000000        -3.459990573165
   16          1.959000000000         1.816179554929
   17          0.826000000000        -1.377551165924
   18          0.329700000000         0.596519527018
   19          0.124200000000        -0.176365590237
   20         23.627000000000        -1.412054612665
   21         10.654000000000         5.259340398562
   22          4.804000000000        -2.520313594098
 P 22
    1       1890.000000000000        -0.006841717638
    2        447.800000000000        -0.058676652268
    3        144.600000000000        -0.308137574641
    4         54.460000000000        -1.146668630188
    5         22.510000000000        -2.996266916443
    6          9.774000000000        -5.168453475548
    7          4.368000000000        -5.057192345797
    8          1.959000000000        -1.783669649559
    9       1890.000000000000        -0.002423688240
   10        447.800000000000        -0.020747342427
   11        144.600000000000        -0.110404590679
   12         54.460000000000        -0.416819642209
   13         22.510000000000        -1.133167586640
   14          9.774000000000        -2.014937493987
   15          4.368000000000        -2.158180902160
   16          1.959000000000         1.132848181941
   17          0.826000000000         0.439340488664
   18          0.329700000000        -0.198434447966
   19          0.124200000000         0.059232148904
   20         23.627000000000         7.282332209833
   21         10.654000000000         3.079646240500
   22          4.804000000000        10.099084079241
 D 6
    1          0.311000000000         0.030772170501
    2          0.763000000000        -0.076333522103
    3          1.873000000000         0.547787545326
    4         37.364000000000         0.038536437435
    5         15.013000000000         0.093603593036
    6          6.032000000000         0.547886049381
 D 6
    1          0.311000000000         0.037377017156
    2          0.763000000000        -0.927501168628
    3          1.873000000000        -0.093548706576
    4         37.364000000000         0.031047971991
    5         15.013000000000         0.079573326370
    6          6.032000000000         0.468520749009
 D 6
    1          0.311000000000         1.175870159177
    2          0.763000000000        -0.428664965461
    3          1.873000000000        -0.476592813432
    4         37.364000000000         0.024839323773
    5         15.013000000000         0.060560044641
    6          6.032000000000         0.384496559347
 D 6
    1          0.311000000000        -1.108188630549
    2          0.763000000000         2.069717782606
    3          1.873000000000        -1.824510972519
    4         37.364000000000         0.047491485888
    5         15.013000000000         0.106716510306
    6          6.032000000000         0.750945985443
 D 6
    1          0.311000000000         0.235638991179
    2          0.763000000000        -0.649646876465
    3          1.873000000000         1.042020567953
    4         37.364000000000        -0.019522888976
    5         15.013000000000         1.542529094968
    6          6.032000000000        -1.682488003325
 D 6
    1          0.311000000000        -0.091239593328
    2          0.763000000000         0.257280072010
    3          1.873000000000        -0.441613485454
    4         37.364000000000         1.606159282322
    5         15.013000000000        -1.767695674247
    6          6.032000000000         0.968428051318
 F 4
    1          0.543000000000         0.071927790769
    2          1.325000000000         0.914070661334
    3         21.884000000000        -0.011250780019
    4          7.968000000000         0.147474324828
 F 4
    1          0.543000000000        -1.280228243080
    2          1.325000000000         0.821608352621
    3         21.884000000000        -0.009655158730
    4          7.968000000000         0.140370492940
 F 4
    1          0.543000000000         0.326134765386
    2          1.325000000000        -0.558164580767
    3         21.884000000000        -0.047620338458
    4          7.968000000000         1.037180498353
 F 4
    1          0.543000000000        -0.078233140972
    2          1.325000000000         0.155011270406
    3         21.884000000000         1.231576779488
    4          7.968000000000        -0.697354463020
 G 2
    1          1.007000000000         0.999938022103
    2         17.243000000000         0.004017294953
 G 2
    1          1.007000000000        -0.017437508214
    2         17.243000000000         1.000081984680
 end
  // -----------------------------------------------
  // The basis set
  // -----------------------------------------------
  BAS[ATNO] = new BFNGauss[NSH];
  // Basis function   1 L = s
  InitBFNGauss(BAS[ATNO][  0]);
  BAS[ATNO][  0].l  = 0;
  BAS[ATNO][  0].ng = 45;
  BAS[ATNO][  0].a[  0] =    950600.000000000000;     BAS[ATNO][  0].d[  0] =         0.000083518933;
  BAS[ATNO][  0].a[  1] =    142300.000000000000;     BAS[ATNO][  0].d[  1] =         0.000649465277;
  BAS[ATNO][  0].a[  2] =     32360.000000000000;     BAS[ATNO][  0].d[  2] =         0.003418210866;
  BAS[ATNO][  0].a[  3] =      9145.000000000000;     BAS[ATNO][  0].d[  3] =         0.014419674394;
  BAS[ATNO][  0].a[  4] =      2970.000000000000;     BAS[ATNO][  0].d[  4] =         0.052143680272;
  BAS[ATNO][  0].a[  5] =      1064.000000000000;     BAS[ATNO][  0].d[  5] =         0.164477370351;
  BAS[ATNO][  0].a[  6] =       410.800000000000;     BAS[ATNO][  0].d[  6] =         0.444126411802;
  BAS[ATNO][  0].a[  7] =       168.000000000000;     BAS[ATNO][  0].d[  7] =         0.956438510930;
  BAS[ATNO][  0].a[  8] =        71.990000000000;     BAS[ATNO][  0].d[  8] =         1.399772108583;
  BAS[ATNO][  0].a[  9] =        31.670000000000;     BAS[ATNO][  0].d[  9] =         1.013253187902;
  BAS[ATNO][  0].a[ 10] =        12.890000000000;     BAS[ATNO][  0].d[ 10] =         0.185422712695;
  BAS[ATNO][  0].a[ 11] =         5.929000000000;     BAS[ATNO][  0].d[ 11] =        -0.013208650781;
  BAS[ATNO][  0].a[ 12] =         2.678000000000;     BAS[ATNO][  0].d[ 12] =         0.008030840295;
  BAS[ATNO][  0].a[ 13] =    950600.000000000000;     BAS[ATNO][  0].d[ 13] =        -0.000075694452;
  BAS[ATNO][  0].a[ 14] =    142300.000000000000;     BAS[ATNO][  0].d[ 14] =        -0.000588437094;
  BAS[ATNO][  0].a[ 15] =     32360.000000000000;     BAS[ATNO][  0].d[ 15] =        -0.003101856019;
  BAS[ATNO][  0].a[ 16] =      9145.000000000000;     BAS[ATNO][  0].d[ 16] =        -0.013107135060;
  BAS[ATNO][  0].a[ 17] =      2970.000000000000;     BAS[ATNO][  0].d[ 17] =        -0.047824555822;
  BAS[ATNO][  0].a[ 18] =      1064.000000000000;     BAS[ATNO][  0].d[ 18] =        -0.153703546542;
  BAS[ATNO][  0].a[ 19] =       410.800000000000;     BAS[ATNO][  0].d[ 19] =        -0.436754175145;
  BAS[ATNO][  0].a[ 20] =       168.000000000000;     BAS[ATNO][  0].d[ 20] =        -1.048042513283;
  BAS[ATNO][  0].a[ 21] =        71.990000000000;     BAS[ATNO][  0].d[ 21] =        -1.968547723643;
  BAS[ATNO][  0].a[ 22] =        31.670000000000;     BAS[ATNO][  0].d[ 22] =        -2.103724754423;
  BAS[ATNO][  0].a[ 23] =        12.890000000000;     BAS[ATNO][  0].d[ 23] =         1.205968877814;
  BAS[ATNO][  0].a[ 24] =         5.929000000000;     BAS[ATNO][  0].d[ 24] =         6.590524508509;
  BAS[ATNO][  0].a[ 25] =         2.678000000000;     BAS[ATNO][  0].d[ 25] =         5.275359765796;
  BAS[ATNO][  0].a[ 26] =    950600.000000000000;     BAS[ATNO][  0].d[ 26] =         0.000031474224;
  BAS[ATNO][  0].a[ 27] =    142300.000000000000;     BAS[ATNO][  0].d[ 27] =         0.000244321661;
  BAS[ATNO][  0].a[ 28] =     32360.000000000000;     BAS[ATNO][  0].d[ 28] =         0.001290709541;
  BAS[ATNO][  0].a[ 29] =      9145.000000000000;     BAS[ATNO][  0].d[ 29] =         0.005440370846;
  BAS[ATNO][  0].a[ 30] =      2970.000000000000;     BAS[ATNO][  0].d[ 30] =         0.019934402041;
  BAS[ATNO][  0].a[ 31] =      1064.000000000000;     BAS[ATNO][  0].d[ 31] =         0.063921210957;
  BAS[ATNO][  0].a[ 32] =       410.800000000000;     BAS[ATNO][  0].d[ 32] =         0.183476064415;
  BAS[ATNO][  0].a[ 33] =       168.000000000000;     BAS[ATNO][  0].d[ 33] =         0.442171878981;
  BAS[ATNO][  0].a[ 34] =        71.990000000000;     BAS[ATNO][  0].d[ 34] =         0.860464719449;
  BAS[ATNO][  0].a[ 35] =        31.670000000000;     BAS[ATNO][  0].d[ 35] =         0.946270376041;
  BAS[ATNO][  0].a[ 36] =        12.890000000000;     BAS[ATNO][  0].d[ 36] =        -0.563894226379;
  BAS[ATNO][  0].a[ 37] =         5.929000000000;     BAS[ATNO][  0].d[ 37] =        -4.289784376106;
  BAS[ATNO][  0].a[ 38] =         2.678000000000;     BAS[ATNO][  0].d[ 38] =        -5.651917631748;
  BAS[ATNO][  0].a[ 39] =         0.941600000000;     BAS[ATNO][  0].d[ 39] =         0.152747881884;
  BAS[ATNO][  0].a[ 40] =         0.423900000000;     BAS[ATNO][  0].d[ 40] =        -0.081151584035;
  BAS[ATNO][  0].a[ 41] =         0.171400000000;     BAS[ATNO][  0].d[ 41] =         0.021276676073;
  BAS[ATNO][  0].a[ 42] =        24.024000000000;     BAS[ATNO][  0].d[ 42] =         0.549828519602;
  BAS[ATNO][  0].a[ 43] =        12.706000000000;     BAS[ATNO][  0].d[ 43] =        -0.929173848015;
  BAS[ATNO][  0].a[ 44] =         6.720000000000;     BAS[ATNO][  0].d[ 44] =        -2.087971204117;

  // Basis function   2 L = s
  InitBFNGauss(BAS[ATNO][  1]);
  BAS[ATNO][  1].l  = 0;
  BAS[ATNO][  1].ng = 45;
  BAS[ATNO][  1].a[  0] =    950600.000000000000;     BAS[ATNO][  1].d[  0] =         0.000023567987;
  BAS[ATNO][  1].a[  1] =    142300.000000000000;     BAS[ATNO][  1].d[  1] =         0.000183270892;
  BAS[ATNO][  1].a[  2] =     32360.000000000000;     BAS[ATNO][  1].d[  2] =         0.000964575901;
  BAS[ATNO][  1].a[  3] =      9145.000000000000;     BAS[ATNO][  1].d[  3] =         0.004069049854;
  BAS[ATNO][  1].a[  4] =      2970.000000000000;     BAS[ATNO][  1].d[  4] =         0.014714287492;
  BAS[ATNO][  1].a[  5] =      1064.000000000000;     BAS[ATNO][  1].d[  5] =         0.046413434969;
  BAS[ATNO][  1].a[  6] =       410.800000000000;     BAS[ATNO][  1].d[  6] =         0.125326859787;
  BAS[ATNO][  1].a[  7] =       168.000000000000;     BAS[ATNO][  1].d[  7] =         0.269894858690;
  BAS[ATNO][  1].a[  8] =        71.990000000000;     BAS[ATNO][  1].d[  8] =         0.394997996345;
  BAS[ATNO][  1].a[  9] =        31.670000000000;     BAS[ATNO][  1].d[  9] =         0.285927242412;
  BAS[ATNO][  1].a[ 10] =        12.890000000000;     BAS[ATNO][  1].d[ 10] =         0.052323945835;
  BAS[ATNO][  1].a[ 11] =         5.929000000000;     BAS[ATNO][  1].d[ 11] =        -0.003727314297;
  BAS[ATNO][  1].a[ 12] =         2.678000000000;     BAS[ATNO][  1].d[ 12] =         0.002266201624;
  BAS[ATNO][  1].a[ 13] =    950600.000000000000;     BAS[ATNO][  1].d[ 13] =        -0.000016728298;
  BAS[ATNO][  1].a[ 14] =    142300.000000000000;     BAS[ATNO][  1].d[ 14] =        -0.000130043228;
  BAS[ATNO][  1].a[ 15] =     32360.000000000000;     BAS[ATNO][  1].d[ 15] =        -0.000685502957;
  BAS[ATNO][  1].a[ 16] =      9145.000000000000;     BAS[ATNO][  1].d[ 16] =        -0.002896646325;
  BAS[ATNO][  1].a[ 17] =      2970.000000000000;     BAS[ATNO][  1].d[ 17] =        -0.010569115466;
  BAS[ATNO][  1].a[ 18] =      1064.000000000000;     BAS[ATNO][  1].d[ 18] =        -0.033968125850;
  BAS[ATNO][  1].a[ 19] =       410.800000000000;     BAS[ATNO][  1].d[ 19] =        -0.096521655620;
  BAS[ATNO][  1].a[ 20] =       168.000000000000;     BAS[ATNO][  1].d[ 20] =        -0.231614954816;
  BAS[ATNO][  1].a[ 21] =        71.990000000000;     BAS[ATNO][  1].d[ 21] =        -0.435044462688;
  BAS[ATNO][  1].a[ 22] =        31.670000000000;     BAS[ATNO][  1].d[ 22] =        -0.464918271698;
  BAS[ATNO][  1].a[ 23] =        12.890000000000;     BAS[ATNO][  1].d[ 23] =         0.266516313608;
  BAS[ATNO][  1].a[ 24] =         5.929000000000;     BAS[ATNO][  1].d[ 24] =         1.456490568758;
  BAS[ATNO][  1].a[ 25] =         2.678000000000;     BAS[ATNO][  1].d[ 25] =         1.165842223296;
  BAS[ATNO][  1].a[ 26] =    950600.000000000000;     BAS[ATNO][  1].d[ 26] =         0.000008014589;
  BAS[ATNO][  1].a[ 27] =    142300.000000000000;     BAS[ATNO][  1].d[ 27] =         0.000062214013;
  BAS[ATNO][  1].a[ 28] =     32360.000000000000;     BAS[ATNO][  1].d[ 28] =         0.000328665989;
  BAS[ATNO][  1].a[ 29] =      9145.000000000000;     BAS[ATNO][  1].d[ 29] =         0.001385334817;
  BAS[ATNO][  1].a[ 30] =      2970.000000000000;     BAS[ATNO][  1].d[ 30] =         0.005076091684;
  BAS[ATNO][  1].a[ 31] =      1064.000000000000;     BAS[ATNO][  1].d[ 31] =         0.016276882884;
  BAS[ATNO][  1].a[ 32] =       410.800000000000;     BAS[ATNO][  1].d[ 32] =         0.046720304070;
  BAS[ATNO][  1].a[ 33] =       168.000000000000;     BAS[ATNO][  1].d[ 33] =         0.112594548521;
  BAS[ATNO][  1].a[ 34] =        71.990000000000;     BAS[ATNO][  1].d[ 34] =         0.219108544008;
  BAS[ATNO][  1].a[ 35] =        31.670000000000;     BAS[ATNO][  1].d[ 35] =         0.240958077241;
  BAS[ATNO][  1].a[ 36] =        12.890000000000;     BAS[ATNO][  1].d[ 36] =        -0.143589899880;
  BAS[ATNO][  1].a[ 37] =         5.929000000000;     BAS[ATNO][  1].d[ 37] =        -1.092349735568;
  BAS[ATNO][  1].a[ 38] =         2.678000000000;     BAS[ATNO][  1].d[ 38] =        -1.439203043603;
  BAS[ATNO][  1].a[ 39] =         0.941600000000;     BAS[ATNO][  1].d[ 39] =         0.081663117558;
  BAS[ATNO][  1].a[ 40] =         0.423900000000;     BAS[ATNO][  1].d[ 40] =        -0.043795506144;
  BAS[ATNO][  1].a[ 41] =         0.171400000000;     BAS[ATNO][  1].d[ 41] =         0.011536008458;
  BAS[ATNO][  1].a[ 42] =        24.024000000000;     BAS[ATNO][  1].d[ 42] =         0.119959070015;
  BAS[ATNO][  1].a[ 43] =        12.706000000000;     BAS[ATNO][  1].d[ 43] =        -0.661583811970;
  BAS[ATNO][  1].a[ 44] =         6.720000000000;     BAS[ATNO][  1].d[ 44] =        -0.877734113716;

  // Basis function   3 L = s
  InitBFNGauss(BAS[ATNO][  2]);
  BAS[ATNO][  2].l  = 0;
  BAS[ATNO][  2].ng = 45;
  BAS[ATNO][  2].a[  0] =    950600.000000000000;     BAS[ATNO][  2].d[  0] =        -0.000009276645;
  BAS[ATNO][  2].a[  1] =    142300.000000000000;     BAS[ATNO][  2].d[  1] =        -0.000072137643;
  BAS[ATNO][  2].a[  2] =     32360.000000000000;     BAS[ATNO][  2].d[  2] =        -0.000379668757;
  BAS[ATNO][  2].a[  3] =      9145.000000000000;     BAS[ATNO][  2].d[  3] =        -0.001601627303;
  BAS[ATNO][  2].a[  4] =      2970.000000000000;     BAS[ATNO][  2].d[  4] =        -0.005791721763;
  BAS[ATNO][  2].a[  5] =      1064.000000000000;     BAS[ATNO][  2].d[  5] =        -0.018268890120;
  BAS[ATNO][  2].a[  6] =       410.800000000000;     BAS[ATNO][  2].d[  6] =        -0.049330169855;
  BAS[ATNO][  2].a[  7] =       168.000000000000;     BAS[ATNO][  2].d[  7] =        -0.106233885097;
  BAS[ATNO][  2].a[  8] =        71.990000000000;     BAS[ATNO][  2].d[  8] =        -0.155475995212;
  BAS[ATNO][  2].a[  9] =        31.670000000000;     BAS[ATNO][  2].d[  9] =        -0.112544425499;
  BAS[ATNO][  2].a[ 10] =        12.890000000000;     BAS[ATNO][  2].d[ 10] =        -0.020595338780;
  BAS[ATNO][  2].a[ 11] =         5.929000000000;     BAS[ATNO][  2].d[ 11] =         0.001467116049;
  BAS[ATNO][  2].a[ 12] =         2.678000000000;     BAS[ATNO][  2].d[ 12] =        -0.000892004405;
  BAS[ATNO][  2].a[ 13] =    950600.000000000000;     BAS[ATNO][  2].d[ 13] =        -0.000004910149;
  BAS[ATNO][  2].a[ 14] =    142300.000000000000;     BAS[ATNO][  2].d[ 14] =        -0.000038170745;
  BAS[ATNO][  2].a[ 15] =     32360.000000000000;     BAS[ATNO][  2].d[ 15] =        -0.000201211236;
  BAS[ATNO][  2].a[ 16] =      9145.000000000000;     BAS[ATNO][  2].d[ 16] =        -0.000850233803;
  BAS[ATNO][  2].a[ 17] =      2970.000000000000;     BAS[ATNO][  2].d[ 17] =        -0.003102283894;
  BAS[ATNO][  2].a[ 18] =      1064.000000000000;     BAS[ATNO][  2].d[ 18] =        -0.009970443608;
  BAS[ATNO][  2].a[ 19] =       410.800000000000;     BAS[ATNO][  2].d[ 19] =        -0.028331375377;
  BAS[ATNO][  2].a[ 20] =       168.000000000000;     BAS[ATNO][  2].d[ 20] =        -0.067984435054;
  BAS[ATNO][  2].a[ 21] =        71.990000000000;     BAS[ATNO][  2].d[ 21] =        -0.127695778723;
  BAS[ATNO][  2].a[ 22] =        31.670000000000;     BAS[ATNO][  2].d[ 22] =        -0.136464444072;
  BAS[ATNO][  2].a[ 23] =        12.890000000000;     BAS[ATNO][  2].d[ 23] =         0.078228804473;
  BAS[ATNO][  2].a[ 24] =         5.929000000000;     BAS[ATNO][  2].d[ 24] =         0.427514227469;
  BAS[ATNO][  2].a[ 25] =         2.678000000000;     BAS[ATNO][  2].d[ 25] =         0.342202104246;
  BAS[ATNO][  2].a[ 26] =    950600.000000000000;     BAS[ATNO][  2].d[ 26] =         0.000006427474;
  BAS[ATNO][  2].a[ 27] =    142300.000000000000;     BAS[ATNO][  2].d[ 27] =         0.000049893881;
  BAS[ATNO][  2].a[ 28] =     32360.000000000000;     BAS[ATNO][  2].d[ 28] =         0.000263580840;
  BAS[ATNO][  2].a[ 29] =      9145.000000000000;     BAS[ATNO][  2].d[ 29] =         0.001110999395;
  BAS[ATNO][  2].a[ 30] =      2970.000000000000;     BAS[ATNO][  2].d[ 30] =         0.004070882157;
  BAS[ATNO][  2].a[ 31] =      1064.000000000000;     BAS[ATNO][  2].d[ 31] =         0.013053600334;
  BAS[ATNO][  2].a[ 32] =       410.800000000000;     BAS[ATNO][  2].d[ 32] =         0.037468364256;
  BAS[ATNO][  2].a[ 33] =       168.000000000000;     BAS[ATNO][  2].d[ 33] =         0.090297647697;
  BAS[ATNO][  2].a[ 34] =        71.990000000000;     BAS[ATNO][  2].d[ 34] =         0.175718863604;
  BAS[ATNO][  2].a[ 35] =        31.670000000000;     BAS[ATNO][  2].d[ 35] =         0.193241572120;
  BAS[ATNO][  2].a[ 36] =        12.890000000000;     BAS[ATNO][  2].d[ 36] =        -0.115155044027;
  BAS[ATNO][  2].a[ 37] =         5.929000000000;     BAS[ATNO][  2].d[ 37] =        -0.876033634659;
  BAS[ATNO][  2].a[ 38] =         2.678000000000;     BAS[ATNO][  2].d[ 38] =        -1.154200190880;
  BAS[ATNO][  2].a[ 39] =         0.941600000000;     BAS[ATNO][  2].d[ 39] =        -0.856502495933;
  BAS[ATNO][  2].a[ 40] =         0.423900000000;     BAS[ATNO][  2].d[ 40] =         0.242263213494;
  BAS[ATNO][  2].a[ 41] =         0.171400000000;     BAS[ATNO][  2].d[ 41] =        -0.057145018039;
  BAS[ATNO][  2].a[ 42] =        24.024000000000;     BAS[ATNO][  2].d[ 42] =         0.003937795950;
  BAS[ATNO][  2].a[ 43] =        12.706000000000;     BAS[ATNO][  2].d[ 43] =         0.301486919547;
  BAS[ATNO][  2].a[ 44] =         6.720000000000;     BAS[ATNO][  2].d[ 44] =         1.405391932311;

  // Basis function   4 L = s
  InitBFNGauss(BAS[ATNO][  3]);
  BAS[ATNO][  3].l  = 0;
  BAS[ATNO][  3].ng = 45;
  BAS[ATNO][  3].a[  0] =    950600.000000000000;     BAS[ATNO][  3].d[  0] =         0.000003002123;
  BAS[ATNO][  3].a[  1] =    142300.000000000000;     BAS[ATNO][  3].d[  1] =         0.000023345304;
  BAS[ATNO][  3].a[  2] =     32360.000000000000;     BAS[ATNO][  3].d[  2] =         0.000122869036;
  BAS[ATNO][  3].a[  3] =      9145.000000000000;     BAS[ATNO][  3].d[  3] =         0.000518321296;
  BAS[ATNO][  3].a[  4] =      2970.000000000000;     BAS[ATNO][  3].d[  4] =         0.001874326646;
  BAS[ATNO][  3].a[  5] =      1064.000000000000;     BAS[ATNO][  3].d[  5] =         0.005912208656;
  BAS[ATNO][  3].a[  6] =       410.800000000000;     BAS[ATNO][  3].d[  6] =         0.015964311752;
[...]
  BAS[ATNO][ 13].a[  1] =       447.800000000000;     BAS[ATNO][ 13].d[  1] =         0.001272454075;
  BAS[ATNO][ 13].a[  2] =       144.600000000000;     BAS[ATNO][ 13].d[  2] =         0.006682230451;
  BAS[ATNO][ 13].a[  3] =        54.460000000000;     BAS[ATNO][ 13].d[  3] =         0.024866503370;
  BAS[ATNO][ 13].a[  4] =        22.510000000000;     BAS[ATNO][ 13].d[  4] =         0.064976645750;
  BAS[ATNO][ 13].a[  5] =         9.774000000000;     BAS[ATNO][ 13].d[  5] =         0.112082394500;
  BAS[ATNO][ 13].a[  6] =         4.368000000000;     BAS[ATNO][ 13].d[  6] =         0.109669600441;
  BAS[ATNO][ 13].a[  7] =         1.959000000000;     BAS[ATNO][ 13].d[  7] =         0.038680422735;
  BAS[ATNO][ 13].a[  8] =      1890.000000000000;     BAS[ATNO][ 13].d[  8] =        -0.000327039360;
  BAS[ATNO][ 13].a[  9] =       447.800000000000;     BAS[ATNO][ 13].d[  9] =        -0.002799533979;
  BAS[ATNO][ 13].a[ 10] =       144.600000000000;     BAS[ATNO][ 13].d[ 10] =        -0.014897397301;
  BAS[ATNO][ 13].a[ 11] =        54.460000000000;     BAS[ATNO][ 13].d[ 11] =        -0.056243384216;
  BAS[ATNO][ 13].a[ 12] =        22.510000000000;     BAS[ATNO][ 13].d[ 12] =        -0.152903494708;
  BAS[ATNO][ 13].a[ 13] =         9.774000000000;     BAS[ATNO][ 13].d[ 13] =        -0.271884748629;
  BAS[ATNO][ 13].a[ 14] =         4.368000000000;     BAS[ATNO][ 13].d[ 14] =        -0.291213238044;
  BAS[ATNO][ 13].a[ 15] =         1.959000000000;     BAS[ATNO][ 13].d[ 15] =         0.152860395968;
  BAS[ATNO][ 13].a[ 16] =         0.826000000000;     BAS[ATNO][ 13].d[ 16] =        -1.370389550981;
  BAS[ATNO][ 13].a[ 17] =         0.329700000000;     BAS[ATNO][ 13].d[ 17] =         2.276087791136;
  BAS[ATNO][ 13].a[ 18] =         0.124200000000;     BAS[ATNO][ 13].d[ 18] =        -1.791211166692;
  BAS[ATNO][ 13].a[ 19] =        23.627000000000;     BAS[ATNO][ 13].d[ 19] =         0.035521813934;
  BAS[ATNO][ 13].a[ 20] =        10.654000000000;     BAS[ATNO][ 13].d[ 20] =        -0.026736529380;
  BAS[ATNO][ 13].a[ 21] =         4.804000000000;     BAS[ATNO][ 13].d[ 21] =         0.585712927440;

  // Basis function  15 L = p
  InitBFNGauss(BAS[ATNO][ 14]);
  BAS[ATNO][ 14].l  = 1;
  BAS[ATNO][ 14].ng = 22;
  BAS[ATNO][ 14].a[  0] =      1890.000000000000;     BAS[ATNO][ 14].d[  0] =        -0.006483273860;
  BAS[ATNO][ 14].a[  1] =       447.800000000000;     BAS[ATNO][ 14].d[  1] =        -0.055602529360;
  BAS[ATNO][ 14].a[  2] =       144.600000000000;     BAS[ATNO][ 14].d[  2] =        -0.291993968273;
  BAS[ATNO][ 14].a[  3] =        54.460000000000;     BAS[ATNO][ 14].d[  3] =        -1.086593623036;
  BAS[ATNO][ 14].a[  4] =        22.510000000000;     BAS[ATNO][ 14].d[  4] =        -2.839289781380;
  BAS[ATNO][ 14].a[  5] =         9.774000000000;     BAS[ATNO][ 14].d[  5] =        -4.897673521051;
  BAS[ATNO][ 14].a[  6] =         4.368000000000;     BAS[ATNO][ 14].d[  6] =        -4.792241462567;
  BAS[ATNO][ 14].a[  7] =         1.959000000000;     BAS[ATNO][ 14].d[  7] =        -1.690221582583;
  BAS[ATNO][ 14].a[  8] =      1890.000000000000;     BAS[ATNO][ 14].d[  8] =         0.005540740118;
  BAS[ATNO][ 14].a[  9] =       447.800000000000;     BAS[ATNO][ 14].d[  9] =         0.047430040961;
  BAS[ATNO][ 14].a[ 10] =       144.600000000000;     BAS[ATNO][ 14].d[ 10] =         0.252393494576;
  BAS[ATNO][ 14].a[ 11] =        54.460000000000;     BAS[ATNO][ 14].d[ 11] =         0.952882171459;
  BAS[ATNO][ 14].a[ 12] =        22.510000000000;     BAS[ATNO][ 14].d[ 12] =         2.590509374421;
  BAS[ATNO][ 14].a[ 13] =         9.774000000000;     BAS[ATNO][ 14].d[ 13] =         4.606304070628;
  BAS[ATNO][ 14].a[ 14] =         4.368000000000;     BAS[ATNO][ 14].d[ 14] =         4.933769660070;
  BAS[ATNO][ 14].a[ 15] =         1.959000000000;     BAS[ATNO][ 14].d[ 15] =        -2.589779190396;
  BAS[ATNO][ 14].a[ 16] =         0.826000000000;     BAS[ATNO][ 14].d[ 16] =         3.396757407219;
  BAS[ATNO][ 14].a[ 17] =         0.329700000000;     BAS[ATNO][ 14].d[ 17] =        -1.836970431735;
  BAS[ATNO][ 14].a[ 18] =         0.124200000000;     BAS[ATNO][ 14].d[ 18] =         0.620827219230;
  BAS[ATNO][ 14].a[ 19] =        23.627000000000;     BAS[ATNO][ 14].d[ 19] =         0.122252852461;
  BAS[ATNO][ 14].a[ 20] =        10.654000000000;     BAS[ATNO][ 14].d[ 20] =        -0.855017743071;
  BAS[ATNO][ 14].a[ 21] =         4.804000000000;     BAS[ATNO][ 14].d[ 21] =         3.313557795652;

  // Basis function  16 L = p
  InitBFNGauss(BAS[ATNO][ 15]);
  BAS[ATNO][ 15].l  = 1;
  BAS[ATNO][ 15].ng = 22;
  BAS[ATNO][ 15].a[  0] =      1890.000000000000;     BAS[ATNO][ 15].d[  0] =         0.002853420584;
  BAS[ATNO][ 15].a[  1] =       447.800000000000;     BAS[ATNO][ 15].d[  1] =         0.024471803168;
  BAS[ATNO][ 15].a[  2] =       144.600000000000;     BAS[ATNO][ 15].d[  2] =         0.128512479561;
  BAS[ATNO][ 15].a[  3] =        54.460000000000;     BAS[ATNO][ 15].d[  3] =         0.478231936084;
  BAS[ATNO][ 15].a[  4] =        22.510000000000;     BAS[ATNO][ 15].d[  4] =         1.249629135001;
  BAS[ATNO][ 15].a[  5] =         9.774000000000;     BAS[ATNO][ 15].d[  5] =         2.155565650877;
  BAS[ATNO][ 15].a[  6] =         4.368000000000;     BAS[ATNO][ 15].d[  6] =         2.109162859267;
  BAS[ATNO][ 15].a[  7] =         1.959000000000;     BAS[ATNO][ 15].d[  7] =         0.743900868469;
  BAS[ATNO][ 15].a[  8] =      1890.000000000000;     BAS[ATNO][ 15].d[  8] =        -0.003885651317;
  BAS[ATNO][ 15].a[  9] =       447.800000000000;     BAS[ATNO][ 15].d[  9] =        -0.033262090839;
  BAS[ATNO][ 15].a[ 10] =       144.600000000000;     BAS[ATNO][ 15].d[ 10] =        -0.177000381479;
  BAS[ATNO][ 15].a[ 11] =        54.460000000000;     BAS[ATNO][ 15].d[ 11] =        -0.668244275218;
  BAS[ATNO][ 15].a[ 12] =        22.510000000000;     BAS[ATNO][ 15].d[ 12] =        -1.816691623797;
  BAS[ATNO][ 15].a[ 13] =         9.774000000000;     BAS[ATNO][ 15].d[ 13] =        -3.230343076307;
  BAS[ATNO][ 15].a[ 14] =         4.368000000000;     BAS[ATNO][ 15].d[ 14] =        -3.459990573165;
  BAS[ATNO][ 15].a[ 15] =         1.959000000000;     BAS[ATNO][ 15].d[ 15] =         1.816179554929;
  BAS[ATNO][ 15].a[ 16] =         0.826000000000;     BAS[ATNO][ 15].d[ 16] =        -1.377551165924;
  BAS[ATNO][ 15].a[ 17] =         0.329700000000;     BAS[ATNO][ 15].d[ 17] =         0.596519527018;
  BAS[ATNO][ 15].a[ 18] =         0.124200000000;     BAS[ATNO][ 15].d[ 18] =        -0.176365590237;
  BAS[ATNO][ 15].a[ 19] =        23.627000000000;     BAS[ATNO][ 15].d[ 19] =        -1.412054612665;
  BAS[ATNO][ 15].a[ 20] =        10.654000000000;     BAS[ATNO][ 15].d[ 20] =         5.259340398562;
  BAS[ATNO][ 15].a[ 21] =         4.804000000000;     BAS[ATNO][ 15].d[ 21] =        -2.520313594098;

  // Basis function  17 L = p
  InitBFNGauss(BAS[ATNO][ 16]);
  BAS[ATNO][ 16].l  = 1;
  BAS[ATNO][ 16].ng = 22;
  BAS[ATNO][ 16].a[  0] =      1890.000000000000;     BAS[ATNO][ 16].d[  0] =        -0.006841717638;
  BAS[ATNO][ 16].a[  1] =       447.800000000000;     BAS[ATNO][ 16].d[  1] =        -0.058676652268;
  BAS[ATNO][ 16].a[  2] =       144.600000000000;     BAS[ATNO][ 16].d[  2] =        -0.308137574641;
  BAS[ATNO][ 16].a[  3] =        54.460000000000;     BAS[ATNO][ 16].d[  3] =        -1.146668630188;
  BAS[ATNO][ 16].a[  4] =        22.510000000000;     BAS[ATNO][ 16].d[  4] =        -2.996266916443;
  BAS[ATNO][ 16].a[  5] =         9.774000000000;     BAS[ATNO][ 16].d[  5] =        -5.168453475548;
  BAS[ATNO][ 16].a[  6] =         4.368000000000;     BAS[ATNO][ 16].d[  6] =        -5.057192345797;
  BAS[ATNO][ 16].a[  7] =         1.959000000000;     BAS[ATNO][ 16].d[  7] =        -1.783669649559;
  BAS[ATNO][ 16].a[  8] =      1890.000000000000;     BAS[ATNO][ 16].d[  8] =        -0.002423688240;
  BAS[ATNO][ 16].a[  9] =       447.800000000000;     BAS[ATNO][ 16].d[  9] =        -0.020747342427;
  BAS[ATNO][ 16].a[ 10] =       144.600000000000;     BAS[ATNO][ 16].d[ 10] =        -0.110404590679;
  BAS[ATNO][ 16].a[ 11] =        54.460000000000;     BAS[ATNO][ 16].d[ 11] =        -0.416819642209;
  BAS[ATNO][ 16].a[ 12] =        22.510000000000;     BAS[ATNO][ 16].d[ 12] =        -1.133167586640;
  BAS[ATNO][ 16].a[ 13] =         9.774000000000;     BAS[ATNO][ 16].d[ 13] =        -2.014937493987;
  BAS[ATNO][ 16].a[ 14] =         4.368000000000;     BAS[ATNO][ 16].d[ 14] =        -2.158180902160;
  BAS[ATNO][ 16].a[ 15] =         1.959000000000;     BAS[ATNO][ 16].d[ 15] =         1.132848181941;
  BAS[ATNO][ 16].a[ 16] =         0.826000000000;     BAS[ATNO][ 16].d[ 16] =         0.439340488664;
  BAS[ATNO][ 16].a[ 17] =         0.329700000000;     BAS[ATNO][ 16].d[ 17] =        -0.198434447966;
  BAS[ATNO][ 16].a[ 18] =         0.124200000000;     BAS[ATNO][ 16].d[ 18] =         0.059232148904;
  BAS[ATNO][ 16].a[ 19] =        23.627000000000;     BAS[ATNO][ 16].d[ 19] =         7.282332209833;
  BAS[ATNO][ 16].a[ 20] =        10.654000000000;     BAS[ATNO][ 16].d[ 20] =         3.079646240500;
  BAS[ATNO][ 16].a[ 21] =         4.804000000000;     BAS[ATNO][ 16].d[ 21] =        10.099084079241;

  // Basis function  18 L = d
  InitBFNGauss(BAS[ATNO][ 17]);
  BAS[ATNO][ 17].l  = 2;
  BAS[ATNO][ 17].ng = 6;
  BAS[ATNO][ 17].a[  0] =         0.311000000000;     BAS[ATNO][ 17].d[  0] =         0.030772170501;
  BAS[ATNO][ 17].a[  1] =         0.763000000000;     BAS[ATNO][ 17].d[  1] =        -0.076333522103;
  BAS[ATNO][ 17].a[  2] =         1.873000000000;     BAS[ATNO][ 17].d[  2] =         0.547787545326;
  BAS[ATNO][ 17].a[  3] =        37.364000000000;     BAS[ATNO][ 17].d[  3] =         0.038536437435;
  BAS[ATNO][ 17].a[  4] =        15.013000000000;     BAS[ATNO][ 17].d[  4] =         0.093603593036;
  BAS[ATNO][ 17].a[  5] =         6.032000000000;     BAS[ATNO][ 17].d[  5] =         0.547886049381;

  // Basis function  19 L = d
  InitBFNGauss(BAS[ATNO][ 18]);
  BAS[ATNO][ 18].l  = 2;
  BAS[ATNO][ 18].ng = 6;
  BAS[ATNO][ 18].a[  0] =         0.311000000000;     BAS[ATNO][ 18].d[  0] =        -0.037377017156;
  BAS[ATNO][ 18].a[  1] =         0.763000000000;     BAS[ATNO][ 18].d[  1] =         0.927501168628;
  BAS[ATNO][ 18].a[  2] =         1.873000000000;     BAS[ATNO][ 18].d[  2] =         0.093548706576;
  BAS[ATNO][ 18].a[  3] =        37.364000000000;     BAS[ATNO][ 18].d[  3] =        -0.031047971991;
  BAS[ATNO][ 18].a[  4] =        15.013000000000;     BAS[ATNO][ 18].d[  4] =        -0.079573326370;
  BAS[ATNO][ 18].a[  5] =         6.032000000000;     BAS[ATNO][ 18].d[  5] =        -0.468520749009;

  // Basis function  20 L = d
  InitBFNGauss(BAS[ATNO][ 19]);
  BAS[ATNO][ 19].l  = 2;
  BAS[ATNO][ 19].ng = 6;
  BAS[ATNO][ 19].a[  0] =         0.311000000000;     BAS[ATNO][ 19].d[  0] =         1.175870159177;
  BAS[ATNO][ 19].a[  1] =         0.763000000000;     BAS[ATNO][ 19].d[  1] =        -0.428664965461;
  BAS[ATNO][ 19].a[  2] =         1.873000000000;     BAS[ATNO][ 19].d[  2] =        -0.476592813432;
  BAS[ATNO][ 19].a[  3] =        37.364000000000;     BAS[ATNO][ 19].d[  3] =         0.024839323773;
  BAS[ATNO][ 19].a[  4] =        15.013000000000;     BAS[ATNO][ 19].d[  4] =         0.060560044641;
  BAS[ATNO][ 19].a[  5] =         6.032000000000;     BAS[ATNO][ 19].d[  5] =         0.384496559347;

  // Basis function  21 L = d
  InitBFNGauss(BAS[ATNO][ 20]);
  BAS[ATNO][ 20].l  = 2;
  BAS[ATNO][ 20].ng = 6;
  BAS[ATNO][ 20].a[  0] =         0.311000000000;     BAS[ATNO][ 20].d[  0] =        -1.108188630549;
  BAS[ATNO][ 20].a[  1] =         0.763000000000;     BAS[ATNO][ 20].d[  1] =         2.069717782606;
  BAS[ATNO][ 20].a[  2] =         1.873000000000;     BAS[ATNO][ 20].d[  2] =        -1.824510972519;
  BAS[ATNO][ 20].a[  3] =        37.364000000000;     BAS[ATNO][ 20].d[  3] =         0.047491485888;
  BAS[ATNO][ 20].a[  4] =        15.013000000000;     BAS[ATNO][ 20].d[  4] =         0.106716510306;
  BAS[ATNO][ 20].a[  5] =         6.032000000000;     BAS[ATNO][ 20].d[  5] =         0.750945985443;

  // Basis function  22 L = d
  InitBFNGauss(BAS[ATNO][ 21]);
  BAS[ATNO][ 21].l  = 2;
  BAS[ATNO][ 21].ng = 6;
  BAS[ATNO][ 21].a[  0] =         0.311000000000;     BAS[ATNO][ 21].d[  0] =        -0.235638991179;
  BAS[ATNO][ 21].a[  1] =         0.763000000000;     BAS[ATNO][ 21].d[  1] =         0.649646876465;
  BAS[ATNO][ 21].a[  2] =         1.873000000000;     BAS[ATNO][ 21].d[  2] =        -1.042020567953;
  BAS[ATNO][ 21].a[  3] =        37.364000000000;     BAS[ATNO][ 21].d[  3] =         0.019522888976;
  BAS[ATNO][ 21].a[  4] =        15.013000000000;     BAS[ATNO][ 21].d[  4] =        -1.542529094968;
  BAS[ATNO][ 21].a[  5] =         6.032000000000;     BAS[ATNO][ 21].d[  5] =         1.682488003325;

  // Basis function  23 L = d
  InitBFNGauss(BAS[ATNO][ 22]);
  BAS[ATNO][ 22].l  = 2;
  BAS[ATNO][ 22].ng = 6;
  BAS[ATNO][ 22].a[  0] =         0.311000000000;     BAS[ATNO][ 22].d[  0] =         0.091239593328;
  BAS[ATNO][ 22].a[  1] =         0.763000000000;     BAS[ATNO][ 22].d[  1] =        -0.257280072010;
  BAS[ATNO][ 22].a[  2] =         1.873000000000;     BAS[ATNO][ 22].d[  2] =         0.441613485454;
  BAS[ATNO][ 22].a[  3] =        37.364000000000;     BAS[ATNO][ 22].d[  3] =        -1.606159282322;
  BAS[ATNO][ 22].a[  4] =        15.013000000000;     BAS[ATNO][ 22].d[  4] =         1.767695674247;
  BAS[ATNO][ 22].a[  5] =         6.032000000000;     BAS[ATNO][ 22].d[  5] =        -0.968428051318;

  // Basis function  24 L = f
  InitBFNGauss(BAS[ATNO][ 23]);
  BAS[ATNO][ 23].l  = 3;
  BAS[ATNO][ 23].ng = 4;
  BAS[ATNO][ 23].a[  0] =         0.543000000000;     BAS[ATNO][ 23].d[  0] =         0.071927790769;
  BAS[ATNO][ 23].a[  1] =         1.325000000000;     BAS[ATNO][ 23].d[  1] =         0.914070661334;
  BAS[ATNO][ 23].a[  2] =        21.884000000000;     BAS[ATNO][ 23].d[  2] =        -0.011250780019;
  BAS[ATNO][ 23].a[  3] =         7.968000000000;     BAS[ATNO][ 23].d[  3] =         0.147474324828;

  // Basis function  25 L = f
  InitBFNGauss(BAS[ATNO][ 24]);
  BAS[ATNO][ 24].l  = 3;
  BAS[ATNO][ 24].ng = 4;
  BAS[ATNO][ 24].a[  0] =         0.543000000000;     BAS[ATNO][ 24].d[  0] =         1.280228243080;
  BAS[ATNO][ 24].a[  1] =         1.325000000000;     BAS[ATNO][ 24].d[  1] =        -0.821608352621;
  BAS[ATNO][ 24].a[  2] =        21.884000000000;     BAS[ATNO][ 24].d[  2] =         0.009655158730;
  BAS[ATNO][ 24].a[  3] =         7.968000000000;     BAS[ATNO][ 24].d[  3] =        -0.140370492940;

  // Basis function  26 L = f
  InitBFNGauss(BAS[ATNO][ 25]);
  BAS[ATNO][ 25].l  = 3;
  BAS[ATNO][ 25].ng = 4;
  BAS[ATNO][ 25].a[  0] =         0.543000000000;     BAS[ATNO][ 25].d[  0] =         0.326134765386;
  BAS[ATNO][ 25].a[  1] =         1.325000000000;     BAS[ATNO][ 25].d[  1] =        -0.558164580767;
  BAS[ATNO][ 25].a[  2] =        21.884000000000;     BAS[ATNO][ 25].d[  2] =        -0.047620338458;
  BAS[ATNO][ 25].a[  3] =         7.968000000000;     BAS[ATNO][ 25].d[  3] =         1.037180498353;

  // Basis function  27 L = f
  InitBFNGauss(BAS[ATNO][ 26]);
  BAS[ATNO][ 26].l  = 3;
  BAS[ATNO][ 26].ng = 4;
  BAS[ATNO][ 26].a[  0] =         0.543000000000;     BAS[ATNO][ 26].d[  0] =        -0.078233140972;
  BAS[ATNO][ 26].a[  1] =         1.325000000000;     BAS[ATNO][ 26].d[  1] =         0.155011270406;
  BAS[ATNO][ 26].a[  2] =        21.884000000000;     BAS[ATNO][ 26].d[  2] =         1.231576779488;
  BAS[ATNO][ 26].a[  3] =         7.968000000000;     BAS[ATNO][ 26].d[  3] =        -0.697354463020;

  // Basis function  28 L = g
  InitBFNGauss(BAS[ATNO][ 27]);
  BAS[ATNO][ 27].l  = 4;
  BAS[ATNO][ 27].ng = 2;
  BAS[ATNO][ 27].a[  0] =         1.007000000000;     BAS[ATNO][ 27].d[  0] =         0.999938022103;
  BAS[ATNO][ 27].a[  1] =        17.243000000000;     BAS[ATNO][ 27].d[  1] =         0.004017294953;

  // Basis function  29 L = g
  InitBFNGauss(BAS[ATNO][ 28]);
  BAS[ATNO][ 28].l  = 4;
  BAS[ATNO][ 28].ng = 2;
  BAS[ATNO][ 28].a[  0] =         1.007000000000;     BAS[ATNO][ 28].d[  0] =        -0.017437508214;
  BAS[ATNO][ 28].a[  1] =        17.243000000000;     BAS[ATNO][ 28].d[  1] =         1.000081984680;

-------
TIMINGS
-------

Total SCF time: 0 days 0 hours 0 min 1 sec 

Total time                  ....       1.780 sec
Sum of individual times     ....       1.546 sec  ( 86.8%)

Fock matrix formation       ....       1.075 sec  ( 60.4%)
  XC integration            ....       0.027 sec  (  2.5% of F)
    Basis function eval.    ....       0.005 sec  ( 17.9% of XC)
    Density eval.           ....       0.002 sec  (  8.1% of XC)
    XC-Functional eval.     ....       0.001 sec  (  4.7% of XC)
    XC-Potential eval.      ....       0.004 sec  ( 15.8% of XC)
Diagonalization             ....       0.002 sec  (  0.1%)
Density matrix formation    ....       0.001 sec  (  0.1%)
Population analysis         ....       0.001 sec  (  0.1%)
Initial guess               ....       0.091 sec  (  5.1%)
Orbital Transformation      ....       0.000 sec  (  0.0%)
Orbital Orthonormalization  ....       0.000 sec  (  0.0%)
DIIS solution               ....       0.000 sec  (  0.0%)
SOSCF solution              ....       0.002 sec  (  0.1%)
Grid generation             ....       0.373 sec  ( 20.9%)

-------------------------   --------------------
FINAL SINGLE POINT ENERGY      -358.513471809547
-------------------------   --------------------


                            ***************************************
                            *     ORCA property calculations      *
                            ***************************************

                                    ---------------------
                                    Active property flags
                                    ---------------------
   (+) Dipole Moment


------------------------------------------------------------------------------
                       ORCA ELECTRIC PROPERTIES CALCULATION
------------------------------------------------------------------------------

Dipole Moment Calculation                       ... on
Quadrupole Moment Calculation                   ... off
Polarizability Calculation                      ... off
GBWName                                         ... Ar_cc-pcvqz_34.25899725_.gbw
Electron density file                           ... Ar_cc-pcvqz_34.25899725_.scfp
The origin for moment calculation is the CENTER OF MASS  = ( 0.000000,  0.000000  0.000000)

-------------
DIPOLE MOMENT
-------------
                                X             Y             Z
Electronic contribution:     -0.00000       0.00000       0.00000
Nuclear contribution   :      0.00000       0.00000       0.00000
                        -----------------------------------------
Total Dipole Moment    :     -0.00000       0.00000       0.00000
                        -----------------------------------------
Magnitude (a.u.)       :      0.00000
Magnitude (Debye)      :      0.00000



--------------------
Rotational spectrum 
--------------------
 
Rotational constants in cm-1:     0.000000     0.000000     0.000000 
Rotational constants in MHz :     0.000000     0.000000     0.000000 

 Dipole components along the rotational axes: 
x,y,z [a.u.] :    -0.000000     0.000000     0.000000 
x,y,z [Debye]:    -0.000000     0.000000     0.000000 

 

Timings for individual modules:

Sum of individual times         ...        3.017 sec (=   0.050 min)
GTO integral calculation        ...        0.600 sec (=   0.010 min)  19.9 %
Relativistic integrals          ...        0.376 sec (=   0.006 min)  12.5 %
SCF iterations                  ...        2.042 sec (=   0.034 min)  67.7 %
                             ****ORCA TERMINATED NORMALLY****
TOTAL RUN TIME: 0 days 0 hours 0 minutes 3 seconds 358 msec
