
                                 *****************
                                 * O   R   C   A *
                                 *****************

           --- An Ab Initio, DFT and Semiempirical electronic structure package ---

                  #######################################################
                  #                        -***-                        #
                  #          Department of theory and spectroscopy      #
                  #               Directorship: Frank Neese             #
                  #        Max Planck Institute fuer Kohlenforschung    #
                  #                Kaiser Wilhelm Platz 1               #
                  #                 D-45470 Muelheim/Ruhr               #
                  #                      Germany                        #
                  #                                                     #
                  #                  All rights reserved                #
                  #                        -***-                        #
                  #######################################################


                         Program Version 4.2.1 -  RELEASE  -


 With contributions from (in alphabetic order):
   Daniel Aravena         : Magnetic Suceptibility
   Michael Atanasov       : Ab Initio Ligand Field Theory (pilot matlab implementation)
   Alexander A. Auer      : GIAO ZORA, VPT2
   Ute Becker             : Parallelization
   Giovanni Bistoni       : ED, misc. LED, open-shell LED, HFLD
   Martin Brehm           : Molecular dynamics
   Dmytro Bykov           : SCF Hessian
   Vijay G. Chilkuri      : MRCI spin determinant printing, contributions to CSF-ICE
   Dipayan Datta          : RHF DLPNO-CCSD density
   Achintya Kumar Dutta   : EOM-CC, STEOM-CC
   Dmitry Ganyushin       : Spin-Orbit,Spin-Spin,Magnetic field MRCI
   Miquel Garcia          : C-PCM Hessian, Gaussian charge scheme
   Yang Guo               : DLPNO-NEVPT2, CIM, IAO-localization
   Andreas Hansen         : Spin unrestricted coupled pair/coupled cluster methods
   Benjamin Helmich-Paris : CASSCF linear response (MC-RPA)
   Lee Huntington         : MR-EOM, pCC
   Robert Izsak           : Overlap fitted RIJCOSX, COSX-SCS-MP3, EOM
   Christian Kollmar      : KDIIS, OOCD, Brueckner-CCSD(T), CCSD density
   Simone Kossmann        : Meta GGA functionals, TD-DFT gradient, OOMP2, MP2 Hessian
   Martin Krupicka        : AUTO-CI
   Lucas Lang             : DCDCAS
   Dagmar Lenk            : GEPOL surface, SMD
   Dimitrios Liakos       : Extrapolation schemes; Compound Job, initial MDCI parallelization
   Dimitrios Manganas     : Further ROCIS development; embedding schemes
   Dimitrios Pantazis     : SARC Basis sets
   Taras Petrenko         : DFT Hessian,TD-DFT gradient, ASA, ECA, R-Raman, ABS, FL, XAS/XES, NRVS
   Peter Pinski           : DLPNO-MP2, DLPNO-MP2 Gradient
   Christoph Reimann      : Effective Core Potentials
   Marius Retegan         : Local ZFS, SOC
   Christoph Riplinger    : Optimizer, TS searches, QM/MM, DLPNO-CCSD(T), (RO)-DLPNO pert. Triples
   Tobias Risthaus        : Range-separated hybrids, TD-DFT gradient, RPA, STAB
   Michael Roemelt        : Original ROCIS implementation
   Masaaki Saitow         : Open-shell DLPNO-CCSD energy and density
   Barbara Sandhoefer     : DKH picture change effects
   Avijit Sen             : IP-ROCIS
   Kantharuban Sivalingam : CASSCF convergence, NEVPT2, FIC-MRCI
   Bernardo de Souza      : ESD, SOC TD-DFT
   Georgi Stoychev        : AutoAux, RI-MP2 NMR
   Willem Van den Heuvel  : Paramagnetic NMR
   Boris Wezisla          : Elementary symmetry handling
   Frank Wennmohs         : Technical directorship


 We gratefully acknowledge several colleagues who have allowed us to
 interface, adapt or use parts of their codes:
   Stefan Grimme, W. Hujo, H. Kruse,             : VdW corrections, initial TS optimization,
                  C. Bannwarth                     DFT functionals, gCP, sTDA/sTD-DF
   Ed Valeev, F. Pavosevic, A. Kumar             : LibInt (2-el integral package), F12 methods
   Garnet Chan, S. Sharma, J. Yang, R. Olivares  : DMRG
   Ulf Ekstrom                                   : XCFun DFT Library
   Mihaly Kallay                                 : mrcc  (arbitrary order and MRCC methods)
   Andreas Klamt, Michael Diedenhofen            : otool_cosmo (COSMO solvation model)
   Jiri Pittner, Ondrej Demel                    : Mk-CCSD
   Frank Weinhold                                : gennbo (NPA and NBO analysis)
   Christopher J. Cramer and Donald G. Truhlar   : smd solvation model
   Lars Goerigk                                  : TD-DFT with DH, B97 family of functionals
   V. Asgeirsson, H. Jonsson                     : NEB implementation
   FAccTs GmbH                                   : IRC, NEB, NEB-TS, Multilevel, MM, QM/MM, CI optimization
   S Lehtola, MJT Oliveira, MAL Marques          : LibXC Library


 Your calculation uses the libint2 library for the computation of 2-el integrals
 For citations please refer to: http://libint.valeyev.net

 Your ORCA version has been built with support for libXC version: 4.2.3
 For citations please refer to: https://tddft.org/programs/libxc/

 This ORCA versions uses:
   CBLAS   interface :  Fast vector & matrix operations
   LAPACKE interface :  Fast linear algebra routines
   SCALAPACK package :  Parallel linear algebra routines


----- Orbital basis set information -----
Your calculation utilizes the basis: cc-pCVTZ 
             H : cc-pVTZ. Obtained from the ccRepo (grant-hill.group.shef.ac.uk/ccrepo) Feb. 2017
                 T. H. Dunning, Jr., J. Chem. Phys. 90, 1007 (1989)
            He : cc-pVTZ. Obtained from the ccRepo (grant-hill.group.shef.ac.uk/ccrepo) Feb. 2017
                 D. E. Woon, T. H. Dunning, Jr., J. Chem. Phys. 100, 2975 (1994)
  Li-Be, Na-Mg : Obtained from the ccRepo (grant-hill.group.shef.ac.uk/ccrepo) Feb. 2017
                 B. P. Prascher, D. E. Woon, K. A. Peterson, T. H. Dunning, Jr., A. K. Wilson, Theor. Chem. Acc. 128, 69 (2011)
          B-Ne : Obtained from the ccRepo (grant-hill.group.shef.ac.uk/ccrepo) Feb. 2017
                 D. E. Woon, T. H. Dunning, Jr., J. Chem. Phys. 103, 4572 (1995)
                  K. A. Peterson, T. H. Dunning, Jr., J. Chem. Phys. 117, 10548 (2002)
         Al-Ar : Obtained from the EMSL Basis Set Exchange (bse.pnl.gov) Feb. 2017
                 K. A. Peterson, T. H. Dunning, Jr., J. Chem. Phys. 117, 10548 (2002)
            Ca : Obtained from the Peterson Research Group Website (tyr0.chem.wsu.edu/~kipeters) Feb. 2017
                 J. Koput, K. A. Peterson, J. Phys. Chem. 106, 9595 (2002)
         Ga-Kr : Obtained from the Peterson Research Group Website (tyr0.chem.wsu.edu/~kipeters) Feb. 2017
                 N. J. DeYonker, K. A. Peterson, A. K. Wilson, J. Phys. Chem. A 111, 11383 (2007)

================================================================================
                                        WARNINGS
                       Please study these warnings very carefully!
================================================================================


INFO   : the flag for use of LIBINT has been found!

================================================================================
                                       INPUT FILE
================================================================================
NAME = Ar_cc-pcvtz_4385.151648_.inp
|  1> ! LDA cc-pcvtz nori grid5 finalgrid6 verytightscf
|  2> %Pal NProcs 18 End
|  3> 
|  4> % REL
|  5>   Method ZORA
|  6>   ModelPot 1, 0, 0, 0
|  7>   velit 4385.151648
|  8> END
|  9> 
| 10> *xyz 16 1
| 11> Ar 0.0 0.0 0.0
| 12> **                         ****END OF INPUT****
================================================================================

                       ****************************
                       * Single Point Calculation *
                       ****************************

---------------------------------
CARTESIAN COORDINATES (ANGSTROEM)
---------------------------------
  Ar     0.000000    0.000000    0.000000

----------------------------
CARTESIAN COORDINATES (A.U.)
----------------------------
  NO LB      ZA    FRAG     MASS         X           Y           Z
   0 Ar   18.0000    0    39.948    0.000000    0.000000    0.000000

--------------------------------
INTERNAL COORDINATES (ANGSTROEM)
--------------------------------
 Ar     0   0   0     0.000000000000     0.00000000     0.00000000

---------------------------
INTERNAL COORDINATES (A.U.)
---------------------------
 Ar     0   0   0     0.000000000000     0.00000000     0.00000000

---------------------
BASIS SET INFORMATION
---------------------
There are 1 groups of distinct atoms

 Group   1 Type Ar  : 43s18p4d2f contracted to 7s6p4d2f pattern {1313131111/771111/1111/11}

Atom   0Ar   basis set group =>   1


           ************************************************************
           *        Program running with 18 parallel MPI-processes    *
           *              working on a common directory               *
           ************************************************************
------------------------------------------------------------------------------
                           ORCA GTO INTEGRAL CALCULATION
------------------------------------------------------------------------------

                         BASIS SET STATISTICS AND STARTUP INFO

 # of primitive gaussian shells          ...   67
 # of primitive gaussian functions       ...  131
 # of contracted shells                  ...   19
 # of contracted basis functions         ...   59
 Highest angular momentum                ...    3
 Maximum contraction depth               ...   13
 Integral package used                   ... LIBINT
 Integral threshhold            Thresh   ...  1.000e-12
 Primitive cut-off              TCut     ...  1.000e-14


------------------------------ INTEGRAL EVALUATION ----------------------------


 * One electron integrals 
 Pre-screening matrix                    ... done
 Shell pair data                         ... done (   0.000 sec)



           ************************************************************
           *        Program running with 18 parallel MPI-processes    *
           *              working on a common directory               *
           ************************************************************
------------------------------------------------------------------------------
                          ORCA RELATIVISTIC HAMILTONIAN
------------------------------------------------------------------------------

Relativistic Method            ... ZORA(MP)
Treatment of potential         ... Van Wuellen
Nucleus model                  ... Point Nucleus
Speed of light used            ... 4385.15164800000002


            *************************************************
            *         ZERO ORDER REGULAR APPROXIMATION      *
            *                     ZORA(MP)                  *
            *            Programmed by FN according to      *
            *                   C. van Wuellen              *
            *       J. Chem. Phys. (1998) vol 109, 392-399  *
            *************************************************

Terms included in model potential: +V(e,N)
Basis function cutoff value   ... 1.000000e-12
Loading the fitted atomic densities  (DKH4)  ... done
Calculating the cutoffs                      ... done
Number of fit functions                      ... 15
Setting up the integration grid ... done


           ************************************************************
           *        Program running with 18 parallel MPI-processes    *
           *              working on a common directory               *
           ************************************************************
-------------------------------------------------------------------------------
                                 ORCA SCF
-------------------------------------------------------------------------------

------------
SCF SETTINGS
------------
Hamiltonian:
 Density Functional     Method          .... DFT(GTOs)
 Exchange Functional    Exchange        .... Slater
   X-Alpha parameter    XAlpha          ....  0.666667
 Correlation Functional Correlation     .... VWN-5
 Gradients option       PostSCFGGA      .... off
   Density functional embedding theory  .... OFF

Relativistic Settings:
 Scalar relativistic method             .... ZORA
 Speed of light used       Velit        ....       4385.15165
Orbital energies will be scaled


General Settings:
 Integral files         IntName         .... Ar_cc-pcvtz_4385.151648_
 Hartree-Fock type      HFTyp           .... RHF
 Total Charge           Charge          ....   16
 Multiplicity           Mult            ....    1
 Number of Electrons    NEL             ....    2
 Basis Dimension        Dim             ....   59
 Nuclear Repulsion      ENuc            ....      0.0000000000 Eh

Convergence Acceleration:
 DIIS                   CNVDIIS         .... on
   Start iteration      DIISMaxIt       ....    12
   Startup error        DIISStart       ....  0.200000
   # of expansion vecs  DIISMaxEq       ....     5
   Bias factor          DIISBfac        ....   1.050
   Max. coefficient     DIISMaxC        ....  10.000
 Newton-Raphson         CNVNR           .... off
 SOSCF                  CNVSOSCF        .... on
   Start iteration      SOSCFMaxIt      ....   150
   Startup grad/error   SOSCFStart      ....  0.003300
 Level Shifting         CNVShift        .... on
   Level shift para.    LevelShift      ....    0.2500
   Turn off err/grad.   ShiftErr        ....    0.0010
 Zerner damping         CNVZerner       .... off
 Static damping         CNVDamp         .... on
   Fraction old density DampFac         ....    0.7000
   Max. Damping (<1)    DampMax         ....    0.9800
   Min. Damping (>=0)   DampMin         ....    0.0000
   Turn off err/grad.   DampErr         ....    0.1000
 Fernandez-Rico         CNVRico         .... off

SCF Procedure:
 Maximum # iterations   MaxIter         ....   125
 SCF integral mode      SCFMode         .... Direct
   Integral package                     .... LIBINT
 Reset frequency        DirectResetFreq ....    20
 Integral Threshold     Thresh          ....  1.000e-12 Eh
 Primitive CutOff       TCut            ....  1.000e-14 Eh

Convergence Tolerance:
 Convergence Check Mode ConvCheckMode   .... Total+1el-Energy
 Convergence forced     ConvForced      .... 0
 Energy Change          TolE            ....  1.000e-09 Eh
 1-El. energy change                    ....  1.000e-06 Eh
 Orbital Gradient       TolG            ....  2.000e-06
 Orbital Rotation angle TolX            ....  2.000e-06
 DIIS Error             TolErr          ....  1.000e-08


Diagonalization of the overlap matrix:
Smallest eigenvalue                        ... 2.200e-03
Time for diagonalization                   ...    0.001 sec
Threshold for overlap eigenvalues          ... 1.000e-08
Number of eigenvalues below threshold      ... 0
Time for construction of square roots      ...    0.001 sec
Total time needed                          ...    0.003 sec

-------------------
DFT GRID GENERATION
-------------------

General Integration Accuracy     IntAcc      ...  5.010
Radial Grid Type                 RadialGrid  ... Gauss-Chebyshev
Angular Grid (max. acc.)         AngularGrid ... Lebedev-434
Angular grid pruning method      GridPruning ... 3 (G Style)
Weight generation scheme         WeightScheme... Becke
Basis function cutoff            BFCut       ...    1.0000e-12
Integration weight cutoff        WCut        ...    1.0000e-14
Grids for H and He will be reduced by one unit

# of grid points (after initial pruning)     ...  11992 (   0.0 sec)
# of grid points (after weights+screening)   ...  11992 (   0.0 sec)
Grid point division into batches done        ...    0.1 sec
Reduced shell lists constructed in    0.1 sec

Total number of grid points                  ...    11992
Total number of batches                      ...      188
Average number of points per batch           ...       63
Average number of grid points per atom       ...    11992
Average number of shells per batch           ...     0.00 ( 0.00%)
Average number of basis functions per batch  ...     0.00 ( 0.00%)
Average number of large shells per batch     ...     0.00 ( -nan%)
Average number of large basis fcns per batch ...     0.00 ( -nan%)
Maximum spatial batch extension              ...  18.71, 18.71, 18.71 au
Average spatial batch extension              ...   0.97,  0.98,  0.97 au

Time for grid setup =    0.153 sec

------------------------------
INITIAL GUESS: MODEL POTENTIAL
------------------------------
Loading ZORA relativistic densities                ... done
Calculating cut-offs                               ... done
Setting up the integral package                    ... done
Initializing the effective Hamiltonian             ... done
Starting the Coulomb interaction                   ... done (   0.0 sec)
Reading the grid                                   ... done
Mapping shells                                     ... done
Starting the XC term evaluation                    ... done (   0.0 sec)
  promolecular density results
     # of electrons  =     18.000000116
     EX              =    -28.047870263
     EC              =     -1.433252902
     EX+EC           =    -29.481123164
Transforming the Hamiltonian                       ... done (   0.0 sec)
Diagonalizing the Hamiltonian                      ... done (   0.0 sec)
Back transforming the eigenvectors                 ... done (   0.0 sec)
Now organizing SCF variables                       ... done
                      ------------------
                      INITIAL GUESS DONE (   0.2 sec)
                      ------------------
--------------
SCF ITERATIONS
--------------
ITER       Energy         Delta-E        Max-DP      RMS-DP      [F,P]     Damp
               ***  Starting incremental Fock matrix formation  ***
  0   -311.5024066804   0.000000000000 0.01340300  0.00027934  2.1004575 0.7000
  1   -311.5131295980  -0.010722917545 0.00910569  0.00019137  1.4563287 0.7000
  2   -311.5205457054  -0.007416107487 0.00617705  0.00013097  1.0089311 0.7000
  3   -311.5256940091  -0.005148303671 0.00418760  0.00008969  0.6990145 0.7000
  4   -311.5292772927  -0.003583283541 0.00283695  0.00006145  0.4843175 0.7000
                      *** Initiating the SOSCF procedure ***
                      *** Re-Reading the Fockian *** 
                      *** Removing any level shift *** 
ITER      Energy       Delta-E        Grad      Rot      Max-DP    RMS-DP
  5   -311.53177578  -0.0024984885  0.002612  0.002612  0.006402  0.000140
               *** Restarting incremental Fock matrix formation ***
  6   -311.53757506  -0.0057992769  0.006018  0.000028  0.000502  0.000012
  7   -311.53757564  -0.0000005847  0.000166  0.000001  0.000013  0.000000
                 **** Energy Check signals convergence ****
              ***Rediagonalizing the Fockian in SOSCF/NRSCF***

               *****************************************************
               *                     SUCCESS                       *
               *           SCF CONVERGED AFTER   8 CYCLES          *
               *****************************************************

Setting up the final grid:

General Integration Accuracy     IntAcc      ...  5.340
Radial Grid Type                 RadialGrid  ... Gauss-Chebyshev
Angular Grid (max. acc.)         AngularGrid ... Lebedev-590
Angular grid pruning method      GridPruning ... 3 (G Style)
Weight generation scheme         WeightScheme... Becke
Basis function cutoff            BFCut       ...    1.0000e-12
Integration weight cutoff        WCut        ...    1.0000e-14
Grids for H and He will be reduced by one unit

# of grid points (after initial pruning)     ...  18110 (   0.0 sec)
# of grid points (after weights+screening)   ...  18110 (   0.0 sec)
Grid point division into batches done        ...    0.2 sec
Reduced shell lists constructed in    0.2 sec

Total number of grid points                  ...    18110
Total number of batches                      ...      283
Average number of points per batch           ...       63
Average number of grid points per atom       ...    18110
Average number of shells per batch           ...     0.00 ( 0.00%)
Average number of basis functions per batch  ...     0.00 ( 0.00%)
Average number of large shells per batch     ...     0.00 ( -nan%)
Average number of large basis fcns per batch ...     0.00 ( -nan%)
Maximum spatial batch extension              ...  19.03, 19.03, 19.03 au
Average spatial batch extension              ...   0.84,  0.84,  0.80 au

Final grid set up in    0.2 sec
Final integration                            ... done (   0.0 sec)
Change in XC energy                          ...     0.000000293
Integrated number of electrons               ...     1.999999988
Previous integrated no of electrons          ...     2.000000025

----------------
TOTAL SCF ENERGY
----------------

Total Energy       :         -311.53757535 Eh           -8477.36841 eV

Components:
Nuclear Repulsion  :            0.00000000 Eh               0.00000 eV
Electronic Energy  :         -311.53757535 Eh           -8477.36841 eV
One Electron Energy:         -323.85499544 Eh           -8812.54245 eV
Two Electron Energy:           12.31742009 Eh             335.17404 eV

Virial components:
Potential Energy   :         -622.91294731 Eh          -16950.32303 eV
Kinetic Energy     :          311.37537196 Eh            8472.95463 eV
Virial Ratio       :            2.00052093


DFT components:
N(Alpha)           :        0.999999993821 electrons
N(Beta)            :        0.999999993821 electrons
N(Total)           :        1.999999987642 electrons
E(X)               :       -9.434679852983 Eh       
E(C)               :       -0.236905500076 Eh       
E(XC)              :       -9.671585353059 Eh       
DFET-embed. en.    :        0.000000000000 Eh       

---------------
SCF CONVERGENCE
---------------

  Last Energy change         ...   -4.5782e-10  Tolerance :   1.0000e-09
  Last MAX-Density change    ...    1.9851e-10  Tolerance :   1.0000e-08
  Last RMS-Density change    ...    5.6684e-12  Tolerance :   1.0000e-09
  Last Orbital Gradient      ...    1.7260e-09  Tolerance :   2.0000e-06
  Last Orbital Rotation      ...    1.0888e-11  Tolerance :   2.0000e-06

================================================================================
                                        WARNING
Number of found core electrons (2) does not match given number of chemical core electrons (10)
================================================================================
             **** THE GBW FILE WAS UPDATED (Ar_cc-pcvtz_4385.151648_.gbw) ****
             **** DENSITY FILE WAS UPDATED (Ar_cc-pcvtz_4385.151648_.scfp) ****
             **** ENERGY FILE WAS UPDATED (Ar_cc-pcvtz_4385.151648_.en.tmp) ****
             **** THE GBW FILE WAS UPDATED (Ar_cc-pcvtz_4385.151648_.gbw) ****
             **** DENSITY FILE WAS UPDATED (Ar_cc-pcvtz_4385.151648_.scfp) ****
----------------
ORBITAL ENERGIES
----------------

  NO   OCC          E(Eh)            E(eV) 
   0   2.0000    -146.356282     -3982.5569 
   1   0.0000     -34.108230      -928.1321 
   2   0.0000     -33.260500      -905.0642 
   3   0.0000     -33.260500      -905.0642 
   4   0.0000     -33.260500      -905.0642 
   5   0.0000     -14.715119      -400.4187 
   6   0.0000     -14.414758      -392.2455 
   7   0.0000     -14.414758      -392.2455 
   8   0.0000     -14.414758      -392.2455 
   9   0.0000     -13.742783      -373.9601 
  10   0.0000     -13.742783      -373.9601 
  11   0.0000     -13.742783      -373.9601 
  12   0.0000     -13.742783      -373.9601 
  13   0.0000     -13.742783      -373.9601 
  14   0.0000      -8.104319      -220.5297 
  15   0.0000      -7.884171      -214.5392 
  16   0.0000      -7.884171      -214.5392 
  17   0.0000      -7.884171      -214.5392 
  18   0.0000      -7.765797      -211.3181 
  19   0.0000      -7.765797      -211.3181 
  20   0.0000      -7.765797      -211.3181 
  21   0.0000      -7.765797      -211.3181 
  22   0.0000      -7.765797      -211.3181 
  23   0.0000      -7.022866      -191.1019 
  24   0.0000      -7.022866      -191.1019 
  25   0.0000      -7.022866      -191.1019 
  26   0.0000      -7.022866      -191.1019 
  27   0.0000      -7.022866      -191.1019 
  28   0.0000      -7.022866      -191.1019 
  29   0.0000      -7.022866      -191.1019 
  30   0.0000      -5.066003      -137.8530 
  31   0.0000      -5.066003      -137.8530 
  32   0.0000      -5.066003      -137.8530 
  33   0.0000      -5.066003      -137.8530 
  34   0.0000      -5.066003      -137.8529 
  35   0.0000      -5.024475      -136.7229 
  36   0.0000      -4.732924      -128.7894 
  37   0.0000      -4.732924      -128.7894 
  38   0.0000      -4.732924      -128.7894 
  39   0.0000      -2.958076       -80.4933 
  40   0.0000      -2.958076       -80.4933 
  41   0.0000      -2.958076       -80.4933 
  42   0.0000       1.211619        32.9698 
  43   0.0000      18.163116       494.2435 
  44   0.0000      18.163116       494.2435 
  45   0.0000      18.163116       494.2435 
  46   0.0000      18.163116       494.2435 
  47   0.0000      18.163116       494.2435 
  48   0.0000      18.163116       494.2435 
  49   0.0000      18.163116       494.2435 
  50   0.0000      26.731101       727.3902 
  51   0.0000      26.731101       727.3902 
  52   0.0000      26.731101       727.3902 
  53   0.0000      26.731101       727.3902 
  54   0.0000      26.731101       727.3902 
  55   0.0000      35.742252       972.5961 
  56   0.0000      35.742252       972.5961 
  57   0.0000      35.742252       972.5961 
  58   0.0000      92.305339      2511.7560 

                    ********************************
                    * MULLIKEN POPULATION ANALYSIS *
                    ********************************

-----------------------
MULLIKEN ATOMIC CHARGES
-----------------------
   0 Ar:   16.000000
Sum of atomic charges:   16.0000000

--------------------------------
MULLIKEN REDUCED ORBITAL CHARGES
--------------------------------
  0 Ars       :     2.000000  s :     2.000000
      pz      :     0.000000  p :     0.000000
      px      :     0.000000
      py      :     0.000000
      dz2     :     0.000000  d :     0.000000
      dxz     :     0.000000
      dyz     :     0.000000
      dx2y2   :     0.000000
      dxy     :     0.000000
      f0      :     0.000000  f :     0.000000
      f+1     :     0.000000
      f-1     :     0.000000
      f+2     :     0.000000
      f-2     :     0.000000
      f+3     :     0.000000
      f-3     :     0.000000


                     *******************************
                     * LOEWDIN POPULATION ANALYSIS *
                     *******************************

----------------------
LOEWDIN ATOMIC CHARGES
----------------------
   0 Ar:   16.000000

-------------------------------
LOEWDIN REDUCED ORBITAL CHARGES
-------------------------------
  0 Ars       :     2.000000  s :     2.000000
      pz      :     0.000000  p :     0.000000
      px      :     0.000000
      py      :     0.000000
      dz2     :     0.000000  d :     0.000000
      dxz     :     0.000000
      dyz     :     0.000000
      dx2y2   :     0.000000
      dxy     :     0.000000
      f0      :     0.000000  f :     0.000000
      f+1     :     0.000000
      f-1     :     0.000000
      f+2     :     0.000000
      f-2     :     0.000000
      f+3     :     0.000000
      f-3     :     0.000000


                      *****************************
                      * MAYER POPULATION ANALYSIS *
                      *****************************

  NA   - Mulliken gross atomic population
  ZA   - Total nuclear charge
  QA   - Mulliken gross atomic charge
  VA   - Mayer's total valence
  BVA  - Mayer's bonded valence
  FA   - Mayer's free valence

  ATOM       NA         ZA         QA         VA         BVA        FA
  0 Ar     2.0000    18.0000    16.0000     0.0000     0.0000     0.0000

  Mayer bond orders larger than 0.100000


--------------------------
ATOM BASIS FOR ELEMENT Ar
--------------------------
 NewGTO Ar
 S 43
    1     545000.000000000000         0.000045659447
    2      81640.000000000000         0.000354703425
    3      18580.000000000000         0.001861094139
    4       5261.000000000000         0.007781572591
    5       1717.000000000000         0.027469311551
    6        619.900000000000         0.082522126343
    7        241.600000000000         0.201568364141
    8         99.790000000000         0.357380919975
    9         43.150000000000         0.350150783055
   10         19.140000000000         0.118464861867
   11          7.488000000000         0.005611319481
   12          3.205000000000         0.000484285950
   13          0.520400000000         0.000029251603
   14     545000.000000000000         0.000000170417
   15      81640.000000000000         0.000001321070
   16      18580.000000000000         0.000006966347
   17       5261.000000000000         0.000029123316
   18       1717.000000000000         0.000104820181
   19        619.900000000000         0.000323339106
   20        241.600000000000         0.000865293821
   21         99.790000000000         0.001814544286
   22         43.150000000000         0.002652321732
   23         19.140000000000         0.000543058369
   24          7.488000000000        -0.006375674736
   25          3.205000000000        -0.007619344357
   26          0.520400000000         0.000095705234
   27     545000.000000000000         0.000000001459
   28      81640.000000000000         0.000000011298
   29      18580.000000000000         0.000000059661
   30       5261.000000000000         0.000000249118
   31       1717.000000000000         0.000000899676
   32        619.900000000000         0.000002777199
   33        241.600000000000         0.000007517311
   34         99.790000000000         0.000015990412
   35         43.150000000000         0.000024499818
   36         19.140000000000         0.000005091043
   37          7.488000000000        -0.000074731894
   38          3.205000000000        -0.000153089647
   39          0.520400000000         0.000264232490
   40          1.196000000000        -0.000644538711
   41          0.195400000000        -0.000104815921
   42         17.362000000000        -0.006413200093
   43          3.378000000000         0.009168182427
 S 43
    1     545000.000000000000        -0.000004506991
    2      81640.000000000000        -0.000035012367
    3      18580.000000000000        -0.000183706462
    4       5261.000000000000        -0.000768110081
    5       1717.000000000000        -0.002711464151
    6        619.900000000000        -0.008145664185
    7        241.600000000000        -0.019896581405
    8         99.790000000000        -0.035276659595
    9         43.150000000000        -0.034562981095
   10         19.140000000000        -0.011693530271
   11          7.488000000000        -0.000553886892
   12          3.205000000000        -0.000047803309
   13          0.520400000000        -0.000002887392
   14     545000.000000000000         0.000019815293
   15      81640.000000000000         0.000153608249
   16      18580.000000000000         0.000810016303
   17       5261.000000000000         0.003386331688
   18       1717.000000000000         0.012188031735
   19        619.900000000000         0.037596455577
   20        241.600000000000         0.100612577087
   21         99.790000000000         0.210987265217
   22         43.150000000000         0.308400358744
   23         19.140000000000         0.063144449587
   24          7.488000000000        -0.741335544690
   25          3.205000000000        -0.885944003337
   26          0.520400000000         0.011128185598
   27     545000.000000000000        -0.000000288195
   28      81640.000000000000        -0.000002232258
   29      18580.000000000000        -0.000011787542
   30       5261.000000000000        -0.000049219388
   31       1717.000000000000        -0.000177753164
   32        619.900000000000        -0.000548704284
   33        241.600000000000        -0.001485230548
   34         99.790000000000        -0.003159301151
   35         43.150000000000        -0.004840544786
   36         19.140000000000        -0.001005861313
   37          7.488000000000         0.014765133208
   38          3.205000000000         0.030246644614
   39          0.520400000000        -0.052205660926
   40          1.196000000000         0.082501664647
   41          0.195400000000         0.010254271187
   42         17.362000000000        -0.114895007254
   43          3.378000000000         0.444516472642
 S 43
    1     545000.000000000000        -0.000012958147
    2      81640.000000000000        -0.000100664804
    3      18580.000000000000        -0.000528178369
    4       5261.000000000000        -0.002208409683
    5       1717.000000000000        -0.007795788434
    6        619.900000000000        -0.023419772894
    7        241.600000000000        -0.057205085714
    8         99.790000000000        -0.101424676668
    9         43.150000000000        -0.099372764385
   10         19.140000000000        -0.033620318377
   11          7.488000000000        -0.001592492022
   12          3.205000000000        -0.000137440314
   13          0.520400000000        -0.000008301603
   14     545000.000000000000         0.000020864504
   15      81640.000000000000         0.000161741737
   16      18580.000000000000         0.000852906306
   17       5261.000000000000         0.003565636445
   18       1717.000000000000         0.012833382594
   19        619.900000000000         0.039587171178
   20        241.600000000000         0.105939968294
   21         99.790000000000         0.222158947070
   22         43.150000000000         0.324730020572
   23         19.140000000000         0.066487920107
   24          7.488000000000        -0.780588932057
   25          3.205000000000        -0.932854344273
   26          0.520400000000         0.011717418076
   27     545000.000000000000        -0.000001648408
   28      81640.000000000000        -0.000012767986
   29      18580.000000000000        -0.000067421948
   30       5261.000000000000        -0.000281523243
   31       1717.000000000000        -0.001016706006
   32        619.900000000000        -0.003138458573
   33        241.600000000000        -0.008495167035
   34         99.790000000000        -0.018070454463
   35         43.150000000000        -0.027686769940
   36         19.140000000000        -0.005753288521
   37          7.488000000000         0.084453065579
   38          3.205000000000         0.173003644816
   39          0.520400000000        -0.298604018246
   40          1.196000000000         1.606447713466
   41          0.195400000000         0.074585036364
   42         17.362000000000        -0.200511497410
   43          3.378000000000         0.458060180800
 S 43
    1     545000.000000000000        -0.000015150949
    2      81640.000000000000        -0.000117699486
    3      18580.000000000000        -0.000617557678
    4       5261.000000000000        -0.002582120806
    5       1717.000000000000        -0.009115006003
    6        619.900000000000        -0.027382909674
    7        241.600000000000        -0.066885434888
    8         99.790000000000        -0.118587945857
    9         43.150000000000        -0.116188805227
   10         19.140000000000        -0.039309610110
   11          7.488000000000        -0.001861976433
   12          3.205000000000        -0.000160698215
   13          0.520400000000        -0.000009706415
   14     545000.000000000000         0.000032051712
   15      81640.000000000000         0.000248465030
   16      18580.000000000000         0.001310220817
   17       5261.000000000000         0.005477472803
   18       1717.000000000000         0.019714433935
   19        619.900000000000         0.060813169493
   20        241.600000000000         0.162743258896
   21         99.790000000000         0.341276966769
   22         43.150000000000         0.498844984193
   23         19.140000000000         0.102137663148
   24          7.488000000000        -1.199128041158
   25          3.205000000000        -1.433035694710
   26          0.520400000000         0.018000107364
   27     545000.000000000000        -0.000014013722
   28      81640.000000000000        -0.000108545356
   29      18580.000000000000        -0.000573178828
   30       5261.000000000000        -0.002393332857
   31       1717.000000000000        -0.008643392500
   32        619.900000000000        -0.026681193118
   33        241.600000000000        -0.072220546153
   34         99.790000000000        -0.153623593878
   35         43.150000000000        -0.235375436176
   36         19.140000000000        -0.048910826292
   37          7.488000000000         0.717966638589
   38          3.205000000000         1.470767751057
   39          0.520400000000        -2.538542819947
   40          1.196000000000         2.441314348560
   41          0.195400000000         0.129677978533
   42         17.362000000000        -0.207775258244
   43          3.378000000000        -0.097003917543
 S 43
    1     545000.000000000000        -0.000014041466
    2      81640.000000000000        -0.000109080520
    3      18580.000000000000        -0.000572334807
    4       5261.000000000000        -0.002393035769
    5       1717.000000000000        -0.008447527069
    6        619.900000000000        -0.025377698119
    7        241.600000000000        -0.061987509559
    8         99.790000000000        -0.109903919137
    9         43.150000000000        -0.107680464165
   10         19.140000000000        -0.036431023235
   11          7.488000000000        -0.001725626546
   12          3.205000000000        -0.000148930513
   13          0.520400000000        -0.000008995628
   14     545000.000000000000         0.000035464945
   15      81640.000000000000         0.000274924431
   16      18580.000000000000         0.001449748126
   17       5261.000000000000         0.006060776802
   18       1717.000000000000         0.021813852513
   19        619.900000000000         0.067289251854
   20        241.600000000000         0.180074023876
   21         99.790000000000         0.377620044475
   22         43.150000000000         0.551967707931
   23         19.140000000000         0.113014450596
   24          7.488000000000        -1.326824920300
   25          3.205000000000        -1.585641738128
   26          0.520400000000         0.019916964827
   27     545000.000000000000        -0.000020239616
   28      81640.000000000000        -0.000156768940
   29      18580.000000000000        -0.000827825720
   30       5261.000000000000        -0.003456621912
   31       1717.000000000000        -0.012483403562
   32        619.900000000000        -0.038534880974
   33        241.600000000000        -0.104306060735
   34         99.790000000000        -0.221874144784
   35         43.150000000000        -0.339945982817
   36         19.140000000000        -0.070640501763
   37          7.488000000000         1.036938597119
   38          3.205000000000         2.124187624464
   39          0.520400000000        -3.666344491460
   40          1.196000000000         1.879518618596
   41          0.195400000000         2.427996250986
   42         17.362000000000        -0.176046475384
   43          3.378000000000        -0.421494312690
 S 43
    1     545000.000000000000        -0.000055660397
    2      81640.000000000000        -0.000432395376
    3      18580.000000000000        -0.002268736195
    4       5261.000000000000        -0.009485998060
    5       1717.000000000000        -0.033486012374
    6        619.900000000000        -0.100597240621
    7        241.600000000000        -0.245718598485
    8         99.790000000000        -0.435659331542
    9         43.150000000000        -0.426845552066
   10         19.140000000000        -0.144412641099
   11          7.488000000000        -0.006840386706
   12          3.205000000000        -0.000590360821
   13          0.520400000000        -0.000035658686
   14     545000.000000000000         0.000037809857
   15      81640.000000000000         0.000293102204
   16      18580.000000000000         0.001545604260
   17       5261.000000000000         0.006461510298
   18       1717.000000000000         0.023256166207
   19        619.900000000000         0.071738360938
   20        241.600000000000         0.191980367808
   21         99.790000000000         0.402587966156
   22         43.150000000000         0.588463351380
   23         19.140000000000         0.120486871598
   24          7.488000000000        -1.414553474915
   25          3.205000000000        -1.690483044388
   26          0.520400000000         0.021233857893
   27     545000.000000000000         0.000020448570
   28      81640.000000000000         0.000158387427
   29      18580.000000000000         0.000836372217
   30       5261.000000000000         0.003492308176
   31       1717.000000000000         0.012612282579
   32        619.900000000000         0.038932716190
   33        241.600000000000         0.105382919497
   34         99.790000000000         0.224164779816
   35         43.150000000000         0.343455594891
   36         19.140000000000         0.071369796329
   37          7.488000000000        -1.047643980928
   38          3.205000000000        -2.146117798407
   39          0.520400000000         3.704195937117
   40          1.196000000000        -5.332602537884
   41          0.195400000000        -1.134005943129
   42         17.362000000000        -0.877961061338
   43          3.378000000000         9.089664083684
 S 43
    1     545000.000000000000         0.000278562006
    2      81640.000000000000         0.002163996835
    3      18580.000000000000         0.011354279487
    4       5261.000000000000         0.047474304609
    5       1717.000000000000         0.167586493440
    6        619.900000000000         0.503456148115
    7        241.600000000000         1.229740879072
    8         99.790000000000         2.180331861930
    9         43.150000000000         2.136221790544
   10         19.140000000000         0.722737836328
   11          7.488000000000         0.034233888737
   12          3.205000000000         0.002954562004
   13          0.520400000000         0.000178460011
   14     545000.000000000000        -0.000157817387
   15      81640.000000000000        -0.001223401171
   16      18580.000000000000        -0.006451313005
   17       5261.000000000000        -0.026970180200
   18       1717.000000000000        -0.097070648258
   19        619.900000000000        -0.299434100155
   20        241.600000000000        -0.801321188976
   21         99.790000000000        -1.680391966072
   22         43.150000000000        -2.456231112489
   23         19.140000000000        -0.502909147991
   24          7.488000000000         5.904310348665
   25          3.205000000000         7.056033377476
   26          0.520400000000        -0.088629584615
   27     545000.000000000000        -0.000008043395
   28      81640.000000000000        -0.000062301307
   29      18580.000000000000        -0.000328984965
   30       5261.000000000000        -0.001373690876
   31       1717.000000000000        -0.004961010492
   32        619.900000000000        -0.015314088650
   33        241.600000000000        -0.041452113525
   34         99.790000000000        -0.088174667637
   35         43.150000000000        -0.135097417856
   36         19.140000000000        -0.028073134753
   37          7.488000000000         0.412088196440
   38          3.205000000000         0.844170184713
   39          0.520400000000        -1.457036408146
   40          1.196000000000         2.719297201309
   41          0.195400000000         0.409166996738
   42         17.362000000000        -3.242551975945
   43          3.378000000000       -13.108634170849
 P 18
    1        761.800000000000         0.003392496308
    2        180.200000000000         0.027228470615
    3         57.500000000000         0.126094393331
    4         21.240000000000         0.367023675777
    5          8.388000000000         0.628049020871
    6          3.416000000000         0.497572137775
    7          0.452300000000        -0.007499779517
    8        761.800000000000        -0.000042486311
    9        180.200000000000        -0.000339220726
   10         57.500000000000        -0.001626921238
   11         21.240000000000        -0.004821639179
   12          8.388000000000        -0.008986992847
   13          3.416000000000        -0.005939630947
   14          0.452300000000         0.035815394888
   15          1.206000000000        -0.067815440226
   16          0.154500000000        -0.008169916035
   17         11.019000000000        -0.023762208323
   18          4.307000000000        -0.390424653828
 P 18
    1        761.800000000000         0.002263503040
    2        180.200000000000         0.018167072390
    3         57.500000000000         0.084131275823
    4         21.240000000000         0.244881388337
    5          8.388000000000         0.419039768616
    6          3.416000000000         0.331984457509
    7          0.452300000000        -0.005003918116
    8        761.800000000000        -0.000230155716
    9        180.200000000000        -0.001837617521
   10         57.500000000000        -0.008813314590
   11         21.240000000000        -0.026119655912
   12          8.388000000000        -0.048684099353
   13          3.416000000000        -0.032176011270
   14          0.452300000000         0.194018207513
   15          1.206000000000        -0.889910563197
   16          0.154500000000        -0.053599870419
   17         11.019000000000         0.143392755555
   18          4.307000000000        -0.867836510976
 P 18
    1        761.800000000000         0.002913339775
    2        180.200000000000         0.023382718585
    3         57.500000000000         0.108284808060
    4         21.240000000000         0.315185213515
    5          8.388000000000         0.539343311633
    6          3.416000000000         0.427294997119
    7          0.452300000000        -0.006440509875
    8        761.800000000000        -0.001504746297
    9        180.200000000000        -0.012014249362
   10         57.500000000000        -0.057621000013
   11         21.240000000000        -0.170768974407
   12          8.388000000000        -0.318294151522
   13          3.416000000000        -0.210365115973
   14          0.452300000000         1.268481117269
   15          1.206000000000        -0.295353366757
   16          0.154500000000        -0.161098014895
   17         11.019000000000         0.203851374740
   18          4.307000000000        -1.002415682971
 P 18
    1        761.800000000000         0.001596506599
    2        180.200000000000         0.012813700909
    3         57.500000000000         0.059339941095
    4         21.240000000000         0.172721107781
    5          8.388000000000         0.295559468734
    6          3.416000000000         0.234157130750
    7          0.452300000000        -0.003529391458
    8        761.800000000000        -0.000452159865
    9        180.200000000000        -0.003610151012
   10         57.500000000000        -0.017314482601
   11         21.240000000000        -0.051314215919
   12          8.388000000000        -0.095643924041
   13          3.416000000000        -0.063212424975
   14          0.452300000000         0.381164752943
   15          1.206000000000         0.609339018019
   16          0.154500000000        -1.151907215963
   17         11.019000000000         0.200859107806
   18          4.307000000000        -1.093030503008
 P 18
    1        761.800000000000        -0.000783720880
    2        180.200000000000        -0.006290211993
    3         57.500000000000        -0.029129820636
    4         21.240000000000        -0.084788336436
    5          8.388000000000        -0.145089363968
    6          3.416000000000        -0.114947118137
    7          0.452300000000         0.001732568962
    8        761.800000000000         0.002582274539
    9        180.200000000000         0.020617489008
   10         57.500000000000         0.098882610026
   11         21.240000000000         0.293054301329
   12          8.388000000000         0.546220240036
   13          3.416000000000         0.361004698305
   14          0.452300000000        -2.176823096005
   15          1.206000000000         2.194949714529
   16          0.154500000000         1.146338844265
   17         11.019000000000         0.290325822862
   18          4.307000000000        -2.015862319018
 P 18
    1        761.800000000000        -0.015083183601
    2        180.200000000000        -0.121058944271
    3         57.500000000000        -0.560621062814
    4         21.240000000000        -1.631802951398
    5          8.388000000000        -2.792332793545
    6          3.416000000000        -2.212226993897
    7          0.452300000000         0.033344340319
    8        761.800000000000         0.000680994317
    9        180.200000000000         0.005437219252
   10         57.500000000000         0.026077202258
   11         21.240000000000         0.077283925722
   12          8.388000000000         0.144048540722
   13          3.416000000000         0.095203722186
   14          0.452300000000        -0.574069152708
   15          1.206000000000         1.051705230153
   16          0.154500000000         0.169309075236
   17         11.019000000000         4.711246259528
   18          4.307000000000         1.164730271982
 D 4
    1          0.410000000000        -0.116990167369
    2          1.254000000000         0.578519591800
    3         20.706000000000         0.067931104926
    4          6.681000000000         0.655166651569
 D 4
    1          0.410000000000        -0.456600279197
    2          1.254000000000        -0.585753216362
    3         20.706000000000         0.076879856068
    4          6.681000000000         0.586126749632
 D 4
    1          0.410000000000         1.166710680016
    2          1.254000000000        -1.032378978112
    3         20.706000000000         0.070087714944
    4          6.681000000000         0.456971237440
 D 4
    1          0.410000000000        -0.134506884698
    2          1.254000000000         0.308689747868
    3         20.706000000000         1.250881556546
    4          6.681000000000        -0.913541811641
 F 2
    1          0.890000000000         0.998792545857
    2         13.674000000000         0.024737845885
 F 2
    1          0.890000000000        -0.061190125119
    2         13.674000000000         1.000359345462
 end
  // -----------------------------------------------
  // The basis set
  // -----------------------------------------------
  BAS[ATNO] = new BFNGauss[NSH];
  // Basis function   1 L = s
  InitBFNGauss(BAS[ATNO][  0]);
  BAS[ATNO][  0].l  = 0;
  BAS[ATNO][  0].ng = 43;
  BAS[ATNO][  0].a[  0] =    545000.000000000000;     BAS[ATNO][  0].d[  0] =         0.000045659447;
  BAS[ATNO][  0].a[  1] =     81640.000000000000;     BAS[ATNO][  0].d[  1] =         0.000354703425;
  BAS[ATNO][  0].a[  2] =     18580.000000000000;     BAS[ATNO][  0].d[  2] =         0.001861094139;
  BAS[ATNO][  0].a[  3] =      5261.000000000000;     BAS[ATNO][  0].d[  3] =         0.007781572591;
  BAS[ATNO][  0].a[  4] =      1717.000000000000;     BAS[ATNO][  0].d[  4] =         0.027469311551;
  BAS[ATNO][  0].a[  5] =       619.900000000000;     BAS[ATNO][  0].d[  5] =         0.082522126343;
  BAS[ATNO][  0].a[  6] =       241.600000000000;     BAS[ATNO][  0].d[  6] =         0.201568364141;
  BAS[ATNO][  0].a[  7] =        99.790000000000;     BAS[ATNO][  0].d[  7] =         0.357380919975;
  BAS[ATNO][  0].a[  8] =        43.150000000000;     BAS[ATNO][  0].d[  8] =         0.350150783055;
  BAS[ATNO][  0].a[  9] =        19.140000000000;     BAS[ATNO][  0].d[  9] =         0.118464861867;
  BAS[ATNO][  0].a[ 10] =         7.488000000000;     BAS[ATNO][  0].d[ 10] =         0.005611319481;
  BAS[ATNO][  0].a[ 11] =         3.205000000000;     BAS[ATNO][  0].d[ 11] =         0.000484285950;
  BAS[ATNO][  0].a[ 12] =         0.520400000000;     BAS[ATNO][  0].d[ 12] =         0.000029251603;
  BAS[ATNO][  0].a[ 13] =    545000.000000000000;     BAS[ATNO][  0].d[ 13] =         0.000000170417;
  BAS[ATNO][  0].a[ 14] =     81640.000000000000;     BAS[ATNO][  0].d[ 14] =         0.000001321070;
  BAS[ATNO][  0].a[ 15] =     18580.000000000000;     BAS[ATNO][  0].d[ 15] =         0.000006966347;
  BAS[ATNO][  0].a[ 16] =      5261.000000000000;     BAS[ATNO][  0].d[ 16] =         0.000029123316;
  BAS[ATNO][  0].a[ 17] =      1717.000000000000;     BAS[ATNO][  0].d[ 17] =         0.000104820181;
  BAS[ATNO][  0].a[ 18] =       619.900000000000;     BAS[ATNO][  0].d[ 18] =         0.000323339106;
  BAS[ATNO][  0].a[ 19] =       241.600000000000;     BAS[ATNO][  0].d[ 19] =         0.000865293821;
  BAS[ATNO][  0].a[ 20] =        99.790000000000;     BAS[ATNO][  0].d[ 20] =         0.001814544286;
  BAS[ATNO][  0].a[ 21] =        43.150000000000;     BAS[ATNO][  0].d[ 21] =         0.002652321732;
  BAS[ATNO][  0].a[ 22] =        19.140000000000;     BAS[ATNO][  0].d[ 22] =         0.000543058369;
  BAS[ATNO][  0].a[ 23] =         7.488000000000;     BAS[ATNO][  0].d[ 23] =        -0.006375674736;
  BAS[ATNO][  0].a[ 24] =         3.205000000000;     BAS[ATNO][  0].d[ 24] =        -0.007619344357;
  BAS[ATNO][  0].a[ 25] =         0.520400000000;     BAS[ATNO][  0].d[ 25] =         0.000095705234;
  BAS[ATNO][  0].a[ 26] =    545000.000000000000;     BAS[ATNO][  0].d[ 26] =         0.000000001459;
  BAS[ATNO][  0].a[ 27] =     81640.000000000000;     BAS[ATNO][  0].d[ 27] =         0.000000011298;
  BAS[ATNO][  0].a[ 28] =     18580.000000000000;     BAS[ATNO][  0].d[ 28] =         0.000000059661;
  BAS[ATNO][  0].a[ 29] =      5261.000000000000;     BAS[ATNO][  0].d[ 29] =         0.000000249118;
  BAS[ATNO][  0].a[ 30] =      1717.000000000000;     BAS[ATNO][  0].d[ 30] =         0.000000899676;
  BAS[ATNO][  0].a[ 31] =       619.900000000000;     BAS[ATNO][  0].d[ 31] =         0.000002777199;
  BAS[ATNO][  0].a[ 32] =       241.600000000000;     BAS[ATNO][  0].d[ 32] =         0.000007517311;
  BAS[ATNO][  0].a[ 33] =        99.790000000000;     BAS[ATNO][  0].d[ 33] =         0.000015990412;
  BAS[ATNO][  0].a[ 34] =        43.150000000000;     BAS[ATNO][  0].d[ 34] =         0.000024499818;
  BAS[ATNO][  0].a[ 35] =        19.140000000000;     BAS[ATNO][  0].d[ 35] =         0.000005091043;
  BAS[ATNO][  0].a[ 36] =         7.488000000000;     BAS[ATNO][  0].d[ 36] =        -0.000074731894;
  BAS[ATNO][  0].a[ 37] =         3.205000000000;     BAS[ATNO][  0].d[ 37] =        -0.000153089647;
  BAS[ATNO][  0].a[ 38] =         0.520400000000;     BAS[ATNO][  0].d[ 38] =         0.000264232490;
  BAS[ATNO][  0].a[ 39] =         1.196000000000;     BAS[ATNO][  0].d[ 39] =        -0.000644538711;
  BAS[ATNO][  0].a[ 40] =         0.195400000000;     BAS[ATNO][  0].d[ 40] =        -0.000104815921;
  BAS[ATNO][  0].a[ 41] =        17.362000000000;     BAS[ATNO][  0].d[ 41] =        -0.006413200093;
  BAS[ATNO][  0].a[ 42] =         3.378000000000;     BAS[ATNO][  0].d[ 42] =         0.009168182427;

  // Basis function   2 L = s
  InitBFNGauss(BAS[ATNO][  1]);
  BAS[ATNO][  1].l  = 0;
  BAS[ATNO][  1].ng = 43;
  BAS[ATNO][  1].a[  0] =    545000.000000000000;     BAS[ATNO][  1].d[  0] =         0.000004506991;
  BAS[ATNO][  1].a[  1] =     81640.000000000000;     BAS[ATNO][  1].d[  1] =         0.000035012367;
  BAS[ATNO][  1].a[  2] =     18580.000000000000;     BAS[ATNO][  1].d[  2] =         0.000183706462;
  BAS[ATNO][  1].a[  3] =      5261.000000000000;     BAS[ATNO][  1].d[  3] =         0.000768110081;
  BAS[ATNO][  1].a[  4] =      1717.000000000000;     BAS[ATNO][  1].d[  4] =         0.002711464151;
  BAS[ATNO][  1].a[  5] =       619.900000000000;     BAS[ATNO][  1].d[  5] =         0.008145664185;
  BAS[ATNO][  1].a[  6] =       241.600000000000;     BAS[ATNO][  1].d[  6] =         0.019896581405;
  BAS[ATNO][  1].a[  7] =        99.790000000000;     BAS[ATNO][  1].d[  7] =         0.035276659595;
  BAS[ATNO][  1].a[  8] =        43.150000000000;     BAS[ATNO][  1].d[  8] =         0.034562981095;
  BAS[ATNO][  1].a[  9] =        19.140000000000;     BAS[ATNO][  1].d[  9] =         0.011693530271;
  BAS[ATNO][  1].a[ 10] =         7.488000000000;     BAS[ATNO][  1].d[ 10] =         0.000553886892;
  BAS[ATNO][  1].a[ 11] =         3.205000000000;     BAS[ATNO][  1].d[ 11] =         0.000047803309;
  BAS[ATNO][  1].a[ 12] =         0.520400000000;     BAS[ATNO][  1].d[ 12] =         0.000002887392;
  BAS[ATNO][  1].a[ 13] =    545000.000000000000;     BAS[ATNO][  1].d[ 13] =        -0.000019815293;
  BAS[ATNO][  1].a[ 14] =     81640.000000000000;     BAS[ATNO][  1].d[ 14] =        -0.000153608249;
  BAS[ATNO][  1].a[ 15] =     18580.000000000000;     BAS[ATNO][  1].d[ 15] =        -0.000810016303;
  BAS[ATNO][  1].a[ 16] =      5261.000000000000;     BAS[ATNO][  1].d[ 16] =        -0.003386331688;
  BAS[ATNO][  1].a[ 17] =      1717.000000000000;     BAS[ATNO][  1].d[ 17] =        -0.012188031735;
  BAS[ATNO][  1].a[ 18] =       619.900000000000;     BAS[ATNO][  1].d[ 18] =        -0.037596455577;
  BAS[ATNO][  1].a[ 19] =       241.600000000000;     BAS[ATNO][  1].d[ 19] =        -0.100612577087;
  BAS[ATNO][  1].a[ 20] =        99.790000000000;     BAS[ATNO][  1].d[ 20] =        -0.210987265217;
  BAS[ATNO][  1].a[ 21] =        43.150000000000;     BAS[ATNO][  1].d[ 21] =        -0.308400358744;
  BAS[ATNO][  1].a[ 22] =        19.140000000000;     BAS[ATNO][  1].d[ 22] =        -0.063144449587;
  BAS[ATNO][  1].a[ 23] =         7.488000000000;     BAS[ATNO][  1].d[ 23] =         0.741335544690;
  BAS[ATNO][  1].a[ 24] =         3.205000000000;     BAS[ATNO][  1].d[ 24] =         0.885944003337;
  BAS[ATNO][  1].a[ 25] =         0.520400000000;     BAS[ATNO][  1].d[ 25] =        -0.011128185598;
  BAS[ATNO][  1].a[ 26] =    545000.000000000000;     BAS[ATNO][  1].d[ 26] =         0.000000288195;
  BAS[ATNO][  1].a[ 27] =     81640.000000000000;     BAS[ATNO][  1].d[ 27] =         0.000002232258;
  BAS[ATNO][  1].a[ 28] =     18580.000000000000;     BAS[ATNO][  1].d[ 28] =         0.000011787542;
  BAS[ATNO][  1].a[ 29] =      5261.000000000000;     BAS[ATNO][  1].d[ 29] =         0.000049219388;
  BAS[ATNO][  1].a[ 30] =      1717.000000000000;     BAS[ATNO][  1].d[ 30] =         0.000177753164;
  BAS[ATNO][  1].a[ 31] =       619.900000000000;     BAS[ATNO][  1].d[ 31] =         0.000548704284;
  BAS[ATNO][  1].a[ 32] =       241.600000000000;     BAS[ATNO][  1].d[ 32] =         0.001485230548;
  BAS[ATNO][  1].a[ 33] =        99.790000000000;     BAS[ATNO][  1].d[ 33] =         0.003159301151;
  BAS[ATNO][  1].a[ 34] =        43.150000000000;     BAS[ATNO][  1].d[ 34] =         0.004840544786;
  BAS[ATNO][  1].a[ 35] =        19.140000000000;     BAS[ATNO][  1].d[ 35] =         0.001005861313;
  BAS[ATNO][  1].a[ 36] =         7.488000000000;     BAS[ATNO][  1].d[ 36] =        -0.014765133208;
  BAS[ATNO][  1].a[ 37] =         3.205000000000;     BAS[ATNO][  1].d[ 37] =        -0.030246644614;
  BAS[ATNO][  1].a[ 38] =         0.520400000000;     BAS[ATNO][  1].d[ 38] =         0.052205660926;
  BAS[ATNO][  1].a[ 39] =         1.196000000000;     BAS[ATNO][  1].d[ 39] =        -0.082501664647;
  BAS[ATNO][  1].a[ 40] =         0.195400000000;     BAS[ATNO][  1].d[ 40] =        -0.010254271187;
  BAS[ATNO][  1].a[ 41] =        17.362000000000;     BAS[ATNO][  1].d[ 41] =         0.114895007254;
  BAS[ATNO][  1].a[ 42] =         3.378000000000;     BAS[ATNO][  1].d[ 42] =        -0.444516472642;

  // Basis function   3 L = s
  InitBFNGauss(BAS[ATNO][  2]);
  BAS[ATNO][  2].l  = 0;
  BAS[ATNO][  2].ng = 43;
  BAS[ATNO][  2].a[  0] =    545000.000000000000;     BAS[ATNO][  2].d[  0] =        -0.000012958147;
  BAS[ATNO][  2].a[  1] =     81640.000000000000;     BAS[ATNO][  2].d[  1] =        -0.000100664804;
  BAS[ATNO][  2].a[  2] =     18580.000000000000;     BAS[ATNO][  2].d[  2] =        -0.000528178369;
  BAS[ATNO][  2].a[  3] =      5261.000000000000;     BAS[ATNO][  2].d[  3] =        -0.002208409683;
  BAS[ATNO][  2].a[  4] =      1717.000000000000;     BAS[ATNO][  2].d[  4] =        -0.007795788434;
  BAS[ATNO][  2].a[  5] =       619.900000000000;     BAS[ATNO][  2].d[  5] =        -0.023419772894;
  BAS[ATNO][  2].a[  6] =       241.600000000000;     BAS[ATNO][  2].d[  6] =        -0.057205085714;
  BAS[ATNO][  2].a[  7] =        99.790000000000;     BAS[ATNO][  2].d[  7] =        -0.101424676668;
  BAS[ATNO][  2].a[  8] =        43.150000000000;     BAS[ATNO][  2].d[  8] =        -0.099372764385;
  BAS[ATNO][  2].a[  9] =        19.140000000000;     BAS[ATNO][  2].d[  9] =        -0.033620318377;
  BAS[ATNO][  2].a[ 10] =         7.488000000000;     BAS[ATNO][  2].d[ 10] =        -0.001592492022;
  BAS[ATNO][  2].a[ 11] =         3.205000000000;     BAS[ATNO][  2].d[ 11] =        -0.000137440314;
  BAS[ATNO][  2].a[ 12] =         0.520400000000;     BAS[ATNO][  2].d[ 12] =        -0.000008301603;
  BAS[ATNO][  2].a[ 13] =    545000.000000000000;     BAS[ATNO][  2].d[ 13] =         0.000020864504;
  BAS[ATNO][  2].a[ 14] =     81640.000000000000;     BAS[ATNO][  2].d[ 14] =         0.000161741737;
  BAS[ATNO][  2].a[ 15] =     18580.000000000000;     BAS[ATNO][  2].d[ 15] =         0.000852906306;
  BAS[ATNO][  2].a[ 16] =      5261.000000000000;     BAS[ATNO][  2].d[ 16] =         0.003565636445;
  BAS[ATNO][  2].a[ 17] =      1717.000000000000;     BAS[ATNO][  2].d[ 17] =         0.012833382594;
  BAS[ATNO][  2].a[ 18] =       619.900000000000;     BAS[ATNO][  2].d[ 18] =         0.039587171178;
  BAS[ATNO][  2].a[ 19] =       241.600000000000;     BAS[ATNO][  2].d[ 19] =         0.105939968294;
  BAS[ATNO][  2].a[ 20] =        99.790000000000;     BAS[ATNO][  2].d[ 20] =         0.222158947070;
  BAS[ATNO][  2].a[ 21] =        43.150000000000;     BAS[ATNO][  2].d[ 21] =         0.324730020572;
  BAS[ATNO][  2].a[ 22] =        19.140000000000;     BAS[ATNO][  2].d[ 22] =         0.066487920107;
  BAS[ATNO][  2].a[ 23] =         7.488000000000;     BAS[ATNO][  2].d[ 23] =        -0.780588932057;
  BAS[ATNO][  2].a[ 24] =         3.205000000000;     BAS[ATNO][  2].d[ 24] =        -0.932854344273;
  BAS[ATNO][  2].a[ 25] =         0.520400000000;     BAS[ATNO][  2].d[ 25] =         0.011717418076;
  BAS[ATNO][  2].a[ 26] =    545000.000000000000;     BAS[ATNO][  2].d[ 26] =        -0.000001648408;
  BAS[ATNO][  2].a[ 27] =     81640.000000000000;     BAS[ATNO][  2].d[ 27] =        -0.000012767986;
  BAS[ATNO][  2].a[ 28] =     18580.000000000000;     BAS[ATNO][  2].d[ 28] =        -0.000067421948;
  BAS[ATNO][  2].a[ 29] =      5261.000000000000;     BAS[ATNO][  2].d[ 29] =        -0.000281523243;
  BAS[ATNO][  2].a[ 30] =      1717.000000000000;     BAS[ATNO][  2].d[ 30] =        -0.001016706006;
  BAS[ATNO][  2].a[ 31] =       619.900000000000;     BAS[ATNO][  2].d[ 31] =        -0.003138458573;
  BAS[ATNO][  2].a[ 32] =       241.600000000000;     BAS[ATNO][  2].d[ 32] =        -0.008495167035;
  BAS[ATNO][  2].a[ 33] =        99.790000000000;     BAS[ATNO][  2].d[ 33] =        -0.018070454463;
  BAS[ATNO][  2].a[ 34] =        43.150000000000;     BAS[ATNO][  2].d[ 34] =        -0.027686769940;
  BAS[ATNO][  2].a[ 35] =        19.140000000000;     BAS[ATNO][  2].d[ 35] =        -0.005753288521;
  BAS[ATNO][  2].a[ 36] =         7.488000000000;     BAS[ATNO][  2].d[ 36] =         0.084453065579;
  BAS[ATNO][  2].a[ 37] =         3.205000000000;     BAS[ATNO][  2].d[ 37] =         0.173003644816;
  BAS[ATNO][  2].a[ 38] =         0.520400000000;     BAS[ATNO][  2].d[ 38] =        -0.298604018246;
  BAS[ATNO][  2].a[ 39] =         1.196000000000;     BAS[ATNO][  2].d[ 39] =         1.606447713466;
  BAS[ATNO][  2].a[ 40] =         0.195400000000;     BAS[ATNO][  2].d[ 40] =         0.074585036364;
  BAS[ATNO][  2].a[ 41] =        17.362000000000;     BAS[ATNO][  2].d[ 41] =        -0.200511497410;
  BAS[ATNO][  2].a[ 42] =         3.378000000000;     BAS[ATNO][  2].d[ 42] =         0.458060180800;

  // Basis function   4 L = s
  InitBFNGauss(BAS[ATNO][  3]);
  BAS[ATNO][  3].l  = 0;
  BAS[ATNO][  3].ng = 43;
  BAS[ATNO][  3].a[  0] =    545000.000000000000;     BAS[ATNO][  3].d[  0] =         0.000015150949;
  BAS[ATNO][  3].a[  1] =     81640.000000000000;     BAS[ATNO][  3].d[  1] =         0.000117699486;
  BAS[ATNO][  3].a[  2] =     18580.000000000000;     BAS[ATNO][  3].d[  2] =         0.000617557678;
  BAS[ATNO][  3].a[  3] =      5261.000000000000;     BAS[ATNO][  3].d[  3] =         0.002582120806;
  BAS[ATNO][  3].a[  4] =      1717.000000000000;     BAS[ATNO][  3].d[  4] =         0.009115006003;
  BAS[ATNO][  3].a[  5] =       619.900000000000;     BAS[ATNO][  3].d[  5] =         0.027382909674;
  BAS[ATNO][  3].a[  6] =       241.600000000000;     BAS[ATNO][  3].d[  6] =         0.066885434888;
  BAS[ATNO][  3].a[  7] =        99.790000000000;     BAS[ATNO][  3].d[  7] =         0.118587945857;
  BAS[ATNO][  3].a[  8] =        43.150000000000;     BAS[ATNO][  3].d[  8] =         0.116188805227;
  BAS[ATNO][  3].a[  9] =        19.140000000000;     BAS[ATNO][  3].d[  9] =         0.039309610110;
  BAS[ATNO][  3].a[ 10] =         7.488000000000;     BAS[ATNO][  3].d[ 10] =         0.001861976433;
  BAS[ATNO][  3].a[ 11] =         3.205000000000;     BAS[ATNO][  3].d[ 11] =         0.000160698215;
  BAS[ATNO][  3].a[ 12] =         0.520400000000;     BAS[ATNO][  3].d[ 12] =         0.000009706415;
  BAS[ATNO][  3].a[ 13] =    545000.000000000000;     BAS[ATNO][  3].d[ 13] =        -0.000032051712;
  BAS[ATNO][  3].a[ 14] =     81640.000000000000;     BAS[ATNO][  3].d[ 14] =        -0.000248465030;
  BAS[ATNO][  3].a[ 15] =     18580.000000000000;     BAS[ATNO][  3].d[ 15] =        -0.001310220817;
  BAS[ATNO][  3].a[ 16] =      5261.000000000000;     BAS[ATNO][  3].d[ 16] =        -0.005477472803;
  BAS[ATNO][  3].a[ 17] =      1717.000000000000;     BAS[ATNO][  3].d[ 17] =        -0.019714433935;
  BAS[ATNO][  3].a[ 18] =       619.900000000000;     BAS[ATNO][  3].d[ 18] =        -0.060813169493;
  BAS[ATNO][  3].a[ 19] =       241.600000000000;     BAS[ATNO][  3].d[ 19] =        -0.162743258896;
  BAS[ATNO][  3].a[ 20] =        99.790000000000;     BAS[ATNO][  3].d[ 20] =        -0.341276966769;
  BAS[ATNO][  3].a[ 21] =        43.150000000000;     BAS[ATNO][  3].d[ 21] =        -0.498844984193;
  BAS[ATNO][  3].a[ 22] =        19.140000000000;     BAS[ATNO][  3].d[ 22] =        -0.102137663148;
  BAS[ATNO][  3].a[ 23] =         7.488000000000;     BAS[ATNO][  3].d[ 23] =         1.199128041158;
  BAS[ATNO][  3].a[ 24] =         3.205000000000;     BAS[ATNO][  3].d[ 24] =         1.433035694710;
  BAS[ATNO][  3].a[ 25] =         0.520400000000;     BAS[ATNO][  3].d[ 25] =        -0.018000107364;
  BAS[ATNO][  3].a[ 26] =    545000.000000000000;     BAS[ATNO][  3].d[ 26] =         0.000014013722;
  BAS[ATNO][  3].a[ 27] =     81640.000000000000;     BAS[ATNO][  3].d[ 27] =         0.000108545356;
  BAS[ATNO][  3].a[ 28] =     18580.000000000000;     BAS[ATNO][  3].d[ 28] =         0.000573178828;
  BAS[ATNO][  3].a[ 29] =      5261.000000000000;     BAS[ATNO][  3].d[ 29] =         0.002393332857;
  BAS[ATNO][  3].a[ 30] =      1717.000000000000;     BAS[ATNO][  3].d[ 30] =         0.008643392500;
  BAS[ATNO][  3].a[ 31] =       619.900000000000;     BAS[ATNO][  3].d[ 31] =         0.026681193118;
  BAS[ATNO][  3].a[ 32] =       241.600000000000;     BAS[ATNO][  3].d[ 32] =         0.072220546153;
  BAS[ATNO][  3].a[ 33] =        99.790000000000;     BAS[ATNO][  3].d[ 33] =         0.153623593878;
  BAS[ATNO][  3].a[ 34] =        43.150000000000;     BAS[ATNO][  3].d[ 34] =         0.235375436176;
  BAS[ATNO][  3].a[ 35] =        19.140000000000;     BAS[ATNO][  3].d[ 35] =         0.048910826292;
  BAS[ATNO][  3].a[ 36] =         7.488000000000;     BAS[ATNO][  3].d[ 36] =        -0.717966638589;
  BAS[ATNO][  3].a[ 37] =         3.205000000000;     BAS[ATNO][  3].d[ 37] =        -1.470767751057;
  BAS[ATNO][  3].a[ 38] =         0.520400000000;     BAS[ATNO][  3].d[ 38] =         2.538542819947;
  BAS[ATNO][  3].a[ 39] =         1.196000000000;     BAS[ATNO][  3].d[ 39] =        -2.441314348560;
  BAS[ATNO][  3].a[ 40] =         0.195400000000;     BAS[ATNO][  3].d[ 40] =        -0.129677978533;
  BAS[ATNO][  3].a[ 41] =        17.362000000000;     BAS[ATNO][  3].d[ 41] =         0.207775258244;
  BAS[ATNO][  3].a[ 42] =         3.378000000000;     BAS[ATNO][  3].d[ 42] =         0.097003917543;

  // Basis function   5 L = s
  InitBFNGauss(BAS[ATNO][  4]);
  BAS[ATNO][  4].l  = 0;
  BAS[ATNO][  4].ng = 43;
  BAS[ATNO][  4].a[  0] =    545000.000000000000;     BAS[ATNO][  4].d[  0] =         0.000014041466;
  BAS[ATNO][  4].a[  1] =     81640.000000000000;     BAS[ATNO][  4].d[  1] =         0.000109080520;
  BAS[ATNO][  4].a[  2] =     18580.000000000000;     BAS[ATNO][  4].d[  2] =         0.000572334807;
  BAS[ATNO][  4].a[  3] =      5261.000000000000;     BAS[ATNO][  4].d[  3] =         0.002393035769;
  BAS[ATNO][  4].a[  4] =      1717.000000000000;     BAS[ATNO][  4].d[  4] =         0.008447527069;
  BAS[ATNO][  4].a[  5] =       619.900000000000;     BAS[ATNO][  4].d[  5] =         0.025377698119;
  BAS[ATNO][  4].a[  6] =       241.600000000000;     BAS[ATNO][  4].d[  6] =         0.061987509559;
  BAS[ATNO][  4].a[  7] =        99.790000000000;     BAS[ATNO][  4].d[  7] =         0.109903919137;
  BAS[ATNO][  4].a[  8] =        43.150000000000;     BAS[ATNO][  4].d[  8] =         0.107680464165;
  BAS[ATNO][  4].a[  9] =        19.140000000000;     BAS[ATNO][  4].d[  9] =         0.036431023235;
  BAS[ATNO][  4].a[ 10] =         7.488000000000;     BAS[ATNO][  4].d[ 10] =         0.001725626546;
  BAS[ATNO][  4].a[ 11] =         3.205000000000;     BAS[ATNO][  4].d[ 11] =         0.000148930513;
  BAS[ATNO][  4].a[ 12] =         0.520400000000;     BAS[ATNO][  4].d[ 12] =         0.000008995628;
  BAS[ATNO][  4].a[ 13] =    545000.000000000000;     BAS[ATNO][  4].d[ 13] =        -0.000035464945;
  BAS[ATNO][  4].a[ 14] =     81640.000000000000;     BAS[ATNO][  4].d[ 14] =        -0.000274924431;
  BAS[ATNO][  4].a[ 15] =     18580.000000000000;     BAS[ATNO][  4].d[ 15] =        -0.001449748126;
  BAS[ATNO][  4].a[ 16] =      5261.000000000000;     BAS[ATNO][  4].d[ 16] =        -0.006060776802;
  BAS[ATNO][  4].a[ 17] =      1717.000000000000;     BAS[ATNO][  4].d[ 17] =        -0.021813852513;
  BAS[ATNO][  4].a[ 18] =       619.900000000000;     BAS[ATNO][  4].d[ 18] =        -0.067289251854;
  BAS[ATNO][  4].a[ 19] =       241.600000000000;     BAS[ATNO][  4].d[ 19] =        -0.180074023876;
  BAS[ATNO][  4].a[ 20] =        99.790000000000;     BAS[ATNO][  4].d[ 20] =        -0.377620044475;
  BAS[ATNO][  4].a[ 21] =        43.150000000000;     BAS[ATNO][  4].d[ 21] =        -0.551967707931;
  BAS[ATNO][  4].a[ 22] =        19.140000000000;     BAS[ATNO][  4].d[ 22] =        -0.113014450596;
  BAS[ATNO][  4].a[ 23] =         7.488000000000;     BAS[ATNO][  4].d[ 23] =         1.326824920300;
  BAS[ATNO][  4].a[ 24] =         3.205000000000;     BAS[ATNO][  4].d[ 24] =         1.585641738128;
  BAS[ATNO][  4].a[ 25] =         0.520400000000;     BAS[ATNO][  4].d[ 25] =        -0.019916964827;
  BAS[ATNO][  4].a[ 26] =    545000.000000000000;     BAS[ATNO][  4].d[ 26] =         0.000020239616;
  BAS[ATNO][  4].a[ 27] =     81640.000000000000;     BAS[ATNO][  4].d[ 27] =         0.000156768940;
  BAS[ATNO][  4].a[ 28] =     18580.000000000000;     BAS[ATNO][  4].d[ 28] =         0.000827825720;
  BAS[ATNO][  4].a[ 29] =      5261.000000000000;     BAS[ATNO][  4].d[ 29] =         0.003456621912;
  BAS[ATNO][  4].a[ 30] =      1717.000000000000;     BAS[ATNO][  4].d[ 30] =         0.012483403562;
  BAS[ATNO][  4].a[ 31] =       619.900000000000;     BAS[ATNO][  4].d[ 31] =         0.038534880974;
  BAS[ATNO][  4].a[ 32] =       241.600000000000;     BAS[ATNO][  4].d[ 32] =         0.104306060735;
  BAS[ATNO][  4].a[ 33] =        99.790000000000;     BAS[ATNO][  4].d[ 33] =         0.221874144784;
  BAS[ATNO][  4].a[ 34] =        43.150000000000;     BAS[ATNO][  4].d[ 34] =         0.339945982817;
  BAS[ATNO][  4].a[ 35] =        19.140000000000;     BAS[ATNO][  4].d[ 35] =         0.070640501763;
  BAS[ATNO][  4].a[ 36] =         7.488000000000;     BAS[ATNO][  4].d[ 36] =        -1.036938597119;
  BAS[ATNO][  4].a[ 37] =         3.205000000000;     BAS[ATNO][  4].d[ 37] =        -2.124187624464;
  BAS[ATNO][  4].a[ 38] =         0.520400000000;     BAS[ATNO][  4].d[ 38] =         3.666344491460;
  BAS[ATNO][  4].a[ 39] =         1.196000000000;     BAS[ATNO][  4].d[ 39] =        -1.879518618596;
  BAS[ATNO][  4].a[ 40] =         0.195400000000;     BAS[ATNO][  4].d[ 40] =        -2.427996250986;
  BAS[ATNO][  4].a[ 41] =        17.362000000000;     BAS[ATNO][  4].d[ 41] =         0.176046475384;
  BAS[ATNO][  4].a[ 42] =         3.378000000000;     BAS[ATNO][  4].d[ 42] =         0.421494312690;

  // Basis function   6 L = s
  InitBFNGauss(BAS[ATNO][  5]);
  BAS[ATNO][  5].l  = 0;
  BAS[ATNO][  5].ng = 43;
  BAS[ATNO][  5].a[  0] =    545000.000000000000;     BAS[ATNO][  5].d[  0] =        -0.000055660397;
  BAS[ATNO][  5].a[  1] =     81640.000000000000;     BAS[ATNO][  5].d[  1] =        -0.000432395376;
  BAS[ATNO][  5].a[  2] =     18580.000000000000;     BAS[ATNO][  5].d[  2] =        -0.002268736195;
  BAS[ATNO][  5].a[  3] =      5261.000000000000;     BAS[ATNO][  5].d[  3] =        -0.009485998060;
  BAS[ATNO][  5].a[  4] =      1717.000000000000;     BAS[ATNO][  5].d[  4] =        -0.033486012374;
  BAS[ATNO][  5].a[  5] =       619.900000000000;     BAS[ATNO][  5].d[  5] =        -0.100597240621;
  BAS[ATNO][  5].a[  6] =       241.600000000000;     BAS[ATNO][  5].d[  6] =        -0.245718598485;
  BAS[ATNO][  5].a[  7] =        99.790000000000;     BAS[ATNO][  5].d[  7] =        -0.435659331542;
  BAS[ATNO][  5].a[  8] =        43.150000000000;     BAS[ATNO][  5].d[  8] =        -0.426845552066;
  BAS[ATNO][  5].a[  9] =        19.140000000000;     BAS[ATNO][  5].d[  9] =        -0.144412641099;
  BAS[ATNO][  5].a[ 10] =         7.488000000000;     BAS[ATNO][  5].d[ 10] =        -0.006840386706;
  BAS[ATNO][  5].a[ 11] =         3.205000000000;     BAS[ATNO][  5].d[ 11] =        -0.000590360821;
  BAS[ATNO][  5].a[ 12] =         0.520400000000;     BAS[ATNO][  5].d[ 12] =        -0.000035658686;
  BAS[ATNO][  5].a[ 13] =    545000.000000000000;     BAS[ATNO][  5].d[ 13] =         0.000037809857;
  BAS[ATNO][  5].a[ 14] =     81640.000000000000;     BAS[ATNO][  5].d[ 14] =         0.000293102204;
  BAS[ATNO][  5].a[ 15] =     18580.000000000000;     BAS[ATNO][  5].d[ 15] =         0.001545604260;
  BAS[ATNO][  5].a[ 16] =      5261.000000000000;     BAS[ATNO][  5].d[ 16] =         0.006461510298;
  BAS[ATNO][  5].a[ 17] =      1717.000000000000;     BAS[ATNO][  5].d[ 17] =         0.023256166207;
  BAS[ATNO][  5].a[ 18] =       619.900000000000;     BAS[ATNO][  5].d[ 18] =         0.071738360938;
  BAS[ATNO][  5].a[ 19] =       241.600000000000;     BAS[ATNO][  5].d[ 19] =         0.191980367808;
  BAS[ATNO][  5].a[ 20] =        99.790000000000;     BAS[ATNO][  5].d[ 20] =         0.402587966156;
  BAS[ATNO][  5].a[ 21] =        43.150000000000;     BAS[ATNO][  5].d[ 21] =         0.588463351380;
  BAS[ATNO][  5].a[ 22] =        19.140000000000;     BAS[ATNO][  5].d[ 22] =         0.120486871598;
  BAS[ATNO][  5].a[ 23] =         7.488000000000;     BAS[ATNO][  5].d[ 23] =        -1.414553474915;
  BAS[ATNO][  5].a[ 24] =         3.205000000000;     BAS[ATNO][  5].d[ 24] =        -1.690483044388;
  BAS[ATNO][  5].a[ 25] =         0.520400000000;     BAS[ATNO][  5].d[ 25] =         0.021233857893;
  BAS[ATNO][  5].a[ 26] =    545000.000000000000;     BAS[ATNO][  5].d[ 26] =         0.000020448570;
  BAS[ATNO][  5].a[ 27] =     81640.000000000000;     BAS[ATNO][  5].d[ 27] =         0.000158387427;
  BAS[ATNO][  5].a[ 28] =     18580.000000000000;     BAS[ATNO][  5].d[ 28] =         0.000836372217;
  BAS[ATNO][  5].a[ 29] =      5261.000000000000;     BAS[ATNO][  5].d[ 29] =         0.003492308176;
  BAS[ATNO][  5].a[ 30] =      1717.000000000000;     BAS[ATNO][  5].d[ 30] =         0.012612282579;
  BAS[ATNO][  5].a[ 31] =       619.900000000000;     BAS[ATNO][  5].d[ 31] =         0.038932716190;
  BAS[ATNO][  5].a[ 32] =       241.600000000000;     BAS[ATNO][  5].d[ 32] =         0.105382919497;
  BAS[ATNO][  5].a[ 33] =        99.790000000000;     BAS[ATNO][  5].d[ 33] =         0.224164779816;
  BAS[ATNO][  5].a[ 34] =        43.150000000000;     BAS[ATNO][  5].d[ 34] =         0.343455594891;
  BAS[ATNO][  5].a[ 35] =        19.140000000000;     BAS[ATNO][  5].d[ 35] =         0.071369796329;
  BAS[ATNO][  5].a[ 36] =         7.488000000000;     BAS[ATNO][  5].d[ 36] =        -1.047643980928;
  BAS[ATNO][  5].a[ 37] =         3.205000000000;     BAS[ATNO][  5].d[ 37] =        -2.146117798407;
  BAS[ATNO][  5].a[ 38] =         0.520400000000;     BAS[ATNO][  5].d[ 38] =         3.704195937117;
  BAS[ATNO][  5].a[ 39] =         1.196000000000;     BAS[ATNO][  5].d[ 39] =        -5.332602537884;
  BAS[ATNO][  5].a[ 40] =         0.195400000000;     BAS[ATNO][  5].d[ 40] =        -1.134005943129;
  BAS[ATNO][  5].a[ 41] =        17.362000000000;     BAS[ATNO][  5].d[ 41] =        -0.877961061338;
  BAS[ATNO][  5].a[ 42] =         3.378000000000;     BAS[ATNO][  5].d[ 42] =         9.089664083684;

  // Basis function   7 L = s
  InitBFNGauss(BAS[ATNO][  6]);
  BAS[ATNO][  6].l  = 0;
  BAS[ATNO][  6].ng = 43;
  BAS[ATNO][  6].a[  0] =    545000.000000000000;     BAS[ATNO][  6].d[  0] =        -0.000278562006;
  BAS[ATNO][  6].a[  1] =     81640.000000000000;     BAS[ATNO][  6].d[  1] =        -0.002163996835;
  BAS[ATNO][  6].a[  2] =     18580.000000000000;     BAS[ATNO][  6].d[  2] =        -0.011354279487;
  BAS[ATNO][  6].a[  3] =      5261.000000000000;     BAS[ATNO][  6].d[  3] =        -0.047474304609;
  BAS[ATNO][  6].a[  4] =      1717.000000000000;     BAS[ATNO][  6].d[  4] =        -0.167586493440;
  BAS[ATNO][  6].a[  5] =       619.900000000000;     BAS[ATNO][  6].d[  5] =        -0.503456148115;
  BAS[ATNO][  6].a[  6] =       241.600000000000;     BAS[ATNO][  6].d[  6] =        -1.229740879072;
  BAS[ATNO][  6].a[  7] =        99.790000000000;     BAS[ATNO][  6].d[  7] =        -2.180331861930;
  BAS[ATNO][  6].a[  8] =        43.150000000000;     BAS[ATNO][  6].d[  8] =        -2.136221790544;
  BAS[ATNO][  6].a[  9] =        19.140000000000;     BAS[ATNO][  6].d[  9] =        -0.722737836328;
  BAS[ATNO][  6].a[ 10] =         7.488000000000;     BAS[ATNO][  6].d[ 10] =        -0.034233888737;
  BAS[ATNO][  6].a[ 11] =         3.205000000000;     BAS[ATNO][  6].d[ 11] =        -0.002954562004;
  BAS[ATNO][  6].a[ 12] =         0.520400000000;     BAS[ATNO][  6].d[ 12] =        -0.000178460011;
[...]
  BAS[ATNO][  6].a[ 24] =         3.205000000000;     BAS[ATNO][  6].d[ 24] =        -7.056033377476;
  BAS[ATNO][  6].a[ 25] =         0.520400000000;     BAS[ATNO][  6].d[ 25] =         0.088629584615;
  BAS[ATNO][  6].a[ 26] =    545000.000000000000;     BAS[ATNO][  6].d[ 26] =         0.000008043395;
  BAS[ATNO][  6].a[ 27] =     81640.000000000000;     BAS[ATNO][  6].d[ 27] =         0.000062301307;
  BAS[ATNO][  6].a[ 28] =     18580.000000000000;     BAS[ATNO][  6].d[ 28] =         0.000328984965;
  BAS[ATNO][  6].a[ 29] =      5261.000000000000;     BAS[ATNO][  6].d[ 29] =         0.001373690876;
  BAS[ATNO][  6].a[ 30] =      1717.000000000000;     BAS[ATNO][  6].d[ 30] =         0.004961010492;
  BAS[ATNO][  6].a[ 31] =       619.900000000000;     BAS[ATNO][  6].d[ 31] =         0.015314088650;
  BAS[ATNO][  6].a[ 32] =       241.600000000000;     BAS[ATNO][  6].d[ 32] =         0.041452113525;
  BAS[ATNO][  6].a[ 33] =        99.790000000000;     BAS[ATNO][  6].d[ 33] =         0.088174667637;
  BAS[ATNO][  6].a[ 34] =        43.150000000000;     BAS[ATNO][  6].d[ 34] =         0.135097417856;
  BAS[ATNO][  6].a[ 35] =        19.140000000000;     BAS[ATNO][  6].d[ 35] =         0.028073134753;
  BAS[ATNO][  6].a[ 36] =         7.488000000000;     BAS[ATNO][  6].d[ 36] =        -0.412088196440;
  BAS[ATNO][  6].a[ 37] =         3.205000000000;     BAS[ATNO][  6].d[ 37] =        -0.844170184713;
  BAS[ATNO][  6].a[ 38] =         0.520400000000;     BAS[ATNO][  6].d[ 38] =         1.457036408146;
  BAS[ATNO][  6].a[ 39] =         1.196000000000;     BAS[ATNO][  6].d[ 39] =        -2.719297201309;
  BAS[ATNO][  6].a[ 40] =         0.195400000000;     BAS[ATNO][  6].d[ 40] =        -0.409166996738;
  BAS[ATNO][  6].a[ 41] =        17.362000000000;     BAS[ATNO][  6].d[ 41] =         3.242551975945;
  BAS[ATNO][  6].a[ 42] =         3.378000000000;     BAS[ATNO][  6].d[ 42] =        13.108634170849;

  // Basis function   8 L = p
  InitBFNGauss(BAS[ATNO][  7]);
  BAS[ATNO][  7].l  = 1;
  BAS[ATNO][  7].ng = 18;
  BAS[ATNO][  7].a[  0] =       761.800000000000;     BAS[ATNO][  7].d[  0] =         0.003392496308;
  BAS[ATNO][  7].a[  1] =       180.200000000000;     BAS[ATNO][  7].d[  1] =         0.027228470615;
  BAS[ATNO][  7].a[  2] =        57.500000000000;     BAS[ATNO][  7].d[  2] =         0.126094393331;
  BAS[ATNO][  7].a[  3] =        21.240000000000;     BAS[ATNO][  7].d[  3] =         0.367023675777;
  BAS[ATNO][  7].a[  4] =         8.388000000000;     BAS[ATNO][  7].d[  4] =         0.628049020871;
  BAS[ATNO][  7].a[  5] =         3.416000000000;     BAS[ATNO][  7].d[  5] =         0.497572137775;
  BAS[ATNO][  7].a[  6] =         0.452300000000;     BAS[ATNO][  7].d[  6] =        -0.007499779517;
  BAS[ATNO][  7].a[  7] =       761.800000000000;     BAS[ATNO][  7].d[  7] =        -0.000042486311;
  BAS[ATNO][  7].a[  8] =       180.200000000000;     BAS[ATNO][  7].d[  8] =        -0.000339220726;
  BAS[ATNO][  7].a[  9] =        57.500000000000;     BAS[ATNO][  7].d[  9] =        -0.001626921238;
  BAS[ATNO][  7].a[ 10] =        21.240000000000;     BAS[ATNO][  7].d[ 10] =        -0.004821639179;
  BAS[ATNO][  7].a[ 11] =         8.388000000000;     BAS[ATNO][  7].d[ 11] =        -0.008986992847;
  BAS[ATNO][  7].a[ 12] =         3.416000000000;     BAS[ATNO][  7].d[ 12] =        -0.005939630947;
  BAS[ATNO][  7].a[ 13] =         0.452300000000;     BAS[ATNO][  7].d[ 13] =         0.035815394888;
  BAS[ATNO][  7].a[ 14] =         1.206000000000;     BAS[ATNO][  7].d[ 14] =        -0.067815440226;
  BAS[ATNO][  7].a[ 15] =         0.154500000000;     BAS[ATNO][  7].d[ 15] =        -0.008169916035;
  BAS[ATNO][  7].a[ 16] =        11.019000000000;     BAS[ATNO][  7].d[ 16] =        -0.023762208323;
  BAS[ATNO][  7].a[ 17] =         4.307000000000;     BAS[ATNO][  7].d[ 17] =        -0.390424653828;

  // Basis function   9 L = p
  InitBFNGauss(BAS[ATNO][  8]);
  BAS[ATNO][  8].l  = 1;
  BAS[ATNO][  8].ng = 18;
  BAS[ATNO][  8].a[  0] =       761.800000000000;     BAS[ATNO][  8].d[  0] =        -0.002263503040;
  BAS[ATNO][  8].a[  1] =       180.200000000000;     BAS[ATNO][  8].d[  1] =        -0.018167072390;
  BAS[ATNO][  8].a[  2] =        57.500000000000;     BAS[ATNO][  8].d[  2] =        -0.084131275823;
  BAS[ATNO][  8].a[  3] =        21.240000000000;     BAS[ATNO][  8].d[  3] =        -0.244881388337;
  BAS[ATNO][  8].a[  4] =         8.388000000000;     BAS[ATNO][  8].d[  4] =        -0.419039768616;
  BAS[ATNO][  8].a[  5] =         3.416000000000;     BAS[ATNO][  8].d[  5] =        -0.331984457509;
  BAS[ATNO][  8].a[  6] =         0.452300000000;     BAS[ATNO][  8].d[  6] =         0.005003918116;
  BAS[ATNO][  8].a[  7] =       761.800000000000;     BAS[ATNO][  8].d[  7] =         0.000230155716;
  BAS[ATNO][  8].a[  8] =       180.200000000000;     BAS[ATNO][  8].d[  8] =         0.001837617521;
  BAS[ATNO][  8].a[  9] =        57.500000000000;     BAS[ATNO][  8].d[  9] =         0.008813314590;
  BAS[ATNO][  8].a[ 10] =        21.240000000000;     BAS[ATNO][  8].d[ 10] =         0.026119655912;
  BAS[ATNO][  8].a[ 11] =         8.388000000000;     BAS[ATNO][  8].d[ 11] =         0.048684099353;
  BAS[ATNO][  8].a[ 12] =         3.416000000000;     BAS[ATNO][  8].d[ 12] =         0.032176011270;
  BAS[ATNO][  8].a[ 13] =         0.452300000000;     BAS[ATNO][  8].d[ 13] =        -0.194018207513;
  BAS[ATNO][  8].a[ 14] =         1.206000000000;     BAS[ATNO][  8].d[ 14] =         0.889910563197;
  BAS[ATNO][  8].a[ 15] =         0.154500000000;     BAS[ATNO][  8].d[ 15] =         0.053599870419;
  BAS[ATNO][  8].a[ 16] =        11.019000000000;     BAS[ATNO][  8].d[ 16] =        -0.143392755555;
  BAS[ATNO][  8].a[ 17] =         4.307000000000;     BAS[ATNO][  8].d[ 17] =         0.867836510976;

  // Basis function  10 L = p
  InitBFNGauss(BAS[ATNO][  9]);
  BAS[ATNO][  9].l  = 1;
  BAS[ATNO][  9].ng = 18;
  BAS[ATNO][  9].a[  0] =       761.800000000000;     BAS[ATNO][  9].d[  0] =         0.002913339775;
  BAS[ATNO][  9].a[  1] =       180.200000000000;     BAS[ATNO][  9].d[  1] =         0.023382718585;
  BAS[ATNO][  9].a[  2] =        57.500000000000;     BAS[ATNO][  9].d[  2] =         0.108284808060;
  BAS[ATNO][  9].a[  3] =        21.240000000000;     BAS[ATNO][  9].d[  3] =         0.315185213515;
  BAS[ATNO][  9].a[  4] =         8.388000000000;     BAS[ATNO][  9].d[  4] =         0.539343311633;
  BAS[ATNO][  9].a[  5] =         3.416000000000;     BAS[ATNO][  9].d[  5] =         0.427294997119;
  BAS[ATNO][  9].a[  6] =         0.452300000000;     BAS[ATNO][  9].d[  6] =        -0.006440509875;
  BAS[ATNO][  9].a[  7] =       761.800000000000;     BAS[ATNO][  9].d[  7] =        -0.001504746297;
  BAS[ATNO][  9].a[  8] =       180.200000000000;     BAS[ATNO][  9].d[  8] =        -0.012014249362;
  BAS[ATNO][  9].a[  9] =        57.500000000000;     BAS[ATNO][  9].d[  9] =        -0.057621000013;
  BAS[ATNO][  9].a[ 10] =        21.240000000000;     BAS[ATNO][  9].d[ 10] =        -0.170768974407;
  BAS[ATNO][  9].a[ 11] =         8.388000000000;     BAS[ATNO][  9].d[ 11] =        -0.318294151522;
  BAS[ATNO][  9].a[ 12] =         3.416000000000;     BAS[ATNO][  9].d[ 12] =        -0.210365115973;
  BAS[ATNO][  9].a[ 13] =         0.452300000000;     BAS[ATNO][  9].d[ 13] =         1.268481117269;
  BAS[ATNO][  9].a[ 14] =         1.206000000000;     BAS[ATNO][  9].d[ 14] =        -0.295353366757;
  BAS[ATNO][  9].a[ 15] =         0.154500000000;     BAS[ATNO][  9].d[ 15] =        -0.161098014895;
  BAS[ATNO][  9].a[ 16] =        11.019000000000;     BAS[ATNO][  9].d[ 16] =         0.203851374740;
  BAS[ATNO][  9].a[ 17] =         4.307000000000;     BAS[ATNO][  9].d[ 17] =        -1.002415682971;

  // Basis function  11 L = p
  InitBFNGauss(BAS[ATNO][ 10]);
  BAS[ATNO][ 10].l  = 1;
  BAS[ATNO][ 10].ng = 18;
  BAS[ATNO][ 10].a[  0] =       761.800000000000;     BAS[ATNO][ 10].d[  0] =        -0.001596506599;
  BAS[ATNO][ 10].a[  1] =       180.200000000000;     BAS[ATNO][ 10].d[  1] =        -0.012813700909;
  BAS[ATNO][ 10].a[  2] =        57.500000000000;     BAS[ATNO][ 10].d[  2] =        -0.059339941095;
  BAS[ATNO][ 10].a[  3] =        21.240000000000;     BAS[ATNO][ 10].d[  3] =        -0.172721107781;
  BAS[ATNO][ 10].a[  4] =         8.388000000000;     BAS[ATNO][ 10].d[  4] =        -0.295559468734;
  BAS[ATNO][ 10].a[  5] =         3.416000000000;     BAS[ATNO][ 10].d[  5] =        -0.234157130750;
  BAS[ATNO][ 10].a[  6] =         0.452300000000;     BAS[ATNO][ 10].d[  6] =         0.003529391458;
  BAS[ATNO][ 10].a[  7] =       761.800000000000;     BAS[ATNO][ 10].d[  7] =         0.000452159865;
  BAS[ATNO][ 10].a[  8] =       180.200000000000;     BAS[ATNO][ 10].d[  8] =         0.003610151012;
  BAS[ATNO][ 10].a[  9] =        57.500000000000;     BAS[ATNO][ 10].d[  9] =         0.017314482601;
  BAS[ATNO][ 10].a[ 10] =        21.240000000000;     BAS[ATNO][ 10].d[ 10] =         0.051314215919;
  BAS[ATNO][ 10].a[ 11] =         8.388000000000;     BAS[ATNO][ 10].d[ 11] =         0.095643924041;
  BAS[ATNO][ 10].a[ 12] =         3.416000000000;     BAS[ATNO][ 10].d[ 12] =         0.063212424975;
  BAS[ATNO][ 10].a[ 13] =         0.452300000000;     BAS[ATNO][ 10].d[ 13] =        -0.381164752943;
  BAS[ATNO][ 10].a[ 14] =         1.206000000000;     BAS[ATNO][ 10].d[ 14] =        -0.609339018019;
  BAS[ATNO][ 10].a[ 15] =         0.154500000000;     BAS[ATNO][ 10].d[ 15] =         1.151907215963;
  BAS[ATNO][ 10].a[ 16] =        11.019000000000;     BAS[ATNO][ 10].d[ 16] =        -0.200859107806;
  BAS[ATNO][ 10].a[ 17] =         4.307000000000;     BAS[ATNO][ 10].d[ 17] =         1.093030503008;

  // Basis function  12 L = p
  InitBFNGauss(BAS[ATNO][ 11]);
  BAS[ATNO][ 11].l  = 1;
  BAS[ATNO][ 11].ng = 18;
  BAS[ATNO][ 11].a[  0] =       761.800000000000;     BAS[ATNO][ 11].d[  0] =        -0.000783720880;
  BAS[ATNO][ 11].a[  1] =       180.200000000000;     BAS[ATNO][ 11].d[  1] =        -0.006290211993;
  BAS[ATNO][ 11].a[  2] =        57.500000000000;     BAS[ATNO][ 11].d[  2] =        -0.029129820636;
  BAS[ATNO][ 11].a[  3] =        21.240000000000;     BAS[ATNO][ 11].d[  3] =        -0.084788336436;
  BAS[ATNO][ 11].a[  4] =         8.388000000000;     BAS[ATNO][ 11].d[  4] =        -0.145089363968;
  BAS[ATNO][ 11].a[  5] =         3.416000000000;     BAS[ATNO][ 11].d[  5] =        -0.114947118137;
  BAS[ATNO][ 11].a[  6] =         0.452300000000;     BAS[ATNO][ 11].d[  6] =         0.001732568962;
  BAS[ATNO][ 11].a[  7] =       761.800000000000;     BAS[ATNO][ 11].d[  7] =         0.002582274539;
  BAS[ATNO][ 11].a[  8] =       180.200000000000;     BAS[ATNO][ 11].d[  8] =         0.020617489008;
  BAS[ATNO][ 11].a[  9] =        57.500000000000;     BAS[ATNO][ 11].d[  9] =         0.098882610026;
  BAS[ATNO][ 11].a[ 10] =        21.240000000000;     BAS[ATNO][ 11].d[ 10] =         0.293054301329;
  BAS[ATNO][ 11].a[ 11] =         8.388000000000;     BAS[ATNO][ 11].d[ 11] =         0.546220240036;
  BAS[ATNO][ 11].a[ 12] =         3.416000000000;     BAS[ATNO][ 11].d[ 12] =         0.361004698305;
  BAS[ATNO][ 11].a[ 13] =         0.452300000000;     BAS[ATNO][ 11].d[ 13] =        -2.176823096005;
  BAS[ATNO][ 11].a[ 14] =         1.206000000000;     BAS[ATNO][ 11].d[ 14] =         2.194949714529;
  BAS[ATNO][ 11].a[ 15] =         0.154500000000;     BAS[ATNO][ 11].d[ 15] =         1.146338844265;
  BAS[ATNO][ 11].a[ 16] =        11.019000000000;     BAS[ATNO][ 11].d[ 16] =         0.290325822862;
  BAS[ATNO][ 11].a[ 17] =         4.307000000000;     BAS[ATNO][ 11].d[ 17] =        -2.015862319018;

  // Basis function  13 L = p
  InitBFNGauss(BAS[ATNO][ 12]);
  BAS[ATNO][ 12].l  = 1;
  BAS[ATNO][ 12].ng = 18;
  BAS[ATNO][ 12].a[  0] =       761.800000000000;     BAS[ATNO][ 12].d[  0] =        -0.015083183601;
  BAS[ATNO][ 12].a[  1] =       180.200000000000;     BAS[ATNO][ 12].d[  1] =        -0.121058944271;
  BAS[ATNO][ 12].a[  2] =        57.500000000000;     BAS[ATNO][ 12].d[  2] =        -0.560621062814;
  BAS[ATNO][ 12].a[  3] =        21.240000000000;     BAS[ATNO][ 12].d[  3] =        -1.631802951398;
  BAS[ATNO][ 12].a[  4] =         8.388000000000;     BAS[ATNO][ 12].d[  4] =        -2.792332793545;
  BAS[ATNO][ 12].a[  5] =         3.416000000000;     BAS[ATNO][ 12].d[  5] =        -2.212226993897;
  BAS[ATNO][ 12].a[  6] =         0.452300000000;     BAS[ATNO][ 12].d[  6] =         0.033344340319;
  BAS[ATNO][ 12].a[  7] =       761.800000000000;     BAS[ATNO][ 12].d[  7] =         0.000680994317;
  BAS[ATNO][ 12].a[  8] =       180.200000000000;     BAS[ATNO][ 12].d[  8] =         0.005437219252;
  BAS[ATNO][ 12].a[  9] =        57.500000000000;     BAS[ATNO][ 12].d[  9] =         0.026077202258;
  BAS[ATNO][ 12].a[ 10] =        21.240000000000;     BAS[ATNO][ 12].d[ 10] =         0.077283925722;
  BAS[ATNO][ 12].a[ 11] =         8.388000000000;     BAS[ATNO][ 12].d[ 11] =         0.144048540722;
  BAS[ATNO][ 12].a[ 12] =         3.416000000000;     BAS[ATNO][ 12].d[ 12] =         0.095203722186;
  BAS[ATNO][ 12].a[ 13] =         0.452300000000;     BAS[ATNO][ 12].d[ 13] =        -0.574069152708;
  BAS[ATNO][ 12].a[ 14] =         1.206000000000;     BAS[ATNO][ 12].d[ 14] =         1.051705230153;
  BAS[ATNO][ 12].a[ 15] =         0.154500000000;     BAS[ATNO][ 12].d[ 15] =         0.169309075236;
  BAS[ATNO][ 12].a[ 16] =        11.019000000000;     BAS[ATNO][ 12].d[ 16] =         4.711246259528;
  BAS[ATNO][ 12].a[ 17] =         4.307000000000;     BAS[ATNO][ 12].d[ 17] =         1.164730271982;

  // Basis function  14 L = d
  InitBFNGauss(BAS[ATNO][ 13]);
  BAS[ATNO][ 13].l  = 2;
  BAS[ATNO][ 13].ng = 4;
  BAS[ATNO][ 13].a[  0] =         0.410000000000;     BAS[ATNO][ 13].d[  0] =        -0.116990167369;
  BAS[ATNO][ 13].a[  1] =         1.254000000000;     BAS[ATNO][ 13].d[  1] =         0.578519591800;
  BAS[ATNO][ 13].a[  2] =        20.706000000000;     BAS[ATNO][ 13].d[  2] =         0.067931104926;
  BAS[ATNO][ 13].a[  3] =         6.681000000000;     BAS[ATNO][ 13].d[  3] =         0.655166651569;

  // Basis function  15 L = d
  InitBFNGauss(BAS[ATNO][ 14]);
  BAS[ATNO][ 14].l  = 2;
  BAS[ATNO][ 14].ng = 4;
  BAS[ATNO][ 14].a[  0] =         0.410000000000;     BAS[ATNO][ 14].d[  0] =        -0.456600279197;
  BAS[ATNO][ 14].a[  1] =         1.254000000000;     BAS[ATNO][ 14].d[  1] =        -0.585753216362;
  BAS[ATNO][ 14].a[  2] =        20.706000000000;     BAS[ATNO][ 14].d[  2] =         0.076879856068;
  BAS[ATNO][ 14].a[  3] =         6.681000000000;     BAS[ATNO][ 14].d[  3] =         0.586126749632;

  // Basis function  16 L = d
  InitBFNGauss(BAS[ATNO][ 15]);
  BAS[ATNO][ 15].l  = 2;
  BAS[ATNO][ 15].ng = 4;
  BAS[ATNO][ 15].a[  0] =         0.410000000000;     BAS[ATNO][ 15].d[  0] =         1.166710680016;
  BAS[ATNO][ 15].a[  1] =         1.254000000000;     BAS[ATNO][ 15].d[  1] =        -1.032378978112;
  BAS[ATNO][ 15].a[  2] =        20.706000000000;     BAS[ATNO][ 15].d[  2] =         0.070087714944;
  BAS[ATNO][ 15].a[  3] =         6.681000000000;     BAS[ATNO][ 15].d[  3] =         0.456971237440;

  // Basis function  17 L = d
  InitBFNGauss(BAS[ATNO][ 16]);
  BAS[ATNO][ 16].l  = 2;
  BAS[ATNO][ 16].ng = 4;
  BAS[ATNO][ 16].a[  0] =         0.410000000000;     BAS[ATNO][ 16].d[  0] =        -0.134506884698;
  BAS[ATNO][ 16].a[  1] =         1.254000000000;     BAS[ATNO][ 16].d[  1] =         0.308689747868;
  BAS[ATNO][ 16].a[  2] =        20.706000000000;     BAS[ATNO][ 16].d[  2] =         1.250881556546;
  BAS[ATNO][ 16].a[  3] =         6.681000000000;     BAS[ATNO][ 16].d[  3] =        -0.913541811641;

  // Basis function  18 L = f
  InitBFNGauss(BAS[ATNO][ 17]);
  BAS[ATNO][ 17].l  = 3;
  BAS[ATNO][ 17].ng = 2;
  BAS[ATNO][ 17].a[  0] =         0.890000000000;     BAS[ATNO][ 17].d[  0] =         0.998792545857;
  BAS[ATNO][ 17].a[  1] =        13.674000000000;     BAS[ATNO][ 17].d[  1] =         0.024737845885;

  // Basis function  19 L = f
  InitBFNGauss(BAS[ATNO][ 18]);
  BAS[ATNO][ 18].l  = 3;
  BAS[ATNO][ 18].ng = 2;
  BAS[ATNO][ 18].a[  0] =         0.890000000000;     BAS[ATNO][ 18].d[  0] =        -0.061190125119;
  BAS[ATNO][ 18].a[  1] =        13.674000000000;     BAS[ATNO][ 18].d[  1] =         1.000359345462;

-------
TIMINGS
-------

Total SCF time: 0 days 0 hours 0 min 2 sec 

Total time                  ....       2.260 sec
Sum of individual times     ....       2.056 sec  ( 91.0%)

Fock matrix formation       ....       1.588 sec  ( 70.3%)
  XC integration            ....       0.032 sec  (  2.0% of F)
    Basis function eval.    ....       0.007 sec  ( 21.8% of XC)
    Density eval.           ....       0.002 sec  (  5.8% of XC)
    XC-Functional eval.     ....       0.002 sec  (  5.7% of XC)
    XC-Potential eval.      ....       0.002 sec  (  7.5% of XC)
Diagonalization             ....       0.003 sec  (  0.1%)
Density matrix formation    ....       0.001 sec  (  0.0%)
Population analysis         ....       0.001 sec  (  0.0%)
Initial guess               ....       0.085 sec  (  3.8%)
Orbital Transformation      ....       0.000 sec  (  0.0%)
Orbital Orthonormalization  ....       0.000 sec  (  0.0%)
DIIS solution               ....       0.000 sec  (  0.0%)
SOSCF solution              ....       0.001 sec  (  0.0%)
Grid generation             ....       0.377 sec  ( 16.7%)

-------------------------   --------------------
FINAL SINGLE POINT ENERGY      -311.537575349863
-------------------------   --------------------


                            ***************************************
                            *     ORCA property calculations      *
                            ***************************************

                                    ---------------------
                                    Active property flags
                                    ---------------------
   (+) Dipole Moment


------------------------------------------------------------------------------
                       ORCA ELECTRIC PROPERTIES CALCULATION
------------------------------------------------------------------------------

Dipole Moment Calculation                       ... on
Quadrupole Moment Calculation                   ... off
Polarizability Calculation                      ... off
GBWName                                         ... Ar_cc-pcvtz_4385.151648_.gbw
Electron density file                           ... Ar_cc-pcvtz_4385.151648_.scfp
The origin for moment calculation is the CENTER OF MASS  = ( 0.000000,  0.000000  0.000000)

-------------
DIPOLE MOMENT
-------------
                                X             Y             Z
Electronic contribution:     -0.00000       0.00000       0.00000
Nuclear contribution   :      0.00000       0.00000       0.00000
                        -----------------------------------------
Total Dipole Moment    :     -0.00000       0.00000       0.00000
                        -----------------------------------------
Magnitude (a.u.)       :      0.00000
Magnitude (Debye)      :      0.00000



--------------------
Rotational spectrum 
--------------------
 
Rotational constants in cm-1:     0.000000     0.000000     0.000000 
Rotational constants in MHz :     0.000000     0.000000     0.000000 

 Dipole components along the rotational axes: 
x,y,z [a.u.] :    -0.000000     0.000000     0.000000 
x,y,z [Debye]:    -0.000000     0.000000     0.000000 

 

Timings for individual modules:

Sum of individual times         ...        3.475 sec (=   0.058 min)
GTO integral calculation        ...        0.577 sec (=   0.010 min)  16.6 %
Relativistic integrals          ...        0.372 sec (=   0.006 min)  10.7 %
SCF iterations                  ...        2.526 sec (=   0.042 min)  72.7 %
                             ****ORCA TERMINATED NORMALLY****
TOTAL RUN TIME: 0 days 0 hours 0 minutes 3 seconds 799 msec
