
                                 *****************
                                 * O   R   C   A *
                                 *****************

           --- An Ab Initio, DFT and Semiempirical electronic structure package ---

                  #######################################################
                  #                        -***-                        #
                  #          Department of theory and spectroscopy      #
                  #               Directorship: Frank Neese             #
                  #        Max Planck Institute fuer Kohlenforschung    #
                  #                Kaiser Wilhelm Platz 1               #
                  #                 D-45470 Muelheim/Ruhr               #
                  #                      Germany                        #
                  #                                                     #
                  #                  All rights reserved                #
                  #                        -***-                        #
                  #######################################################


                         Program Version 4.2.1 -  RELEASE  -


 With contributions from (in alphabetic order):
   Daniel Aravena         : Magnetic Suceptibility
   Michael Atanasov       : Ab Initio Ligand Field Theory (pilot matlab implementation)
   Alexander A. Auer      : GIAO ZORA, VPT2
   Ute Becker             : Parallelization
   Giovanni Bistoni       : ED, misc. LED, open-shell LED, HFLD
   Martin Brehm           : Molecular dynamics
   Dmytro Bykov           : SCF Hessian
   Vijay G. Chilkuri      : MRCI spin determinant printing, contributions to CSF-ICE
   Dipayan Datta          : RHF DLPNO-CCSD density
   Achintya Kumar Dutta   : EOM-CC, STEOM-CC
   Dmitry Ganyushin       : Spin-Orbit,Spin-Spin,Magnetic field MRCI
   Miquel Garcia          : C-PCM Hessian, Gaussian charge scheme
   Yang Guo               : DLPNO-NEVPT2, CIM, IAO-localization
   Andreas Hansen         : Spin unrestricted coupled pair/coupled cluster methods
   Benjamin Helmich-Paris : CASSCF linear response (MC-RPA)
   Lee Huntington         : MR-EOM, pCC
   Robert Izsak           : Overlap fitted RIJCOSX, COSX-SCS-MP3, EOM
   Christian Kollmar      : KDIIS, OOCD, Brueckner-CCSD(T), CCSD density
   Simone Kossmann        : Meta GGA functionals, TD-DFT gradient, OOMP2, MP2 Hessian
   Martin Krupicka        : AUTO-CI
   Lucas Lang             : DCDCAS
   Dagmar Lenk            : GEPOL surface, SMD
   Dimitrios Liakos       : Extrapolation schemes; Compound Job, initial MDCI parallelization
   Dimitrios Manganas     : Further ROCIS development; embedding schemes
   Dimitrios Pantazis     : SARC Basis sets
   Taras Petrenko         : DFT Hessian,TD-DFT gradient, ASA, ECA, R-Raman, ABS, FL, XAS/XES, NRVS
   Peter Pinski           : DLPNO-MP2, DLPNO-MP2 Gradient
   Christoph Reimann      : Effective Core Potentials
   Marius Retegan         : Local ZFS, SOC
   Christoph Riplinger    : Optimizer, TS searches, QM/MM, DLPNO-CCSD(T), (RO)-DLPNO pert. Triples
   Tobias Risthaus        : Range-separated hybrids, TD-DFT gradient, RPA, STAB
   Michael Roemelt        : Original ROCIS implementation
   Masaaki Saitow         : Open-shell DLPNO-CCSD energy and density
   Barbara Sandhoefer     : DKH picture change effects
   Avijit Sen             : IP-ROCIS
   Kantharuban Sivalingam : CASSCF convergence, NEVPT2, FIC-MRCI
   Bernardo de Souza      : ESD, SOC TD-DFT
   Georgi Stoychev        : AutoAux, RI-MP2 NMR
   Willem Van den Heuvel  : Paramagnetic NMR
   Boris Wezisla          : Elementary symmetry handling
   Frank Wennmohs         : Technical directorship


 We gratefully acknowledge several colleagues who have allowed us to
 interface, adapt or use parts of their codes:
   Stefan Grimme, W. Hujo, H. Kruse,             : VdW corrections, initial TS optimization,
                  C. Bannwarth                     DFT functionals, gCP, sTDA/sTD-DF
   Ed Valeev, F. Pavosevic, A. Kumar             : LibInt (2-el integral package), F12 methods
   Garnet Chan, S. Sharma, J. Yang, R. Olivares  : DMRG
   Ulf Ekstrom                                   : XCFun DFT Library
   Mihaly Kallay                                 : mrcc  (arbitrary order and MRCC methods)
   Andreas Klamt, Michael Diedenhofen            : otool_cosmo (COSMO solvation model)
   Jiri Pittner, Ondrej Demel                    : Mk-CCSD
   Frank Weinhold                                : gennbo (NPA and NBO analysis)
   Christopher J. Cramer and Donald G. Truhlar   : smd solvation model
   Lars Goerigk                                  : TD-DFT with DH, B97 family of functionals
   V. Asgeirsson, H. Jonsson                     : NEB implementation
   FAccTs GmbH                                   : IRC, NEB, NEB-TS, Multilevel, MM, QM/MM, CI optimization
   S Lehtola, MJT Oliveira, MAL Marques          : LibXC Library


 Your calculation uses the libint2 library for the computation of 2-el integrals
 For citations please refer to: http://libint.valeyev.net

 Your ORCA version has been built with support for libXC version: 4.2.3
 For citations please refer to: https://tddft.org/programs/libxc/

 This ORCA versions uses:
   CBLAS   interface :  Fast vector & matrix operations
   LAPACKE interface :  Fast linear algebra routines
   SCALAPACK package :  Parallel linear algebra routines


----- Orbital basis set information -----
Your calculation utilizes the basis: cc-pCVTZ 
             H : cc-pVTZ. Obtained from the ccRepo (grant-hill.group.shef.ac.uk/ccrepo) Feb. 2017
                 T. H. Dunning, Jr., J. Chem. Phys. 90, 1007 (1989)
            He : cc-pVTZ. Obtained from the ccRepo (grant-hill.group.shef.ac.uk/ccrepo) Feb. 2017
                 D. E. Woon, T. H. Dunning, Jr., J. Chem. Phys. 100, 2975 (1994)
  Li-Be, Na-Mg : Obtained from the ccRepo (grant-hill.group.shef.ac.uk/ccrepo) Feb. 2017
                 B. P. Prascher, D. E. Woon, K. A. Peterson, T. H. Dunning, Jr., A. K. Wilson, Theor. Chem. Acc. 128, 69 (2011)
          B-Ne : Obtained from the ccRepo (grant-hill.group.shef.ac.uk/ccrepo) Feb. 2017
                 D. E. Woon, T. H. Dunning, Jr., J. Chem. Phys. 103, 4572 (1995)
                  K. A. Peterson, T. H. Dunning, Jr., J. Chem. Phys. 117, 10548 (2002)
         Al-Ar : Obtained from the EMSL Basis Set Exchange (bse.pnl.gov) Feb. 2017
                 K. A. Peterson, T. H. Dunning, Jr., J. Chem. Phys. 117, 10548 (2002)
            Ca : Obtained from the Peterson Research Group Website (tyr0.chem.wsu.edu/~kipeters) Feb. 2017
                 J. Koput, K. A. Peterson, J. Phys. Chem. 106, 9595 (2002)
         Ga-Kr : Obtained from the Peterson Research Group Website (tyr0.chem.wsu.edu/~kipeters) Feb. 2017
                 N. J. DeYonker, K. A. Peterson, A. K. Wilson, J. Phys. Chem. A 111, 11383 (2007)

================================================================================
                                        WARNINGS
                       Please study these warnings very carefully!
================================================================================


INFO   : the flag for use of LIBINT has been found!

================================================================================
                                       INPUT FILE
================================================================================
NAME = Ar_cc-pcvtz_548.143956_.inp
|  1> ! LDA cc-pcvtz nori grid5 finalgrid6 verytightscf
|  2> %Pal NProcs 18 End
|  3> 
|  4> % REL
|  5>   Method ZORA
|  6>   ModelPot 1, 0, 0, 0
|  7>   velit 548.143956
|  8> END
|  9> 
| 10> *xyz 16 1
| 11> Ar 0.0 0.0 0.0
| 12> **                         ****END OF INPUT****
================================================================================

                       ****************************
                       * Single Point Calculation *
                       ****************************

---------------------------------
CARTESIAN COORDINATES (ANGSTROEM)
---------------------------------
  Ar     0.000000    0.000000    0.000000

----------------------------
CARTESIAN COORDINATES (A.U.)
----------------------------
  NO LB      ZA    FRAG     MASS         X           Y           Z
   0 Ar   18.0000    0    39.948    0.000000    0.000000    0.000000

--------------------------------
INTERNAL COORDINATES (ANGSTROEM)
--------------------------------
 Ar     0   0   0     0.000000000000     0.00000000     0.00000000

---------------------------
INTERNAL COORDINATES (A.U.)
---------------------------
 Ar     0   0   0     0.000000000000     0.00000000     0.00000000

---------------------
BASIS SET INFORMATION
---------------------
There are 1 groups of distinct atoms

 Group   1 Type Ar  : 43s18p4d2f contracted to 7s6p4d2f pattern {1313131111/771111/1111/11}

Atom   0Ar   basis set group =>   1


           ************************************************************
           *        Program running with 18 parallel MPI-processes    *
           *              working on a common directory               *
           ************************************************************
------------------------------------------------------------------------------
                           ORCA GTO INTEGRAL CALCULATION
------------------------------------------------------------------------------

                         BASIS SET STATISTICS AND STARTUP INFO

 # of primitive gaussian shells          ...   67
 # of primitive gaussian functions       ...  131
 # of contracted shells                  ...   19
 # of contracted basis functions         ...   59
 Highest angular momentum                ...    3
 Maximum contraction depth               ...   13
 Integral package used                   ... LIBINT
 Integral threshhold            Thresh   ...  1.000e-12
 Primitive cut-off              TCut     ...  1.000e-14


------------------------------ INTEGRAL EVALUATION ----------------------------


 * One electron integrals 
 Pre-screening matrix                    ... done
 Shell pair data                         ... done (   0.000 sec)



           ************************************************************
           *        Program running with 18 parallel MPI-processes    *
           *              working on a common directory               *
           ************************************************************
------------------------------------------------------------------------------
                          ORCA RELATIVISTIC HAMILTONIAN
------------------------------------------------------------------------------

Relativistic Method            ... ZORA(MP)
Treatment of potential         ... Van Wuellen
Nucleus model                  ... Point Nucleus
Speed of light used            ... 548.14395600000000


            *************************************************
            *         ZERO ORDER REGULAR APPROXIMATION      *
            *                     ZORA(MP)                  *
            *            Programmed by FN according to      *
            *                   C. van Wuellen              *
            *       J. Chem. Phys. (1998) vol 109, 392-399  *
            *************************************************

Terms included in model potential: +V(e,N)
Basis function cutoff value   ... 1.000000e-12
Loading the fitted atomic densities  (DKH4)  ... done
Calculating the cutoffs                      ... done
Number of fit functions                      ... 15
Setting up the integration grid ... done


           ************************************************************
           *        Program running with 18 parallel MPI-processes    *
           *              working on a common directory               *
           ************************************************************
-------------------------------------------------------------------------------
                                 ORCA SCF
-------------------------------------------------------------------------------

------------
SCF SETTINGS
------------
Hamiltonian:
 Density Functional     Method          .... DFT(GTOs)
 Exchange Functional    Exchange        .... Slater
   X-Alpha parameter    XAlpha          ....  0.666667
 Correlation Functional Correlation     .... VWN-5
 Gradients option       PostSCFGGA      .... off
   Density functional embedding theory  .... OFF

Relativistic Settings:
 Scalar relativistic method             .... ZORA
 Speed of light used       Velit        ....       548.143956
Orbital energies will be scaled


General Settings:
 Integral files         IntName         .... Ar_cc-pcvtz_548.143956_
 Hartree-Fock type      HFTyp           .... RHF
 Total Charge           Charge          ....   16
 Multiplicity           Mult            ....    1
 Number of Electrons    NEL             ....    2
 Basis Dimension        Dim             ....   59
 Nuclear Repulsion      ENuc            ....      0.0000000000 Eh

Convergence Acceleration:
 DIIS                   CNVDIIS         .... on
   Start iteration      DIISMaxIt       ....    12
   Startup error        DIISStart       ....  0.200000
   # of expansion vecs  DIISMaxEq       ....     5
   Bias factor          DIISBfac        ....   1.050
   Max. coefficient     DIISMaxC        ....  10.000
 Newton-Raphson         CNVNR           .... off
 SOSCF                  CNVSOSCF        .... on
   Start iteration      SOSCFMaxIt      ....   150
   Startup grad/error   SOSCFStart      ....  0.003300
 Level Shifting         CNVShift        .... on
   Level shift para.    LevelShift      ....    0.2500
   Turn off err/grad.   ShiftErr        ....    0.0010
 Zerner damping         CNVZerner       .... off
 Static damping         CNVDamp         .... on
   Fraction old density DampFac         ....    0.7000
   Max. Damping (<1)    DampMax         ....    0.9800
   Min. Damping (>=0)   DampMin         ....    0.0000
   Turn off err/grad.   DampErr         ....    0.1000
 Fernandez-Rico         CNVRico         .... off

SCF Procedure:
 Maximum # iterations   MaxIter         ....   125
 SCF integral mode      SCFMode         .... Direct
   Integral package                     .... LIBINT
 Reset frequency        DirectResetFreq ....    20
 Integral Threshold     Thresh          ....  1.000e-12 Eh
 Primitive CutOff       TCut            ....  1.000e-14 Eh

Convergence Tolerance:
 Convergence Check Mode ConvCheckMode   .... Total+1el-Energy
 Convergence forced     ConvForced      .... 0
 Energy Change          TolE            ....  1.000e-09 Eh
 1-El. energy change                    ....  1.000e-06 Eh
 Orbital Gradient       TolG            ....  2.000e-06
 Orbital Rotation angle TolX            ....  2.000e-06
 DIIS Error             TolErr          ....  1.000e-08


Diagonalization of the overlap matrix:
Smallest eigenvalue                        ... 2.200e-03
Time for diagonalization                   ...    0.002 sec
Threshold for overlap eigenvalues          ... 1.000e-08
Number of eigenvalues below threshold      ... 0
Time for construction of square roots      ...    0.001 sec
Total time needed                          ...    0.003 sec

-------------------
DFT GRID GENERATION
-------------------

General Integration Accuracy     IntAcc      ...  5.010
Radial Grid Type                 RadialGrid  ... Gauss-Chebyshev
Angular Grid (max. acc.)         AngularGrid ... Lebedev-434
Angular grid pruning method      GridPruning ... 3 (G Style)
Weight generation scheme         WeightScheme... Becke
Basis function cutoff            BFCut       ...    1.0000e-12
Integration weight cutoff        WCut        ...    1.0000e-14
Grids for H and He will be reduced by one unit

# of grid points (after initial pruning)     ...  11992 (   0.0 sec)
# of grid points (after weights+screening)   ...  11992 (   0.0 sec)
Grid point division into batches done        ...    0.1 sec
Reduced shell lists constructed in    0.1 sec

Total number of grid points                  ...    11992
Total number of batches                      ...      188
Average number of points per batch           ...       63
Average number of grid points per atom       ...    11992
Average number of shells per batch           ...     0.00 ( 0.00%)
Average number of basis functions per batch  ...     0.00 ( 0.00%)
Average number of large shells per batch     ...     0.00 ( -nan%)
Average number of large basis fcns per batch ...     0.00 ( -nan%)
Maximum spatial batch extension              ...  18.71, 18.71, 18.71 au
Average spatial batch extension              ...   0.97,  0.98,  0.97 au

Time for grid setup =    0.148 sec

------------------------------
INITIAL GUESS: MODEL POTENTIAL
------------------------------
Loading ZORA relativistic densities                ... done
Calculating cut-offs                               ... done
Setting up the integral package                    ... done
Initializing the effective Hamiltonian             ... done
Starting the Coulomb interaction                   ... done (   0.0 sec)
Reading the grid                                   ... done
Mapping shells                                     ... done
Starting the XC term evaluation                    ... done (   0.0 sec)
  promolecular density results
     # of electrons  =     18.000000116
     EX              =    -28.047870263
     EC              =     -1.433252902
     EX+EC           =    -29.481123164
Transforming the Hamiltonian                       ... done (   0.0 sec)
Diagonalizing the Hamiltonian                      ... done (   0.0 sec)
Back transforming the eigenvectors                 ... done (   0.0 sec)
Now organizing SCF variables                       ... done
                      ------------------
                      INITIAL GUESS DONE (   0.2 sec)
                      ------------------
--------------
SCF ITERATIONS
--------------
ITER       Energy         Delta-E        Max-DP      RMS-DP      [F,P]     Damp
               ***  Starting incremental Fock matrix formation  ***
  0   -311.6663976322   0.000000000000 0.01332506  0.00027855  2.0953506 0.7000
  1   -311.6770684653  -0.010670833075 0.00905096  0.00019086  1.4528059 0.7000
  2   -311.6844486879  -0.007380222625 0.00613864  0.00013064  1.0065031 0.7000
  3   -311.6895721466  -0.005123458653 0.00416065  0.00008947  0.6973410 0.7000
  4   -311.6931381697  -0.003566023090 0.00281805  0.00006132  0.4831641 0.7000
                      *** Initiating the SOSCF procedure ***
                      *** Re-Reading the Fockian *** 
                      *** Removing any level shift *** 
ITER      Energy       Delta-E        Grad      Rot      Max-DP    RMS-DP
  5   -311.69562464  -0.0024864688  0.002602  0.002602  0.006358  0.000140
               *** Restarting incremental Fock matrix formation ***
  6   -311.70139606  -0.0057714257  0.005995  0.000028  0.000502  0.000012
  7   -311.70139665  -0.0000005809  0.000166  0.000001  0.000013  0.000000
                 **** Energy Check signals convergence ****
              ***Rediagonalizing the Fockian in SOSCF/NRSCF***

               *****************************************************
               *                     SUCCESS                       *
               *           SCF CONVERGED AFTER   8 CYCLES          *
               *****************************************************

Setting up the final grid:

General Integration Accuracy     IntAcc      ...  5.340
Radial Grid Type                 RadialGrid  ... Gauss-Chebyshev
Angular Grid (max. acc.)         AngularGrid ... Lebedev-590
Angular grid pruning method      GridPruning ... 3 (G Style)
Weight generation scheme         WeightScheme... Becke
Basis function cutoff            BFCut       ...    1.0000e-12
Integration weight cutoff        WCut        ...    1.0000e-14
Grids for H and He will be reduced by one unit

# of grid points (after initial pruning)     ...  18110 (   0.0 sec)
# of grid points (after weights+screening)   ...  18110 (   0.0 sec)
Grid point division into batches done        ...    0.2 sec
Reduced shell lists constructed in    0.2 sec

Total number of grid points                  ...    18110
Total number of batches                      ...      283
Average number of points per batch           ...       63
Average number of grid points per atom       ...    18110
Average number of shells per batch           ...     0.00 ( 0.00%)
Average number of basis functions per batch  ...     0.00 ( 0.00%)
Average number of large shells per batch     ...     0.00 ( -nan%)
Average number of large basis fcns per batch ...     0.00 ( -nan%)
Maximum spatial batch extension              ...  19.03, 19.03, 19.03 au
Average spatial batch extension              ...   0.84,  0.84,  0.80 au

Final grid set up in    0.3 sec
Final integration                            ... done (   0.0 sec)
Change in XC energy                          ...     0.000000294
Integrated number of electrons               ...     1.999999988
Previous integrated no of electrons          ...     2.000000025

----------------
TOTAL SCF ENERGY
----------------

Total Energy       :         -311.70139635 Eh           -8481.82620 eV

Components:
Nuclear Repulsion  :            0.00000000 Eh               0.00000 eV
Electronic Energy  :         -311.70139635 Eh           -8481.82620 eV
One Electron Energy:         -324.02707416 Eh           -8817.22495 eV
Two Electron Energy:           12.32567781 Eh             335.39874 eV

Virial components:
Potential Energy   :         -623.31394173 Eh          -16961.23465 eV
Kinetic Energy     :          311.61254538 Eh            8479.40844 eV
Virial Ratio       :            2.00028513


DFT components:
N(Alpha)           :        0.999999993817 electrons
N(Beta)            :        0.999999993817 electrons
N(Total)           :        1.999999987633 electrons
E(X)               :       -9.440906914225 Eh       
E(C)               :       -0.236942422061 Eh       
E(XC)              :       -9.677849336285 Eh       
DFET-embed. en.    :        0.000000000000 Eh       

---------------
SCF CONVERGENCE
---------------

  Last Energy change         ...   -4.5486e-10  Tolerance :   1.0000e-09
  Last MAX-Density change    ...    1.9814e-10  Tolerance :   1.0000e-08
  Last RMS-Density change    ...    5.6535e-12  Tolerance :   1.0000e-09
  Last Orbital Gradient      ...    1.7120e-09  Tolerance :   2.0000e-06
  Last Orbital Rotation      ...    1.0912e-11  Tolerance :   2.0000e-06

================================================================================
                                        WARNING
Number of found core electrons (2) does not match given number of chemical core electrons (10)
================================================================================
             **** THE GBW FILE WAS UPDATED (Ar_cc-pcvtz_548.143956_.gbw) ****
             **** DENSITY FILE WAS UPDATED (Ar_cc-pcvtz_548.143956_.scfp) ****
             **** ENERGY FILE WAS UPDATED (Ar_cc-pcvtz_548.143956_.en.tmp) ****
             **** THE GBW FILE WAS UPDATED (Ar_cc-pcvtz_548.143956_.gbw) ****
             **** DENSITY FILE WAS UPDATED (Ar_cc-pcvtz_548.143956_.scfp) ****
----------------
ORBITAL ENERGIES
----------------

  NO   OCC          E(Eh)            E(eV) 
   0   2.0000    -146.431970     -3984.6165 
   1   0.0000     -34.121135      -928.4833 
   2   0.0000     -33.266861      -905.2373 
   3   0.0000     -33.266861      -905.2373 
   4   0.0000     -33.266861      -905.2373 
   5   0.0000     -14.718104      -400.5000 
   6   0.0000     -14.416205      -392.2849 
   7   0.0000     -14.416205      -392.2849 
   8   0.0000     -14.416205      -392.2849 
   9   0.0000     -13.743351      -373.9756 
  10   0.0000     -13.743351      -373.9756 
  11   0.0000     -13.743351      -373.9756 
  12   0.0000     -13.743351      -373.9756 
  13   0.0000     -13.743351      -373.9756 
  14   0.0000      -8.105289      -220.5561 
  15   0.0000      -7.884834      -214.5572 
  16   0.0000      -7.884834      -214.5572 
  17   0.0000      -7.884834      -214.5572 
  18   0.0000      -7.766284      -211.3313 
  19   0.0000      -7.766284      -211.3313 
  20   0.0000      -7.766284      -211.3313 
  21   0.0000      -7.766284      -211.3313 
  22   0.0000      -7.766284      -211.3313 
  23   0.0000      -7.022566      -191.0937 
  24   0.0000      -7.022566      -191.0937 
  25   0.0000      -7.022566      -191.0937 
  26   0.0000      -7.022566      -191.0937 
  27   0.0000      -7.022566      -191.0937 
  28   0.0000      -7.022566      -191.0937 
  29   0.0000      -7.022566      -191.0937 
  30   0.0000      -5.066316      -137.8615 
  31   0.0000      -5.066316      -137.8615 
  32   0.0000      -5.066316      -137.8615 
  33   0.0000      -5.066316      -137.8615 
  34   0.0000      -5.066316      -137.8615 
  35   0.0000      -5.024819      -136.7323 
  36   0.0000      -4.733496      -128.8050 
  37   0.0000      -4.733495      -128.8050 
  38   0.0000      -4.733495      -128.8050 
  39   0.0000      -2.959875       -80.5423 
  40   0.0000      -2.959875       -80.5423 
  41   0.0000      -2.959875       -80.5423 
  42   0.0000       1.203488        32.7486 
  43   0.0000      18.157712       494.0965 
  44   0.0000      18.157712       494.0965 
  45   0.0000      18.157712       494.0965 
  46   0.0000      18.157712       494.0965 
  47   0.0000      18.157712       494.0965 
  48   0.0000      18.157712       494.0965 
  49   0.0000      18.157712       494.0965 
  50   0.0000      26.721376       727.1256 
  51   0.0000      26.721376       727.1256 
  52   0.0000      26.721376       727.1256 
  53   0.0000      26.721376       727.1256 
  54   0.0000      26.721376       727.1256 
  55   0.0000      35.707495       971.6503 
  56   0.0000      35.707495       971.6503 
  57   0.0000      35.707495       971.6503 
  58   0.0000      92.075085      2505.4904 

                    ********************************
                    * MULLIKEN POPULATION ANALYSIS *
                    ********************************

-----------------------
MULLIKEN ATOMIC CHARGES
-----------------------
   0 Ar:   16.000000
Sum of atomic charges:   16.0000000

--------------------------------
MULLIKEN REDUCED ORBITAL CHARGES
--------------------------------
  0 Ars       :     2.000000  s :     2.000000
      pz      :     0.000000  p :     0.000000
      px      :     0.000000
      py      :     0.000000
      dz2     :     0.000000  d :     0.000000
      dxz     :     0.000000
      dyz     :     0.000000
      dx2y2   :     0.000000
      dxy     :     0.000000
      f0      :     0.000000  f :     0.000000
      f+1     :     0.000000
      f-1     :     0.000000
      f+2     :     0.000000
      f-2     :     0.000000
      f+3     :     0.000000
      f-3     :     0.000000


                     *******************************
                     * LOEWDIN POPULATION ANALYSIS *
                     *******************************

----------------------
LOEWDIN ATOMIC CHARGES
----------------------
   0 Ar:   16.000000

-------------------------------
LOEWDIN REDUCED ORBITAL CHARGES
-------------------------------
  0 Ars       :     2.000000  s :     2.000000
      pz      :     0.000000  p :     0.000000
      px      :     0.000000
      py      :     0.000000
      dz2     :     0.000000  d :     0.000000
      dxz     :     0.000000
      dyz     :     0.000000
      dx2y2   :     0.000000
      dxy     :     0.000000
      f0      :     0.000000  f :     0.000000
      f+1     :     0.000000
      f-1     :     0.000000
      f+2     :     0.000000
      f-2     :     0.000000
      f+3     :     0.000000
      f-3     :     0.000000


                      *****************************
                      * MAYER POPULATION ANALYSIS *
                      *****************************

  NA   - Mulliken gross atomic population
  ZA   - Total nuclear charge
  QA   - Mulliken gross atomic charge
  VA   - Mayer's total valence
  BVA  - Mayer's bonded valence
  FA   - Mayer's free valence

  ATOM       NA         ZA         QA         VA         BVA        FA
  0 Ar     2.0000    18.0000    16.0000     0.0000     0.0000     0.0000

  Mayer bond orders larger than 0.100000


--------------------------
ATOM BASIS FOR ELEMENT Ar
--------------------------
 NewGTO Ar
 S 43
    1     545000.000000000000         0.000045786401
    2      81640.000000000000         0.000355689667
    3      18580.000000000000         0.001866268852
    4       5261.000000000000         0.007803209008
    5       1717.000000000000         0.027545689106
    6        619.900000000000         0.082751576513
    7        241.600000000000         0.202128818622
    8         99.790000000000         0.358374606354
    9         43.150000000000         0.351124366267
   10         19.140000000000         0.118794249680
   11          7.488000000000         0.005626921577
   12          3.205000000000         0.000485632492
   13          0.520400000000         0.000029332937
   14     545000.000000000000         0.000000108375
   15      81640.000000000000         0.000000840120
   16      18580.000000000000         0.000004430171
   17       5261.000000000000         0.000018520649
   18       1717.000000000000         0.000066659227
   19        619.900000000000         0.000205623905
   20        241.600000000000         0.000550273974
   21         99.790000000000         0.001153939241
   22         43.150000000000         0.001686714483
   23         19.140000000000         0.000345351925
   24          7.488000000000        -0.004054539382
   25          3.205000000000        -0.004845437235
   26          0.520400000000         0.000060862678
   27     545000.000000000000        -0.000000001683
   28      81640.000000000000        -0.000000013036
   29      18580.000000000000        -0.000000068836
   30       5261.000000000000        -0.000000287427
   31       1717.000000000000        -0.000001038026
   32        619.900000000000        -0.000003204272
   33        241.600000000000        -0.000008673310
   34         99.790000000000        -0.000018449391
   35         43.150000000000        -0.000028267361
   36         19.140000000000        -0.000005873935
   37          7.488000000000         0.000086224043
   38          3.205000000000         0.000176631525
   39          0.520400000000        -0.000304865734
   40          1.196000000000         0.000415859608
   41          0.195400000000         0.000054298516
   42         17.362000000000        -0.008231227686
   43          3.378000000000         0.004049360274
 S 43
    1     545000.000000000000        -0.000004441583
    2      81640.000000000000        -0.000034504245
    3      18580.000000000000        -0.000181040394
    4       5261.000000000000        -0.000756962765
    5       1717.000000000000        -0.002672113608
    6        619.900000000000        -0.008027448973
    7        241.600000000000        -0.019607829189
    8         99.790000000000        -0.034764701615
    9         43.150000000000        -0.034061380484
   10         19.140000000000        -0.011523826104
   11          7.488000000000        -0.000545848523
   12          3.205000000000        -0.000047109556
   13          0.520400000000        -0.000002845488
   14     545000.000000000000         0.000019783546
   15      81640.000000000000         0.000153362148
   16      18580.000000000000         0.000808718550
   17       5261.000000000000         0.003380906338
   18       1717.000000000000         0.012168504900
   19        619.900000000000         0.037536221097
   20        241.600000000000         0.100451382469
   21         99.790000000000         0.210649235791
   22         43.150000000000         0.307906260694
   23         19.140000000000         0.063043283850
   24          7.488000000000        -0.740147827372
   25          3.205000000000        -0.884524604195
   26          0.520400000000         0.011110356777
   27     545000.000000000000        -0.000000290314
   28      81640.000000000000        -0.000002248667
   29      18580.000000000000        -0.000011874192
   30       5261.000000000000        -0.000049581201
   31       1717.000000000000        -0.000179059834
   32        619.900000000000        -0.000552737829
   33        241.600000000000        -0.001496148530
   34         99.790000000000        -0.003182525284
   35         43.150000000000        -0.004876127801
   36         19.140000000000        -0.001013255434
   37          7.488000000000         0.014873672220
   38          3.205000000000         0.030468988760
   39          0.520400000000        -0.052589426572
   40          1.196000000000         0.083230092359
   41          0.195400000000         0.010358637691
   42         17.362000000000        -0.116413807488
   43          3.378000000000         0.442241967213
 S 43
    1     545000.000000000000        -0.000012924780
    2      81640.000000000000        -0.000100405589
    3      18580.000000000000        -0.000526818295
    4       5261.000000000000        -0.002202722969
    5       1717.000000000000        -0.007775714072
    6        619.900000000000        -0.023359466358
    7        241.600000000000        -0.057057781103
    8         99.790000000000        -0.101163505440
    9         43.150000000000        -0.099116876885
   10         19.140000000000        -0.033533745167
   11          7.488000000000        -0.001588391313
   12          3.205000000000        -0.000137086402
   13          0.520400000000        -0.000008280226
   14     545000.000000000000         0.000020849245
   15      81640.000000000000         0.000161623453
   16      18580.000000000000         0.000852282561
   17       5261.000000000000         0.003563028833
   18       1717.000000000000         0.012823997320
   19        619.900000000000         0.039558220397
   20        241.600000000000         0.105862492569
   21         99.790000000000         0.221996478401
   22         43.150000000000         0.324492539908
   23         19.140000000000         0.066439296345
   24          7.488000000000        -0.780018073911
   25          3.205000000000        -0.932172131805
   26          0.520400000000         0.011708848926
   27     545000.000000000000        -0.000001650808
   28      81640.000000000000        -0.000012786579
   29      18580.000000000000        -0.000067520131
   30       5261.000000000000        -0.000281933213
   31       1717.000000000000        -0.001018186588
   32        619.900000000000        -0.003143028966
   33        241.600000000000        -0.008507538156
   34         99.790000000000        -0.018096769634
   35         43.150000000000        -0.027727088909
   36         19.140000000000        -0.005761666771
   37          7.488000000000         0.084576050694
   38          3.205000000000         0.173255582066
   39          0.520400000000        -0.299038861542
   40          1.196000000000         1.606377517870
   41          0.195400000000         0.074676926324
   42         17.362000000000        -0.201542501723
   43          3.378000000000         0.457762350246
 S 43
    1     545000.000000000000        -0.000015133417
    2      81640.000000000000        -0.000117563296
    3      18580.000000000000        -0.000616843100
    4       5261.000000000000        -0.002579133028
    5       1717.000000000000        -0.009104459008
    6        619.900000000000        -0.027351224843
    7        241.600000000000        -0.066808041591
    8         99.790000000000        -0.118450727461
    9         43.150000000000        -0.116054362882
   10         19.140000000000        -0.039264124866
   11          7.488000000000        -0.001859821936
   12          3.205000000000        -0.000160512271
   13          0.520400000000        -0.000009695184
   14     545000.000000000000         0.000032041673
   15      81640.000000000000         0.000248387208
   16      18580.000000000000         0.001309810441
   17       5261.000000000000         0.005475757199
   18       1717.000000000000         0.019708259160
   19        619.900000000000         0.060794122149
   20        241.600000000000         0.162692285942
   21         99.790000000000         0.341170075120
   22         43.150000000000         0.498688740532
   23         19.140000000000         0.102105672523
   24          7.488000000000        -1.198752461246
   25          3.205000000000        -1.432586852382
   26          0.520400000000         0.017994469535
   27     545000.000000000000        -0.000014012149
   28      81640.000000000000        -0.000108533176
   29      18580.000000000000        -0.000573114516
   30       5261.000000000000        -0.002393064318
   31       1717.000000000000        -0.008642422687
   32        619.900000000000        -0.026678199411
   33        241.600000000000        -0.072212442798
   34         99.790000000000        -0.153606356866
   35         43.150000000000        -0.235349026371
   36         19.140000000000        -0.048905338355
   37          7.488000000000         0.717886080653
   38          3.205000000000         1.470602726657
   39          0.520400000000        -2.538257988094
   40          1.196000000000         2.439804600235
   41          0.195400000000         0.129902925152
   42         17.362000000000        -0.208472619293
   43          3.378000000000        -0.096031583162
 S 43
    1     545000.000000000000        -0.000014032472
    2      81640.000000000000        -0.000109010650
    3      18580.000000000000        -0.000571968205
    4       5261.000000000000        -0.002391502944
    5       1717.000000000000        -0.008442116123
    6        619.900000000000        -0.025361442786
    7        241.600000000000        -0.061947804318
    8         99.790000000000        -0.109833521703
    9         43.150000000000        -0.107611490934
   10         19.140000000000        -0.036407687847
   11          7.488000000000        -0.001724521220
   12          3.205000000000        -0.000148835118
   13          0.520400000000        -0.000008989866
   14     545000.000000000000         0.000035452012
   15      81640.000000000000         0.000274824175
   16      18580.000000000000         0.001449219453
   17       5261.000000000000         0.006058566647
   18       1717.000000000000         0.021805897757
   19        619.900000000000         0.067264713795
   20        241.600000000000         0.180008357120
   21         99.790000000000         0.377482339530
   22         43.150000000000         0.551766424435
   23         19.140000000000         0.112973238142
   24          7.488000000000        -1.326341073229
   25          3.205000000000        -1.585063509532
   26          0.520400000000         0.019909701800
   27     545000.000000000000        -0.000020230289
   28      81640.000000000000        -0.000156696698
   29      18580.000000000000        -0.000827444242
   30       5261.000000000000        -0.003455029032
   31       1717.000000000000        -0.012477650961
   32        619.900000000000        -0.038517123331
   33        241.600000000000        -0.104257994421
   34         99.790000000000        -0.221771900749
   35         43.150000000000        -0.339789328923
   36         19.140000000000        -0.070607949210
   37          7.488000000000         1.036460755116
   38          3.205000000000         2.123208756408
   39          0.520400000000        -3.664654966739
   40          1.196000000000         1.877271426478
   41          0.195400000000         2.427632845328
   42         17.362000000000        -0.176497130701
   43          3.378000000000        -0.419783015547
 S 43
    1     545000.000000000000        -0.000055562957
    2      81640.000000000000        -0.000431638418
    3      18580.000000000000        -0.002264764510
    4       5261.000000000000        -0.009469391724
    5       1717.000000000000        -0.033427391240
    6        619.900000000000        -0.100421133526
    7        241.600000000000        -0.245288439684
    8         99.790000000000        -0.434896659538
    9         43.150000000000        -0.426098309602
   10         19.140000000000        -0.144159830083
   11          7.488000000000        -0.006828411819
   12          3.205000000000        -0.000589327326
   13          0.520400000000        -0.000035596261
   14     545000.000000000000         0.000037725789
   15      81640.000000000000         0.000292450502
   16      18580.000000000000         0.001542167667
   17       5261.000000000000         0.006447143370
   18       1717.000000000000         0.023204456985
   19        619.900000000000         0.071578853358
   20        241.600000000000         0.191553506593
   21         99.790000000000         0.401692826771
   22         43.150000000000         0.587154924982
   23         19.140000000000         0.120218973516
   24          7.488000000000        -1.411408267819
   25          3.205000000000        -1.686724318147
   26          0.520400000000         0.021186645198
   27     545000.000000000000         0.000020457652
   28      81640.000000000000         0.000158457775
   29      18580.000000000000         0.000836743695
   30       5261.000000000000         0.003493859300
   31       1717.000000000000         0.012617884380
   32        619.900000000000         0.038950008329
   33        241.600000000000         0.105429725791
   34         99.790000000000         0.224264343604
   35         43.150000000000         0.343608142226
   36         19.140000000000         0.071401495542
   37          7.488000000000        -1.048109296678
   38          3.205000000000        -2.147071006206
   39          0.520400000000         3.705841172275
   40          1.196000000000        -5.333666095555
   41          0.195400000000        -1.134704330732
   42         17.362000000000        -0.878779597205
   43          3.378000000000         9.085374913134
 S 43
    1     545000.000000000000         0.000278564628
    2      81640.000000000000         0.002164017200
    3      18580.000000000000         0.011354386340
    4       5261.000000000000         0.047474751381
    5       1717.000000000000         0.167588070567
    6        619.900000000000         0.503460886050
    7        241.600000000000         1.229752451943
    8         99.790000000000         2.180352380642
    9         43.150000000000         2.136241894143
   10         19.140000000000         0.722744637884
   11          7.488000000000         0.034234210906
   12          3.205000000000         0.002954589809
   13          0.520400000000         0.000178461690
   14     545000.000000000000        -0.000157848501
   15      81640.000000000000        -0.001223642369
   16      18580.000000000000        -0.006452584903
   17       5261.000000000000        -0.026975497463
   18       1717.000000000000        -0.097089786065
   19        619.900000000000        -0.299493134600
   20        241.600000000000        -0.801479172156
   21         99.790000000000        -1.680723261025
   22         43.150000000000        -2.456715366751
   23         19.140000000000        -0.503008298228
   24          7.488000000000         5.905474403397
   25          3.205000000000         7.057424498294
   26          0.520400000000        -0.088647058237
   27     545000.000000000000        -0.000008045934
   28      81640.000000000000        -0.000062320974
   29      18580.000000000000        -0.000329088819
   30       5261.000000000000        -0.001374124524
   31       1717.000000000000        -0.004962576588
   32        619.900000000000        -0.015318923015
   33        241.600000000000        -0.041465199167
   34         99.790000000000        -0.088202502698
   35         43.150000000000        -0.135140065535
   36         19.140000000000        -0.028081996906
   37          7.488000000000         0.412218284827
   38          3.205000000000         0.844436673146
   39          0.520400000000        -1.457496366761
   40          1.196000000000         2.720137792888
   41          0.195400000000         0.409296352515
   42         17.362000000000        -3.242138762529
   43          3.378000000000       -13.111759240955
 P 18
    1        761.800000000000         0.003395608216
    2        180.200000000000         0.027253447057
    3         57.500000000000         0.126210058635
    4         21.240000000000         0.367360343442
    5          8.388000000000         0.628625124842
    6          3.416000000000         0.498028556421
    7          0.452300000000        -0.007506659000
    8        761.800000000000        -0.000042550246
    9        180.200000000000        -0.000339731201
   10         57.500000000000        -0.001629369505
   11         21.240000000000        -0.004828895007
   12          8.388000000000        -0.009000516894
   13          3.416000000000        -0.005948569181
   14          0.452300000000         0.035869291568
   15          1.206000000000        -0.067923455314
   16          0.154500000000        -0.008183943164
   17         11.019000000000        -0.024414297295
   18          4.307000000000        -0.391143091711
 P 18
    1        761.800000000000         0.002265661458
    2        180.200000000000         0.018184396044
    3         57.500000000000         0.084211501251
    4         21.240000000000         0.245114900951
    5          8.388000000000         0.419439354197
    6          3.416000000000         0.332301029377
    7          0.452300000000        -0.005008689724
    8        761.800000000000        -0.000230194035
    9        180.200000000000        -0.001837923472
   10         57.500000000000        -0.008814781950
   11         21.240000000000        -0.026124004665
   12          8.388000000000        -0.048692204940
   13          3.416000000000        -0.032181368367
   14          0.452300000000         0.194050510287
   15          1.206000000000        -0.889686331971
   16          0.154500000000        -0.053606137564
   17         11.019000000000         0.142834032049
   18          4.307000000000        -0.868583646674
 P 18
    1        761.800000000000         0.002914462094
    2        180.200000000000         0.023391726414
    3         57.500000000000         0.108326523104
    4         21.240000000000         0.315306633734
    5          8.388000000000         0.539551085285
    6          3.416000000000         0.427459605894
    7          0.452300000000        -0.006442990982
    8        761.800000000000        -0.001504185136
    9        180.200000000000        -0.012009768922
   10         57.500000000000        -0.057599511579
   11         21.240000000000        -0.170705290024
   12          8.388000000000        -0.318175450998
   13          3.416000000000        -0.210286665114
   14          0.452300000000         1.268008066246
   15          1.206000000000        -0.294538855314
   16          0.154500000000        -0.161079769036
   17         11.019000000000         0.203414846201
   18          4.307000000000        -1.003149164311
 P 18
    1        761.800000000000         0.001596339388
    2        180.200000000000         0.012812358856
    3         57.500000000000         0.059333726083
    4         21.240000000000         0.172703017710
    5          8.388000000000         0.295528513099
    6          3.416000000000         0.234132606133
    7          0.452300000000        -0.003529021805
    8        761.800000000000        -0.000450176470
    9        180.200000000000        -0.003594315118
   10         57.500000000000        -0.017238532780
   11         21.240000000000        -0.051089126576
   12          8.388000000000        -0.095224382836
   13          3.416000000000        -0.062935144246
   14          0.452300000000         0.379492777209
   15          1.206000000000         0.610816014944
   16          0.154500000000        -1.151144594395
   17         11.019000000000         0.200497341908
   18          4.307000000000        -1.094063685024
 P 18
    1        761.800000000000        -0.000783602648
    2        180.200000000000        -0.006289263052
    3         57.500000000000        -0.029125426113
    4         21.240000000000        -0.084775545275
    5          8.388000000000        -0.145067475800
    6          3.416000000000        -0.114929777225
    7          0.452300000000         0.001732307586
    8        761.800000000000         0.002582892658
    9        180.200000000000         0.020622424212
   10         57.500000000000         0.098906279539
   11         21.240000000000         0.293124449685
   12          8.388000000000         0.546350988677
   13          3.416000000000         0.361091111935
   14          0.452300000000        -2.177344161760
   15          1.206000000000         2.194605348632
   16          0.154500000000         1.147098749139
   17         11.019000000000         0.289300889801
   18          4.307000000000        -2.014916549017
 P 18
    1        761.800000000000        -0.015081966261
    2        180.200000000000        -0.121049173792
    3         57.500000000000        -0.560575815961
    4         21.240000000000        -1.631671251120
    5          8.388000000000        -2.792107428709
    6          3.416000000000        -2.212048448498
    7          0.452300000000         0.033341649149
    8        761.800000000000         0.000681186964
    9        180.200000000000         0.005438757393
   10         57.500000000000         0.026084579270
   11         21.240000000000         0.077305788665
   12          8.388000000000         0.144089290788
   13          3.416000000000         0.095230654482
   14          0.452300000000        -0.574231551826
   15          1.206000000000         1.051978228045
   16          0.154500000000         0.169363817480
   17         11.019000000000         4.711357223049
   18          4.307000000000         1.163967025335
 D 4
    1          0.410000000000        -0.116971134159
    2          1.254000000000         0.578357376645
    3         20.706000000000         0.068003604155
    4          6.681000000000         0.655255146615
 D 4
    1          0.410000000000        -0.456339599545
    2          1.254000000000        -0.586049058907
    3         20.706000000000         0.076940602017
    4          6.681000000000         0.586081182125
 D 4
    1          0.410000000000         1.166812288559
    2          1.254000000000        -1.032289606480
    3         20.706000000000         0.070114542192
    4          6.681000000000         0.456756932407
 D 4
    1          0.410000000000        -0.134526703827
    2          1.254000000000         0.308731075929
    3         20.706000000000         1.250872378836
    4          6.681000000000        -0.913614747536
 F 2
    1          0.890000000000         0.998792166150
    2         13.674000000000         0.024744053171
 F 2
    1          0.890000000000        -0.061196322682
    2         13.674000000000         1.000359191943
 end
  // -----------------------------------------------
  // The basis set
  // -----------------------------------------------
  BAS[ATNO] = new BFNGauss[NSH];
  // Basis function   1 L = s
  InitBFNGauss(BAS[ATNO][  0]);
  BAS[ATNO][  0].l  = 0;
  BAS[ATNO][  0].ng = 43;
  BAS[ATNO][  0].a[  0] =    545000.000000000000;     BAS[ATNO][  0].d[  0] =         0.000045786401;
  BAS[ATNO][  0].a[  1] =     81640.000000000000;     BAS[ATNO][  0].d[  1] =         0.000355689667;
  BAS[ATNO][  0].a[  2] =     18580.000000000000;     BAS[ATNO][  0].d[  2] =         0.001866268852;
  BAS[ATNO][  0].a[  3] =      5261.000000000000;     BAS[ATNO][  0].d[  3] =         0.007803209008;
  BAS[ATNO][  0].a[  4] =      1717.000000000000;     BAS[ATNO][  0].d[  4] =         0.027545689106;
  BAS[ATNO][  0].a[  5] =       619.900000000000;     BAS[ATNO][  0].d[  5] =         0.082751576513;
  BAS[ATNO][  0].a[  6] =       241.600000000000;     BAS[ATNO][  0].d[  6] =         0.202128818622;
  BAS[ATNO][  0].a[  7] =        99.790000000000;     BAS[ATNO][  0].d[  7] =         0.358374606354;
  BAS[ATNO][  0].a[  8] =        43.150000000000;     BAS[ATNO][  0].d[  8] =         0.351124366267;
  BAS[ATNO][  0].a[  9] =        19.140000000000;     BAS[ATNO][  0].d[  9] =         0.118794249680;
  BAS[ATNO][  0].a[ 10] =         7.488000000000;     BAS[ATNO][  0].d[ 10] =         0.005626921577;
  BAS[ATNO][  0].a[ 11] =         3.205000000000;     BAS[ATNO][  0].d[ 11] =         0.000485632492;
  BAS[ATNO][  0].a[ 12] =         0.520400000000;     BAS[ATNO][  0].d[ 12] =         0.000029332937;
  BAS[ATNO][  0].a[ 13] =    545000.000000000000;     BAS[ATNO][  0].d[ 13] =         0.000000108375;
  BAS[ATNO][  0].a[ 14] =     81640.000000000000;     BAS[ATNO][  0].d[ 14] =         0.000000840120;
  BAS[ATNO][  0].a[ 15] =     18580.000000000000;     BAS[ATNO][  0].d[ 15] =         0.000004430171;
  BAS[ATNO][  0].a[ 16] =      5261.000000000000;     BAS[ATNO][  0].d[ 16] =         0.000018520649;
  BAS[ATNO][  0].a[ 17] =      1717.000000000000;     BAS[ATNO][  0].d[ 17] =         0.000066659227;
  BAS[ATNO][  0].a[ 18] =       619.900000000000;     BAS[ATNO][  0].d[ 18] =         0.000205623905;
  BAS[ATNO][  0].a[ 19] =       241.600000000000;     BAS[ATNO][  0].d[ 19] =         0.000550273974;
  BAS[ATNO][  0].a[ 20] =        99.790000000000;     BAS[ATNO][  0].d[ 20] =         0.001153939241;
  BAS[ATNO][  0].a[ 21] =        43.150000000000;     BAS[ATNO][  0].d[ 21] =         0.001686714483;
  BAS[ATNO][  0].a[ 22] =        19.140000000000;     BAS[ATNO][  0].d[ 22] =         0.000345351925;
  BAS[ATNO][  0].a[ 23] =         7.488000000000;     BAS[ATNO][  0].d[ 23] =        -0.004054539382;
  BAS[ATNO][  0].a[ 24] =         3.205000000000;     BAS[ATNO][  0].d[ 24] =        -0.004845437235;
  BAS[ATNO][  0].a[ 25] =         0.520400000000;     BAS[ATNO][  0].d[ 25] =         0.000060862678;
  BAS[ATNO][  0].a[ 26] =    545000.000000000000;     BAS[ATNO][  0].d[ 26] =        -0.000000001683;
  BAS[ATNO][  0].a[ 27] =     81640.000000000000;     BAS[ATNO][  0].d[ 27] =        -0.000000013036;
  BAS[ATNO][  0].a[ 28] =     18580.000000000000;     BAS[ATNO][  0].d[ 28] =        -0.000000068836;
  BAS[ATNO][  0].a[ 29] =      5261.000000000000;     BAS[ATNO][  0].d[ 29] =        -0.000000287427;
  BAS[ATNO][  0].a[ 30] =      1717.000000000000;     BAS[ATNO][  0].d[ 30] =        -0.000001038026;
  BAS[ATNO][  0].a[ 31] =       619.900000000000;     BAS[ATNO][  0].d[ 31] =        -0.000003204272;
  BAS[ATNO][  0].a[ 32] =       241.600000000000;     BAS[ATNO][  0].d[ 32] =        -0.000008673310;
  BAS[ATNO][  0].a[ 33] =        99.790000000000;     BAS[ATNO][  0].d[ 33] =        -0.000018449391;
  BAS[ATNO][  0].a[ 34] =        43.150000000000;     BAS[ATNO][  0].d[ 34] =        -0.000028267361;
  BAS[ATNO][  0].a[ 35] =        19.140000000000;     BAS[ATNO][  0].d[ 35] =        -0.000005873935;
  BAS[ATNO][  0].a[ 36] =         7.488000000000;     BAS[ATNO][  0].d[ 36] =         0.000086224043;
  BAS[ATNO][  0].a[ 37] =         3.205000000000;     BAS[ATNO][  0].d[ 37] =         0.000176631525;
  BAS[ATNO][  0].a[ 38] =         0.520400000000;     BAS[ATNO][  0].d[ 38] =        -0.000304865734;
  BAS[ATNO][  0].a[ 39] =         1.196000000000;     BAS[ATNO][  0].d[ 39] =         0.000415859608;
  BAS[ATNO][  0].a[ 40] =         0.195400000000;     BAS[ATNO][  0].d[ 40] =         0.000054298516;
  BAS[ATNO][  0].a[ 41] =        17.362000000000;     BAS[ATNO][  0].d[ 41] =        -0.008231227686;
  BAS[ATNO][  0].a[ 42] =         3.378000000000;     BAS[ATNO][  0].d[ 42] =         0.004049360274;

  // Basis function   2 L = s
  InitBFNGauss(BAS[ATNO][  1]);
  BAS[ATNO][  1].l  = 0;
  BAS[ATNO][  1].ng = 43;
  BAS[ATNO][  1].a[  0] =    545000.000000000000;     BAS[ATNO][  1].d[  0] =         0.000004441583;
  BAS[ATNO][  1].a[  1] =     81640.000000000000;     BAS[ATNO][  1].d[  1] =         0.000034504245;
  BAS[ATNO][  1].a[  2] =     18580.000000000000;     BAS[ATNO][  1].d[  2] =         0.000181040394;
  BAS[ATNO][  1].a[  3] =      5261.000000000000;     BAS[ATNO][  1].d[  3] =         0.000756962765;
  BAS[ATNO][  1].a[  4] =      1717.000000000000;     BAS[ATNO][  1].d[  4] =         0.002672113608;
  BAS[ATNO][  1].a[  5] =       619.900000000000;     BAS[ATNO][  1].d[  5] =         0.008027448973;
  BAS[ATNO][  1].a[  6] =       241.600000000000;     BAS[ATNO][  1].d[  6] =         0.019607829189;
  BAS[ATNO][  1].a[  7] =        99.790000000000;     BAS[ATNO][  1].d[  7] =         0.034764701615;
  BAS[ATNO][  1].a[  8] =        43.150000000000;     BAS[ATNO][  1].d[  8] =         0.034061380484;
  BAS[ATNO][  1].a[  9] =        19.140000000000;     BAS[ATNO][  1].d[  9] =         0.011523826104;
  BAS[ATNO][  1].a[ 10] =         7.488000000000;     BAS[ATNO][  1].d[ 10] =         0.000545848523;
  BAS[ATNO][  1].a[ 11] =         3.205000000000;     BAS[ATNO][  1].d[ 11] =         0.000047109556;
  BAS[ATNO][  1].a[ 12] =         0.520400000000;     BAS[ATNO][  1].d[ 12] =         0.000002845488;
  BAS[ATNO][  1].a[ 13] =    545000.000000000000;     BAS[ATNO][  1].d[ 13] =        -0.000019783546;
  BAS[ATNO][  1].a[ 14] =     81640.000000000000;     BAS[ATNO][  1].d[ 14] =        -0.000153362148;
  BAS[ATNO][  1].a[ 15] =     18580.000000000000;     BAS[ATNO][  1].d[ 15] =        -0.000808718550;
  BAS[ATNO][  1].a[ 16] =      5261.000000000000;     BAS[ATNO][  1].d[ 16] =        -0.003380906338;
  BAS[ATNO][  1].a[ 17] =      1717.000000000000;     BAS[ATNO][  1].d[ 17] =        -0.012168504900;
  BAS[ATNO][  1].a[ 18] =       619.900000000000;     BAS[ATNO][  1].d[ 18] =        -0.037536221097;
  BAS[ATNO][  1].a[ 19] =       241.600000000000;     BAS[ATNO][  1].d[ 19] =        -0.100451382469;
  BAS[ATNO][  1].a[ 20] =        99.790000000000;     BAS[ATNO][  1].d[ 20] =        -0.210649235791;
  BAS[ATNO][  1].a[ 21] =        43.150000000000;     BAS[ATNO][  1].d[ 21] =        -0.307906260694;
  BAS[ATNO][  1].a[ 22] =        19.140000000000;     BAS[ATNO][  1].d[ 22] =        -0.063043283850;
  BAS[ATNO][  1].a[ 23] =         7.488000000000;     BAS[ATNO][  1].d[ 23] =         0.740147827372;
  BAS[ATNO][  1].a[ 24] =         3.205000000000;     BAS[ATNO][  1].d[ 24] =         0.884524604195;
  BAS[ATNO][  1].a[ 25] =         0.520400000000;     BAS[ATNO][  1].d[ 25] =        -0.011110356777;
  BAS[ATNO][  1].a[ 26] =    545000.000000000000;     BAS[ATNO][  1].d[ 26] =         0.000000290314;
  BAS[ATNO][  1].a[ 27] =     81640.000000000000;     BAS[ATNO][  1].d[ 27] =         0.000002248667;
  BAS[ATNO][  1].a[ 28] =     18580.000000000000;     BAS[ATNO][  1].d[ 28] =         0.000011874192;
  BAS[ATNO][  1].a[ 29] =      5261.000000000000;     BAS[ATNO][  1].d[ 29] =         0.000049581201;
  BAS[ATNO][  1].a[ 30] =      1717.000000000000;     BAS[ATNO][  1].d[ 30] =         0.000179059834;
  BAS[ATNO][  1].a[ 31] =       619.900000000000;     BAS[ATNO][  1].d[ 31] =         0.000552737829;
  BAS[ATNO][  1].a[ 32] =       241.600000000000;     BAS[ATNO][  1].d[ 32] =         0.001496148530;
  BAS[ATNO][  1].a[ 33] =        99.790000000000;     BAS[ATNO][  1].d[ 33] =         0.003182525284;
  BAS[ATNO][  1].a[ 34] =        43.150000000000;     BAS[ATNO][  1].d[ 34] =         0.004876127801;
  BAS[ATNO][  1].a[ 35] =        19.140000000000;     BAS[ATNO][  1].d[ 35] =         0.001013255434;
  BAS[ATNO][  1].a[ 36] =         7.488000000000;     BAS[ATNO][  1].d[ 36] =        -0.014873672220;
  BAS[ATNO][  1].a[ 37] =         3.205000000000;     BAS[ATNO][  1].d[ 37] =        -0.030468988760;
  BAS[ATNO][  1].a[ 38] =         0.520400000000;     BAS[ATNO][  1].d[ 38] =         0.052589426572;
  BAS[ATNO][  1].a[ 39] =         1.196000000000;     BAS[ATNO][  1].d[ 39] =        -0.083230092359;
  BAS[ATNO][  1].a[ 40] =         0.195400000000;     BAS[ATNO][  1].d[ 40] =        -0.010358637691;
  BAS[ATNO][  1].a[ 41] =        17.362000000000;     BAS[ATNO][  1].d[ 41] =         0.116413807488;
  BAS[ATNO][  1].a[ 42] =         3.378000000000;     BAS[ATNO][  1].d[ 42] =        -0.442241967213;

  // Basis function   3 L = s
  InitBFNGauss(BAS[ATNO][  2]);
  BAS[ATNO][  2].l  = 0;
  BAS[ATNO][  2].ng = 43;
  BAS[ATNO][  2].a[  0] =    545000.000000000000;     BAS[ATNO][  2].d[  0] =        -0.000012924780;
  BAS[ATNO][  2].a[  1] =     81640.000000000000;     BAS[ATNO][  2].d[  1] =        -0.000100405589;
  BAS[ATNO][  2].a[  2] =     18580.000000000000;     BAS[ATNO][  2].d[  2] =        -0.000526818295;
  BAS[ATNO][  2].a[  3] =      5261.000000000000;     BAS[ATNO][  2].d[  3] =        -0.002202722969;
  BAS[ATNO][  2].a[  4] =      1717.000000000000;     BAS[ATNO][  2].d[  4] =        -0.007775714072;
  BAS[ATNO][  2].a[  5] =       619.900000000000;     BAS[ATNO][  2].d[  5] =        -0.023359466358;
  BAS[ATNO][  2].a[  6] =       241.600000000000;     BAS[ATNO][  2].d[  6] =        -0.057057781103;
  BAS[ATNO][  2].a[  7] =        99.790000000000;     BAS[ATNO][  2].d[  7] =        -0.101163505440;
  BAS[ATNO][  2].a[  8] =        43.150000000000;     BAS[ATNO][  2].d[  8] =        -0.099116876885;
  BAS[ATNO][  2].a[  9] =        19.140000000000;     BAS[ATNO][  2].d[  9] =        -0.033533745167;
  BAS[ATNO][  2].a[ 10] =         7.488000000000;     BAS[ATNO][  2].d[ 10] =        -0.001588391313;
  BAS[ATNO][  2].a[ 11] =         3.205000000000;     BAS[ATNO][  2].d[ 11] =        -0.000137086402;
  BAS[ATNO][  2].a[ 12] =         0.520400000000;     BAS[ATNO][  2].d[ 12] =        -0.000008280226;
  BAS[ATNO][  2].a[ 13] =    545000.000000000000;     BAS[ATNO][  2].d[ 13] =         0.000020849245;
  BAS[ATNO][  2].a[ 14] =     81640.000000000000;     BAS[ATNO][  2].d[ 14] =         0.000161623453;
  BAS[ATNO][  2].a[ 15] =     18580.000000000000;     BAS[ATNO][  2].d[ 15] =         0.000852282561;
  BAS[ATNO][  2].a[ 16] =      5261.000000000000;     BAS[ATNO][  2].d[ 16] =         0.003563028833;
  BAS[ATNO][  2].a[ 17] =      1717.000000000000;     BAS[ATNO][  2].d[ 17] =         0.012823997320;
  BAS[ATNO][  2].a[ 18] =       619.900000000000;     BAS[ATNO][  2].d[ 18] =         0.039558220397;
  BAS[ATNO][  2].a[ 19] =       241.600000000000;     BAS[ATNO][  2].d[ 19] =         0.105862492569;
  BAS[ATNO][  2].a[ 20] =        99.790000000000;     BAS[ATNO][  2].d[ 20] =         0.221996478401;
  BAS[ATNO][  2].a[ 21] =        43.150000000000;     BAS[ATNO][  2].d[ 21] =         0.324492539908;
  BAS[ATNO][  2].a[ 22] =        19.140000000000;     BAS[ATNO][  2].d[ 22] =         0.066439296345;
  BAS[ATNO][  2].a[ 23] =         7.488000000000;     BAS[ATNO][  2].d[ 23] =        -0.780018073911;
  BAS[ATNO][  2].a[ 24] =         3.205000000000;     BAS[ATNO][  2].d[ 24] =        -0.932172131805;
  BAS[ATNO][  2].a[ 25] =         0.520400000000;     BAS[ATNO][  2].d[ 25] =         0.011708848926;
  BAS[ATNO][  2].a[ 26] =    545000.000000000000;     BAS[ATNO][  2].d[ 26] =        -0.000001650808;
  BAS[ATNO][  2].a[ 27] =     81640.000000000000;     BAS[ATNO][  2].d[ 27] =        -0.000012786579;
  BAS[ATNO][  2].a[ 28] =     18580.000000000000;     BAS[ATNO][  2].d[ 28] =        -0.000067520131;
  BAS[ATNO][  2].a[ 29] =      5261.000000000000;     BAS[ATNO][  2].d[ 29] =        -0.000281933213;
  BAS[ATNO][  2].a[ 30] =      1717.000000000000;     BAS[ATNO][  2].d[ 30] =        -0.001018186588;
  BAS[ATNO][  2].a[ 31] =       619.900000000000;     BAS[ATNO][  2].d[ 31] =        -0.003143028966;
  BAS[ATNO][  2].a[ 32] =       241.600000000000;     BAS[ATNO][  2].d[ 32] =        -0.008507538156;
  BAS[ATNO][  2].a[ 33] =        99.790000000000;     BAS[ATNO][  2].d[ 33] =        -0.018096769634;
  BAS[ATNO][  2].a[ 34] =        43.150000000000;     BAS[ATNO][  2].d[ 34] =        -0.027727088909;
  BAS[ATNO][  2].a[ 35] =        19.140000000000;     BAS[ATNO][  2].d[ 35] =        -0.005761666771;
  BAS[ATNO][  2].a[ 36] =         7.488000000000;     BAS[ATNO][  2].d[ 36] =         0.084576050694;
  BAS[ATNO][  2].a[ 37] =         3.205000000000;     BAS[ATNO][  2].d[ 37] =         0.173255582066;
  BAS[ATNO][  2].a[ 38] =         0.520400000000;     BAS[ATNO][  2].d[ 38] =        -0.299038861542;
  BAS[ATNO][  2].a[ 39] =         1.196000000000;     BAS[ATNO][  2].d[ 39] =         1.606377517870;
  BAS[ATNO][  2].a[ 40] =         0.195400000000;     BAS[ATNO][  2].d[ 40] =         0.074676926324;
  BAS[ATNO][  2].a[ 41] =        17.362000000000;     BAS[ATNO][  2].d[ 41] =        -0.201542501723;
  BAS[ATNO][  2].a[ 42] =         3.378000000000;     BAS[ATNO][  2].d[ 42] =         0.457762350246;

  // Basis function   4 L = s
  InitBFNGauss(BAS[ATNO][  3]);
  BAS[ATNO][  3].l  = 0;
  BAS[ATNO][  3].ng = 43;
  BAS[ATNO][  3].a[  0] =    545000.000000000000;     BAS[ATNO][  3].d[  0] =         0.000015133417;
  BAS[ATNO][  3].a[  1] =     81640.000000000000;     BAS[ATNO][  3].d[  1] =         0.000117563296;
  BAS[ATNO][  3].a[  2] =     18580.000000000000;     BAS[ATNO][  3].d[  2] =         0.000616843100;
  BAS[ATNO][  3].a[  3] =      5261.000000000000;     BAS[ATNO][  3].d[  3] =         0.002579133028;
  BAS[ATNO][  3].a[  4] =      1717.000000000000;     BAS[ATNO][  3].d[  4] =         0.009104459008;
  BAS[ATNO][  3].a[  5] =       619.900000000000;     BAS[ATNO][  3].d[  5] =         0.027351224843;
  BAS[ATNO][  3].a[  6] =       241.600000000000;     BAS[ATNO][  3].d[  6] =         0.066808041591;
  BAS[ATNO][  3].a[  7] =        99.790000000000;     BAS[ATNO][  3].d[  7] =         0.118450727461;
  BAS[ATNO][  3].a[  8] =        43.150000000000;     BAS[ATNO][  3].d[  8] =         0.116054362882;
  BAS[ATNO][  3].a[  9] =        19.140000000000;     BAS[ATNO][  3].d[  9] =         0.039264124866;
  BAS[ATNO][  3].a[ 10] =         7.488000000000;     BAS[ATNO][  3].d[ 10] =         0.001859821936;
  BAS[ATNO][  3].a[ 11] =         3.205000000000;     BAS[ATNO][  3].d[ 11] =         0.000160512271;
  BAS[ATNO][  3].a[ 12] =         0.520400000000;     BAS[ATNO][  3].d[ 12] =         0.000009695184;
  BAS[ATNO][  3].a[ 13] =    545000.000000000000;     BAS[ATNO][  3].d[ 13] =        -0.000032041673;
  BAS[ATNO][  3].a[ 14] =     81640.000000000000;     BAS[ATNO][  3].d[ 14] =        -0.000248387208;
  BAS[ATNO][  3].a[ 15] =     18580.000000000000;     BAS[ATNO][  3].d[ 15] =        -0.001309810441;
  BAS[ATNO][  3].a[ 16] =      5261.000000000000;     BAS[ATNO][  3].d[ 16] =        -0.005475757199;
  BAS[ATNO][  3].a[ 17] =      1717.000000000000;     BAS[ATNO][  3].d[ 17] =        -0.019708259160;
  BAS[ATNO][  3].a[ 18] =       619.900000000000;     BAS[ATNO][  3].d[ 18] =        -0.060794122149;
  BAS[ATNO][  3].a[ 19] =       241.600000000000;     BAS[ATNO][  3].d[ 19] =        -0.162692285942;
  BAS[ATNO][  3].a[ 20] =        99.790000000000;     BAS[ATNO][  3].d[ 20] =        -0.341170075120;
  BAS[ATNO][  3].a[ 21] =        43.150000000000;     BAS[ATNO][  3].d[ 21] =        -0.498688740532;
  BAS[ATNO][  3].a[ 22] =        19.140000000000;     BAS[ATNO][  3].d[ 22] =        -0.102105672523;
  BAS[ATNO][  3].a[ 23] =         7.488000000000;     BAS[ATNO][  3].d[ 23] =         1.198752461246;
  BAS[ATNO][  3].a[ 24] =         3.205000000000;     BAS[ATNO][  3].d[ 24] =         1.432586852382;
  BAS[ATNO][  3].a[ 25] =         0.520400000000;     BAS[ATNO][  3].d[ 25] =        -0.017994469535;
  BAS[ATNO][  3].a[ 26] =    545000.000000000000;     BAS[ATNO][  3].d[ 26] =         0.000014012149;
  BAS[ATNO][  3].a[ 27] =     81640.000000000000;     BAS[ATNO][  3].d[ 27] =         0.000108533176;
  BAS[ATNO][  3].a[ 28] =     18580.000000000000;     BAS[ATNO][  3].d[ 28] =         0.000573114516;
  BAS[ATNO][  3].a[ 29] =      5261.000000000000;     BAS[ATNO][  3].d[ 29] =         0.002393064318;
  BAS[ATNO][  3].a[ 30] =      1717.000000000000;     BAS[ATNO][  3].d[ 30] =         0.008642422687;
  BAS[ATNO][  3].a[ 31] =       619.900000000000;     BAS[ATNO][  3].d[ 31] =         0.026678199411;
  BAS[ATNO][  3].a[ 32] =       241.600000000000;     BAS[ATNO][  3].d[ 32] =         0.072212442798;
  BAS[ATNO][  3].a[ 33] =        99.790000000000;     BAS[ATNO][  3].d[ 33] =         0.153606356866;
  BAS[ATNO][  3].a[ 34] =        43.150000000000;     BAS[ATNO][  3].d[ 34] =         0.235349026371;
  BAS[ATNO][  3].a[ 35] =        19.140000000000;     BAS[ATNO][  3].d[ 35] =         0.048905338355;
  BAS[ATNO][  3].a[ 36] =         7.488000000000;     BAS[ATNO][  3].d[ 36] =        -0.717886080653;
  BAS[ATNO][  3].a[ 37] =         3.205000000000;     BAS[ATNO][  3].d[ 37] =        -1.470602726657;
  BAS[ATNO][  3].a[ 38] =         0.520400000000;     BAS[ATNO][  3].d[ 38] =         2.538257988094;
  BAS[ATNO][  3].a[ 39] =         1.196000000000;     BAS[ATNO][  3].d[ 39] =        -2.439804600235;
  BAS[ATNO][  3].a[ 40] =         0.195400000000;     BAS[ATNO][  3].d[ 40] =        -0.129902925152;
  BAS[ATNO][  3].a[ 41] =        17.362000000000;     BAS[ATNO][  3].d[ 41] =         0.208472619293;
  BAS[ATNO][  3].a[ 42] =         3.378000000000;     BAS[ATNO][  3].d[ 42] =         0.096031583162;

  // Basis function   5 L = s
  InitBFNGauss(BAS[ATNO][  4]);
  BAS[ATNO][  4].l  = 0;
  BAS[ATNO][  4].ng = 43;
  BAS[ATNO][  4].a[  0] =    545000.000000000000;     BAS[ATNO][  4].d[  0] =         0.000014032472;
  BAS[ATNO][  4].a[  1] =     81640.000000000000;     BAS[ATNO][  4].d[  1] =         0.000109010650;
  BAS[ATNO][  4].a[  2] =     18580.000000000000;     BAS[ATNO][  4].d[  2] =         0.000571968205;
  BAS[ATNO][  4].a[  3] =      5261.000000000000;     BAS[ATNO][  4].d[  3] =         0.002391502944;
  BAS[ATNO][  4].a[  4] =      1717.000000000000;     BAS[ATNO][  4].d[  4] =         0.008442116123;
  BAS[ATNO][  4].a[  5] =       619.900000000000;     BAS[ATNO][  4].d[  5] =         0.025361442786;
  BAS[ATNO][  4].a[  6] =       241.600000000000;     BAS[ATNO][  4].d[  6] =         0.061947804318;
  BAS[ATNO][  4].a[  7] =        99.790000000000;     BAS[ATNO][  4].d[  7] =         0.109833521703;
  BAS[ATNO][  4].a[  8] =        43.150000000000;     BAS[ATNO][  4].d[  8] =         0.107611490934;
  BAS[ATNO][  4].a[  9] =        19.140000000000;     BAS[ATNO][  4].d[  9] =         0.036407687847;
  BAS[ATNO][  4].a[ 10] =         7.488000000000;     BAS[ATNO][  4].d[ 10] =         0.001724521220;
  BAS[ATNO][  4].a[ 11] =         3.205000000000;     BAS[ATNO][  4].d[ 11] =         0.000148835118;
  BAS[ATNO][  4].a[ 12] =         0.520400000000;     BAS[ATNO][  4].d[ 12] =         0.000008989866;
  BAS[ATNO][  4].a[ 13] =    545000.000000000000;     BAS[ATNO][  4].d[ 13] =        -0.000035452012;
  BAS[ATNO][  4].a[ 14] =     81640.000000000000;     BAS[ATNO][  4].d[ 14] =        -0.000274824175;
  BAS[ATNO][  4].a[ 15] =     18580.000000000000;     BAS[ATNO][  4].d[ 15] =        -0.001449219453;
  BAS[ATNO][  4].a[ 16] =      5261.000000000000;     BAS[ATNO][  4].d[ 16] =        -0.006058566647;
  BAS[ATNO][  4].a[ 17] =      1717.000000000000;     BAS[ATNO][  4].d[ 17] =        -0.021805897757;
  BAS[ATNO][  4].a[ 18] =       619.900000000000;     BAS[ATNO][  4].d[ 18] =        -0.067264713795;
  BAS[ATNO][  4].a[ 19] =       241.600000000000;     BAS[ATNO][  4].d[ 19] =        -0.180008357120;
  BAS[ATNO][  4].a[ 20] =        99.790000000000;     BAS[ATNO][  4].d[ 20] =        -0.377482339530;
  BAS[ATNO][  4].a[ 21] =        43.150000000000;     BAS[ATNO][  4].d[ 21] =        -0.551766424435;
  BAS[ATNO][  4].a[ 22] =        19.140000000000;     BAS[ATNO][  4].d[ 22] =        -0.112973238142;
  BAS[ATNO][  4].a[ 23] =         7.488000000000;     BAS[ATNO][  4].d[ 23] =         1.326341073229;
  BAS[ATNO][  4].a[ 24] =         3.205000000000;     BAS[ATNO][  4].d[ 24] =         1.585063509532;
  BAS[ATNO][  4].a[ 25] =         0.520400000000;     BAS[ATNO][  4].d[ 25] =        -0.019909701800;
  BAS[ATNO][  4].a[ 26] =    545000.000000000000;     BAS[ATNO][  4].d[ 26] =         0.000020230289;
  BAS[ATNO][  4].a[ 27] =     81640.000000000000;     BAS[ATNO][  4].d[ 27] =         0.000156696698;
  BAS[ATNO][  4].a[ 28] =     18580.000000000000;     BAS[ATNO][  4].d[ 28] =         0.000827444242;
  BAS[ATNO][  4].a[ 29] =      5261.000000000000;     BAS[ATNO][  4].d[ 29] =         0.003455029032;
  BAS[ATNO][  4].a[ 30] =      1717.000000000000;     BAS[ATNO][  4].d[ 30] =         0.012477650961;
  BAS[ATNO][  4].a[ 31] =       619.900000000000;     BAS[ATNO][  4].d[ 31] =         0.038517123331;
  BAS[ATNO][  4].a[ 32] =       241.600000000000;     BAS[ATNO][  4].d[ 32] =         0.104257994421;
  BAS[ATNO][  4].a[ 33] =        99.790000000000;     BAS[ATNO][  4].d[ 33] =         0.221771900749;
  BAS[ATNO][  4].a[ 34] =        43.150000000000;     BAS[ATNO][  4].d[ 34] =         0.339789328923;
  BAS[ATNO][  4].a[ 35] =        19.140000000000;     BAS[ATNO][  4].d[ 35] =         0.070607949210;
  BAS[ATNO][  4].a[ 36] =         7.488000000000;     BAS[ATNO][  4].d[ 36] =        -1.036460755116;
  BAS[ATNO][  4].a[ 37] =         3.205000000000;     BAS[ATNO][  4].d[ 37] =        -2.123208756408;
  BAS[ATNO][  4].a[ 38] =         0.520400000000;     BAS[ATNO][  4].d[ 38] =         3.664654966739;
  BAS[ATNO][  4].a[ 39] =         1.196000000000;     BAS[ATNO][  4].d[ 39] =        -1.877271426478;
  BAS[ATNO][  4].a[ 40] =         0.195400000000;     BAS[ATNO][  4].d[ 40] =        -2.427632845328;
  BAS[ATNO][  4].a[ 41] =        17.362000000000;     BAS[ATNO][  4].d[ 41] =         0.176497130701;
  BAS[ATNO][  4].a[ 42] =         3.378000000000;     BAS[ATNO][  4].d[ 42] =         0.419783015547;

  // Basis function   6 L = s
  InitBFNGauss(BAS[ATNO][  5]);
  BAS[ATNO][  5].l  = 0;
  BAS[ATNO][  5].ng = 43;
  BAS[ATNO][  5].a[  0] =    545000.000000000000;     BAS[ATNO][  5].d[  0] =        -0.000055562957;
  BAS[ATNO][  5].a[  1] =     81640.000000000000;     BAS[ATNO][  5].d[  1] =        -0.000431638418;
  BAS[ATNO][  5].a[  2] =     18580.000000000000;     BAS[ATNO][  5].d[  2] =        -0.002264764510;
  BAS[ATNO][  5].a[  3] =      5261.000000000000;     BAS[ATNO][  5].d[  3] =        -0.009469391724;
  BAS[ATNO][  5].a[  4] =      1717.000000000000;     BAS[ATNO][  5].d[  4] =        -0.033427391240;
  BAS[ATNO][  5].a[  5] =       619.900000000000;     BAS[ATNO][  5].d[  5] =        -0.100421133526;
  BAS[ATNO][  5].a[  6] =       241.600000000000;     BAS[ATNO][  5].d[  6] =        -0.245288439684;
  BAS[ATNO][  5].a[  7] =        99.790000000000;     BAS[ATNO][  5].d[  7] =        -0.434896659538;
  BAS[ATNO][  5].a[  8] =        43.150000000000;     BAS[ATNO][  5].d[  8] =        -0.426098309602;
  BAS[ATNO][  5].a[  9] =        19.140000000000;     BAS[ATNO][  5].d[  9] =        -0.144159830083;
  BAS[ATNO][  5].a[ 10] =         7.488000000000;     BAS[ATNO][  5].d[ 10] =        -0.006828411819;
  BAS[ATNO][  5].a[ 11] =         3.205000000000;     BAS[ATNO][  5].d[ 11] =        -0.000589327326;
  BAS[ATNO][  5].a[ 12] =         0.520400000000;     BAS[ATNO][  5].d[ 12] =        -0.000035596261;
  BAS[ATNO][  5].a[ 13] =    545000.000000000000;     BAS[ATNO][  5].d[ 13] =         0.000037725789;
  BAS[ATNO][  5].a[ 14] =     81640.000000000000;     BAS[ATNO][  5].d[ 14] =         0.000292450502;
  BAS[ATNO][  5].a[ 15] =     18580.000000000000;     BAS[ATNO][  5].d[ 15] =         0.001542167667;
  BAS[ATNO][  5].a[ 16] =      5261.000000000000;     BAS[ATNO][  5].d[ 16] =         0.006447143370;
  BAS[ATNO][  5].a[ 17] =      1717.000000000000;     BAS[ATNO][  5].d[ 17] =         0.023204456985;
  BAS[ATNO][  5].a[ 18] =       619.900000000000;     BAS[ATNO][  5].d[ 18] =         0.071578853358;
  BAS[ATNO][  5].a[ 19] =       241.600000000000;     BAS[ATNO][  5].d[ 19] =         0.191553506593;
  BAS[ATNO][  5].a[ 20] =        99.790000000000;     BAS[ATNO][  5].d[ 20] =         0.401692826771;
  BAS[ATNO][  5].a[ 21] =        43.150000000000;     BAS[ATNO][  5].d[ 21] =         0.587154924982;
  BAS[ATNO][  5].a[ 22] =        19.140000000000;     BAS[ATNO][  5].d[ 22] =         0.120218973516;
  BAS[ATNO][  5].a[ 23] =         7.488000000000;     BAS[ATNO][  5].d[ 23] =        -1.411408267819;
  BAS[ATNO][  5].a[ 24] =         3.205000000000;     BAS[ATNO][  5].d[ 24] =        -1.686724318147;
  BAS[ATNO][  5].a[ 25] =         0.520400000000;     BAS[ATNO][  5].d[ 25] =         0.021186645198;
  BAS[ATNO][  5].a[ 26] =    545000.000000000000;     BAS[ATNO][  5].d[ 26] =         0.000020457652;
  BAS[ATNO][  5].a[ 27] =     81640.000000000000;     BAS[ATNO][  5].d[ 27] =         0.000158457775;
  BAS[ATNO][  5].a[ 28] =     18580.000000000000;     BAS[ATNO][  5].d[ 28] =         0.000836743695;
  BAS[ATNO][  5].a[ 29] =      5261.000000000000;     BAS[ATNO][  5].d[ 29] =         0.003493859300;
  BAS[ATNO][  5].a[ 30] =      1717.000000000000;     BAS[ATNO][  5].d[ 30] =         0.012617884380;
  BAS[ATNO][  5].a[ 31] =       619.900000000000;     BAS[ATNO][  5].d[ 31] =         0.038950008329;
  BAS[ATNO][  5].a[ 32] =       241.600000000000;     BAS[ATNO][  5].d[ 32] =         0.105429725791;
  BAS[ATNO][  5].a[ 33] =        99.790000000000;     BAS[ATNO][  5].d[ 33] =         0.224264343604;
  BAS[ATNO][  5].a[ 34] =        43.150000000000;     BAS[ATNO][  5].d[ 34] =         0.343608142226;
  BAS[ATNO][  5].a[ 35] =        19.140000000000;     BAS[ATNO][  5].d[ 35] =         0.071401495542;
  BAS[ATNO][  5].a[ 36] =         7.488000000000;     BAS[ATNO][  5].d[ 36] =        -1.048109296678;
  BAS[ATNO][  5].a[ 37] =         3.205000000000;     BAS[ATNO][  5].d[ 37] =        -2.147071006206;
  BAS[ATNO][  5].a[ 38] =         0.520400000000;     BAS[ATNO][  5].d[ 38] =         3.705841172275;
  BAS[ATNO][  5].a[ 39] =         1.196000000000;     BAS[ATNO][  5].d[ 39] =        -5.333666095555;
  BAS[ATNO][  5].a[ 40] =         0.195400000000;     BAS[ATNO][  5].d[ 40] =        -1.134704330732;
  BAS[ATNO][  5].a[ 41] =        17.362000000000;     BAS[ATNO][  5].d[ 41] =        -0.878779597205;
  BAS[ATNO][  5].a[ 42] =         3.378000000000;     BAS[ATNO][  5].d[ 42] =         9.085374913134;

  // Basis function   7 L = s
  InitBFNGauss(BAS[ATNO][  6]);
  BAS[ATNO][  6].l  = 0;
  BAS[ATNO][  6].ng = 43;
  BAS[ATNO][  6].a[  0] =    545000.000000000000;     BAS[ATNO][  6].d[  0] =        -0.000278564628;
  BAS[ATNO][  6].a[  1] =     81640.000000000000;     BAS[ATNO][  6].d[  1] =        -0.002164017200;
  BAS[ATNO][  6].a[  2] =     18580.000000000000;     BAS[ATNO][  6].d[  2] =        -0.011354386340;
  BAS[ATNO][  6].a[  3] =      5261.000000000000;     BAS[ATNO][  6].d[  3] =        -0.047474751381;
  BAS[ATNO][  6].a[  4] =      1717.000000000000;     BAS[ATNO][  6].d[  4] =        -0.167588070567;
  BAS[ATNO][  6].a[  5] =       619.900000000000;     BAS[ATNO][  6].d[  5] =        -0.503460886050;
  BAS[ATNO][  6].a[  6] =       241.600000000000;     BAS[ATNO][  6].d[  6] =        -1.229752451943;
  BAS[ATNO][  6].a[  7] =        99.790000000000;     BAS[ATNO][  6].d[  7] =        -2.180352380642;
  BAS[ATNO][  6].a[  8] =        43.150000000000;     BAS[ATNO][  6].d[  8] =        -2.136241894143;
  BAS[ATNO][  6].a[  9] =        19.140000000000;     BAS[ATNO][  6].d[  9] =        -0.722744637884;
  BAS[ATNO][  6].a[ 10] =         7.488000000000;     BAS[ATNO][  6].d[ 10] =        -0.034234210906;
  BAS[ATNO][  6].a[ 11] =         3.205000000000;     BAS[ATNO][  6].d[ 11] =        -0.002954589809;
  BAS[ATNO][  6].a[ 12] =         0.520400000000;     BAS[ATNO][  6].d[ 12] =        -0.000178461690;
  BAS[ATNO][  6].a[ 13] =    545000.000000000000;     BAS[ATNO][  6].d[ 13] =         0.000157848501;
[...]
  BAS[ATNO][  6].a[ 24] =         3.205000000000;     BAS[ATNO][  6].d[ 24] =        -7.057424498294;
  BAS[ATNO][  6].a[ 25] =         0.520400000000;     BAS[ATNO][  6].d[ 25] =         0.088647058237;
  BAS[ATNO][  6].a[ 26] =    545000.000000000000;     BAS[ATNO][  6].d[ 26] =         0.000008045934;
  BAS[ATNO][  6].a[ 27] =     81640.000000000000;     BAS[ATNO][  6].d[ 27] =         0.000062320974;
  BAS[ATNO][  6].a[ 28] =     18580.000000000000;     BAS[ATNO][  6].d[ 28] =         0.000329088819;
  BAS[ATNO][  6].a[ 29] =      5261.000000000000;     BAS[ATNO][  6].d[ 29] =         0.001374124524;
  BAS[ATNO][  6].a[ 30] =      1717.000000000000;     BAS[ATNO][  6].d[ 30] =         0.004962576588;
  BAS[ATNO][  6].a[ 31] =       619.900000000000;     BAS[ATNO][  6].d[ 31] =         0.015318923015;
  BAS[ATNO][  6].a[ 32] =       241.600000000000;     BAS[ATNO][  6].d[ 32] =         0.041465199167;
  BAS[ATNO][  6].a[ 33] =        99.790000000000;     BAS[ATNO][  6].d[ 33] =         0.088202502698;
  BAS[ATNO][  6].a[ 34] =        43.150000000000;     BAS[ATNO][  6].d[ 34] =         0.135140065535;
  BAS[ATNO][  6].a[ 35] =        19.140000000000;     BAS[ATNO][  6].d[ 35] =         0.028081996906;
  BAS[ATNO][  6].a[ 36] =         7.488000000000;     BAS[ATNO][  6].d[ 36] =        -0.412218284827;
  BAS[ATNO][  6].a[ 37] =         3.205000000000;     BAS[ATNO][  6].d[ 37] =        -0.844436673146;
  BAS[ATNO][  6].a[ 38] =         0.520400000000;     BAS[ATNO][  6].d[ 38] =         1.457496366761;
  BAS[ATNO][  6].a[ 39] =         1.196000000000;     BAS[ATNO][  6].d[ 39] =        -2.720137792888;
  BAS[ATNO][  6].a[ 40] =         0.195400000000;     BAS[ATNO][  6].d[ 40] =        -0.409296352515;
  BAS[ATNO][  6].a[ 41] =        17.362000000000;     BAS[ATNO][  6].d[ 41] =         3.242138762529;
  BAS[ATNO][  6].a[ 42] =         3.378000000000;     BAS[ATNO][  6].d[ 42] =        13.111759240955;

  // Basis function   8 L = p
  InitBFNGauss(BAS[ATNO][  7]);
  BAS[ATNO][  7].l  = 1;
  BAS[ATNO][  7].ng = 18;
  BAS[ATNO][  7].a[  0] =       761.800000000000;     BAS[ATNO][  7].d[  0] =         0.003395608216;
  BAS[ATNO][  7].a[  1] =       180.200000000000;     BAS[ATNO][  7].d[  1] =         0.027253447057;
  BAS[ATNO][  7].a[  2] =        57.500000000000;     BAS[ATNO][  7].d[  2] =         0.126210058635;
  BAS[ATNO][  7].a[  3] =        21.240000000000;     BAS[ATNO][  7].d[  3] =         0.367360343442;
  BAS[ATNO][  7].a[  4] =         8.388000000000;     BAS[ATNO][  7].d[  4] =         0.628625124842;
  BAS[ATNO][  7].a[  5] =         3.416000000000;     BAS[ATNO][  7].d[  5] =         0.498028556421;
  BAS[ATNO][  7].a[  6] =         0.452300000000;     BAS[ATNO][  7].d[  6] =        -0.007506659000;
  BAS[ATNO][  7].a[  7] =       761.800000000000;     BAS[ATNO][  7].d[  7] =        -0.000042550246;
  BAS[ATNO][  7].a[  8] =       180.200000000000;     BAS[ATNO][  7].d[  8] =        -0.000339731201;
  BAS[ATNO][  7].a[  9] =        57.500000000000;     BAS[ATNO][  7].d[  9] =        -0.001629369505;
  BAS[ATNO][  7].a[ 10] =        21.240000000000;     BAS[ATNO][  7].d[ 10] =        -0.004828895007;
  BAS[ATNO][  7].a[ 11] =         8.388000000000;     BAS[ATNO][  7].d[ 11] =        -0.009000516894;
  BAS[ATNO][  7].a[ 12] =         3.416000000000;     BAS[ATNO][  7].d[ 12] =        -0.005948569181;
  BAS[ATNO][  7].a[ 13] =         0.452300000000;     BAS[ATNO][  7].d[ 13] =         0.035869291568;
  BAS[ATNO][  7].a[ 14] =         1.206000000000;     BAS[ATNO][  7].d[ 14] =        -0.067923455314;
  BAS[ATNO][  7].a[ 15] =         0.154500000000;     BAS[ATNO][  7].d[ 15] =        -0.008183943164;
  BAS[ATNO][  7].a[ 16] =        11.019000000000;     BAS[ATNO][  7].d[ 16] =        -0.024414297295;
  BAS[ATNO][  7].a[ 17] =         4.307000000000;     BAS[ATNO][  7].d[ 17] =        -0.391143091711;

  // Basis function   9 L = p
  InitBFNGauss(BAS[ATNO][  8]);
  BAS[ATNO][  8].l  = 1;
  BAS[ATNO][  8].ng = 18;
  BAS[ATNO][  8].a[  0] =       761.800000000000;     BAS[ATNO][  8].d[  0] =        -0.002265661458;
  BAS[ATNO][  8].a[  1] =       180.200000000000;     BAS[ATNO][  8].d[  1] =        -0.018184396044;
  BAS[ATNO][  8].a[  2] =        57.500000000000;     BAS[ATNO][  8].d[  2] =        -0.084211501251;
  BAS[ATNO][  8].a[  3] =        21.240000000000;     BAS[ATNO][  8].d[  3] =        -0.245114900951;
  BAS[ATNO][  8].a[  4] =         8.388000000000;     BAS[ATNO][  8].d[  4] =        -0.419439354197;
  BAS[ATNO][  8].a[  5] =         3.416000000000;     BAS[ATNO][  8].d[  5] =        -0.332301029377;
  BAS[ATNO][  8].a[  6] =         0.452300000000;     BAS[ATNO][  8].d[  6] =         0.005008689724;
  BAS[ATNO][  8].a[  7] =       761.800000000000;     BAS[ATNO][  8].d[  7] =         0.000230194035;
  BAS[ATNO][  8].a[  8] =       180.200000000000;     BAS[ATNO][  8].d[  8] =         0.001837923472;
  BAS[ATNO][  8].a[  9] =        57.500000000000;     BAS[ATNO][  8].d[  9] =         0.008814781950;
  BAS[ATNO][  8].a[ 10] =        21.240000000000;     BAS[ATNO][  8].d[ 10] =         0.026124004665;
  BAS[ATNO][  8].a[ 11] =         8.388000000000;     BAS[ATNO][  8].d[ 11] =         0.048692204940;
  BAS[ATNO][  8].a[ 12] =         3.416000000000;     BAS[ATNO][  8].d[ 12] =         0.032181368367;
  BAS[ATNO][  8].a[ 13] =         0.452300000000;     BAS[ATNO][  8].d[ 13] =        -0.194050510287;
  BAS[ATNO][  8].a[ 14] =         1.206000000000;     BAS[ATNO][  8].d[ 14] =         0.889686331971;
  BAS[ATNO][  8].a[ 15] =         0.154500000000;     BAS[ATNO][  8].d[ 15] =         0.053606137564;
  BAS[ATNO][  8].a[ 16] =        11.019000000000;     BAS[ATNO][  8].d[ 16] =        -0.142834032049;
  BAS[ATNO][  8].a[ 17] =         4.307000000000;     BAS[ATNO][  8].d[ 17] =         0.868583646674;

  // Basis function  10 L = p
  InitBFNGauss(BAS[ATNO][  9]);
  BAS[ATNO][  9].l  = 1;
  BAS[ATNO][  9].ng = 18;
  BAS[ATNO][  9].a[  0] =       761.800000000000;     BAS[ATNO][  9].d[  0] =         0.002914462094;
  BAS[ATNO][  9].a[  1] =       180.200000000000;     BAS[ATNO][  9].d[  1] =         0.023391726414;
  BAS[ATNO][  9].a[  2] =        57.500000000000;     BAS[ATNO][  9].d[  2] =         0.108326523104;
  BAS[ATNO][  9].a[  3] =        21.240000000000;     BAS[ATNO][  9].d[  3] =         0.315306633734;
  BAS[ATNO][  9].a[  4] =         8.388000000000;     BAS[ATNO][  9].d[  4] =         0.539551085285;
  BAS[ATNO][  9].a[  5] =         3.416000000000;     BAS[ATNO][  9].d[  5] =         0.427459605894;
  BAS[ATNO][  9].a[  6] =         0.452300000000;     BAS[ATNO][  9].d[  6] =        -0.006442990982;
  BAS[ATNO][  9].a[  7] =       761.800000000000;     BAS[ATNO][  9].d[  7] =        -0.001504185136;
  BAS[ATNO][  9].a[  8] =       180.200000000000;     BAS[ATNO][  9].d[  8] =        -0.012009768922;
  BAS[ATNO][  9].a[  9] =        57.500000000000;     BAS[ATNO][  9].d[  9] =        -0.057599511579;
  BAS[ATNO][  9].a[ 10] =        21.240000000000;     BAS[ATNO][  9].d[ 10] =        -0.170705290024;
  BAS[ATNO][  9].a[ 11] =         8.388000000000;     BAS[ATNO][  9].d[ 11] =        -0.318175450998;
  BAS[ATNO][  9].a[ 12] =         3.416000000000;     BAS[ATNO][  9].d[ 12] =        -0.210286665114;
  BAS[ATNO][  9].a[ 13] =         0.452300000000;     BAS[ATNO][  9].d[ 13] =         1.268008066246;
  BAS[ATNO][  9].a[ 14] =         1.206000000000;     BAS[ATNO][  9].d[ 14] =        -0.294538855314;
  BAS[ATNO][  9].a[ 15] =         0.154500000000;     BAS[ATNO][  9].d[ 15] =        -0.161079769036;
  BAS[ATNO][  9].a[ 16] =        11.019000000000;     BAS[ATNO][  9].d[ 16] =         0.203414846201;
  BAS[ATNO][  9].a[ 17] =         4.307000000000;     BAS[ATNO][  9].d[ 17] =        -1.003149164311;

  // Basis function  11 L = p
  InitBFNGauss(BAS[ATNO][ 10]);
  BAS[ATNO][ 10].l  = 1;
  BAS[ATNO][ 10].ng = 18;
  BAS[ATNO][ 10].a[  0] =       761.800000000000;     BAS[ATNO][ 10].d[  0] =        -0.001596339388;
  BAS[ATNO][ 10].a[  1] =       180.200000000000;     BAS[ATNO][ 10].d[  1] =        -0.012812358856;
  BAS[ATNO][ 10].a[  2] =        57.500000000000;     BAS[ATNO][ 10].d[  2] =        -0.059333726083;
  BAS[ATNO][ 10].a[  3] =        21.240000000000;     BAS[ATNO][ 10].d[  3] =        -0.172703017710;
  BAS[ATNO][ 10].a[  4] =         8.388000000000;     BAS[ATNO][ 10].d[  4] =        -0.295528513099;
  BAS[ATNO][ 10].a[  5] =         3.416000000000;     BAS[ATNO][ 10].d[  5] =        -0.234132606133;
  BAS[ATNO][ 10].a[  6] =         0.452300000000;     BAS[ATNO][ 10].d[  6] =         0.003529021805;
  BAS[ATNO][ 10].a[  7] =       761.800000000000;     BAS[ATNO][ 10].d[  7] =         0.000450176470;
  BAS[ATNO][ 10].a[  8] =       180.200000000000;     BAS[ATNO][ 10].d[  8] =         0.003594315118;
  BAS[ATNO][ 10].a[  9] =        57.500000000000;     BAS[ATNO][ 10].d[  9] =         0.017238532780;
  BAS[ATNO][ 10].a[ 10] =        21.240000000000;     BAS[ATNO][ 10].d[ 10] =         0.051089126576;
  BAS[ATNO][ 10].a[ 11] =         8.388000000000;     BAS[ATNO][ 10].d[ 11] =         0.095224382836;
  BAS[ATNO][ 10].a[ 12] =         3.416000000000;     BAS[ATNO][ 10].d[ 12] =         0.062935144246;
  BAS[ATNO][ 10].a[ 13] =         0.452300000000;     BAS[ATNO][ 10].d[ 13] =        -0.379492777209;
  BAS[ATNO][ 10].a[ 14] =         1.206000000000;     BAS[ATNO][ 10].d[ 14] =        -0.610816014944;
  BAS[ATNO][ 10].a[ 15] =         0.154500000000;     BAS[ATNO][ 10].d[ 15] =         1.151144594395;
  BAS[ATNO][ 10].a[ 16] =        11.019000000000;     BAS[ATNO][ 10].d[ 16] =        -0.200497341908;
  BAS[ATNO][ 10].a[ 17] =         4.307000000000;     BAS[ATNO][ 10].d[ 17] =         1.094063685024;

  // Basis function  12 L = p
  InitBFNGauss(BAS[ATNO][ 11]);
  BAS[ATNO][ 11].l  = 1;
  BAS[ATNO][ 11].ng = 18;
  BAS[ATNO][ 11].a[  0] =       761.800000000000;     BAS[ATNO][ 11].d[  0] =        -0.000783602648;
  BAS[ATNO][ 11].a[  1] =       180.200000000000;     BAS[ATNO][ 11].d[  1] =        -0.006289263052;
  BAS[ATNO][ 11].a[  2] =        57.500000000000;     BAS[ATNO][ 11].d[  2] =        -0.029125426113;
  BAS[ATNO][ 11].a[  3] =        21.240000000000;     BAS[ATNO][ 11].d[  3] =        -0.084775545275;
  BAS[ATNO][ 11].a[  4] =         8.388000000000;     BAS[ATNO][ 11].d[  4] =        -0.145067475800;
  BAS[ATNO][ 11].a[  5] =         3.416000000000;     BAS[ATNO][ 11].d[  5] =        -0.114929777225;
  BAS[ATNO][ 11].a[  6] =         0.452300000000;     BAS[ATNO][ 11].d[  6] =         0.001732307586;
  BAS[ATNO][ 11].a[  7] =       761.800000000000;     BAS[ATNO][ 11].d[  7] =         0.002582892658;
  BAS[ATNO][ 11].a[  8] =       180.200000000000;     BAS[ATNO][ 11].d[  8] =         0.020622424212;
  BAS[ATNO][ 11].a[  9] =        57.500000000000;     BAS[ATNO][ 11].d[  9] =         0.098906279539;
  BAS[ATNO][ 11].a[ 10] =        21.240000000000;     BAS[ATNO][ 11].d[ 10] =         0.293124449685;
  BAS[ATNO][ 11].a[ 11] =         8.388000000000;     BAS[ATNO][ 11].d[ 11] =         0.546350988677;
  BAS[ATNO][ 11].a[ 12] =         3.416000000000;     BAS[ATNO][ 11].d[ 12] =         0.361091111935;
  BAS[ATNO][ 11].a[ 13] =         0.452300000000;     BAS[ATNO][ 11].d[ 13] =        -2.177344161760;
  BAS[ATNO][ 11].a[ 14] =         1.206000000000;     BAS[ATNO][ 11].d[ 14] =         2.194605348632;
  BAS[ATNO][ 11].a[ 15] =         0.154500000000;     BAS[ATNO][ 11].d[ 15] =         1.147098749139;
  BAS[ATNO][ 11].a[ 16] =        11.019000000000;     BAS[ATNO][ 11].d[ 16] =         0.289300889801;
  BAS[ATNO][ 11].a[ 17] =         4.307000000000;     BAS[ATNO][ 11].d[ 17] =        -2.014916549017;

  // Basis function  13 L = p
  InitBFNGauss(BAS[ATNO][ 12]);
  BAS[ATNO][ 12].l  = 1;
  BAS[ATNO][ 12].ng = 18;
  BAS[ATNO][ 12].a[  0] =       761.800000000000;     BAS[ATNO][ 12].d[  0] =        -0.015081966261;
  BAS[ATNO][ 12].a[  1] =       180.200000000000;     BAS[ATNO][ 12].d[  1] =        -0.121049173792;
  BAS[ATNO][ 12].a[  2] =        57.500000000000;     BAS[ATNO][ 12].d[  2] =        -0.560575815961;
  BAS[ATNO][ 12].a[  3] =        21.240000000000;     BAS[ATNO][ 12].d[  3] =        -1.631671251120;
  BAS[ATNO][ 12].a[  4] =         8.388000000000;     BAS[ATNO][ 12].d[  4] =        -2.792107428709;
  BAS[ATNO][ 12].a[  5] =         3.416000000000;     BAS[ATNO][ 12].d[  5] =        -2.212048448498;
  BAS[ATNO][ 12].a[  6] =         0.452300000000;     BAS[ATNO][ 12].d[  6] =         0.033341649149;
  BAS[ATNO][ 12].a[  7] =       761.800000000000;     BAS[ATNO][ 12].d[  7] =         0.000681186964;
  BAS[ATNO][ 12].a[  8] =       180.200000000000;     BAS[ATNO][ 12].d[  8] =         0.005438757393;
  BAS[ATNO][ 12].a[  9] =        57.500000000000;     BAS[ATNO][ 12].d[  9] =         0.026084579270;
  BAS[ATNO][ 12].a[ 10] =        21.240000000000;     BAS[ATNO][ 12].d[ 10] =         0.077305788665;
  BAS[ATNO][ 12].a[ 11] =         8.388000000000;     BAS[ATNO][ 12].d[ 11] =         0.144089290788;
  BAS[ATNO][ 12].a[ 12] =         3.416000000000;     BAS[ATNO][ 12].d[ 12] =         0.095230654482;
  BAS[ATNO][ 12].a[ 13] =         0.452300000000;     BAS[ATNO][ 12].d[ 13] =        -0.574231551826;
  BAS[ATNO][ 12].a[ 14] =         1.206000000000;     BAS[ATNO][ 12].d[ 14] =         1.051978228045;
  BAS[ATNO][ 12].a[ 15] =         0.154500000000;     BAS[ATNO][ 12].d[ 15] =         0.169363817480;
  BAS[ATNO][ 12].a[ 16] =        11.019000000000;     BAS[ATNO][ 12].d[ 16] =         4.711357223049;
  BAS[ATNO][ 12].a[ 17] =         4.307000000000;     BAS[ATNO][ 12].d[ 17] =         1.163967025335;

  // Basis function  14 L = d
  InitBFNGauss(BAS[ATNO][ 13]);
  BAS[ATNO][ 13].l  = 2;
  BAS[ATNO][ 13].ng = 4;
  BAS[ATNO][ 13].a[  0] =         0.410000000000;     BAS[ATNO][ 13].d[  0] =        -0.116971134159;
  BAS[ATNO][ 13].a[  1] =         1.254000000000;     BAS[ATNO][ 13].d[  1] =         0.578357376645;
  BAS[ATNO][ 13].a[  2] =        20.706000000000;     BAS[ATNO][ 13].d[  2] =         0.068003604155;
  BAS[ATNO][ 13].a[  3] =         6.681000000000;     BAS[ATNO][ 13].d[  3] =         0.655255146615;

  // Basis function  15 L = d
  InitBFNGauss(BAS[ATNO][ 14]);
  BAS[ATNO][ 14].l  = 2;
  BAS[ATNO][ 14].ng = 4;
  BAS[ATNO][ 14].a[  0] =         0.410000000000;     BAS[ATNO][ 14].d[  0] =        -0.456339599545;
  BAS[ATNO][ 14].a[  1] =         1.254000000000;     BAS[ATNO][ 14].d[  1] =        -0.586049058907;
  BAS[ATNO][ 14].a[  2] =        20.706000000000;     BAS[ATNO][ 14].d[  2] =         0.076940602017;
  BAS[ATNO][ 14].a[  3] =         6.681000000000;     BAS[ATNO][ 14].d[  3] =         0.586081182125;

  // Basis function  16 L = d
  InitBFNGauss(BAS[ATNO][ 15]);
  BAS[ATNO][ 15].l  = 2;
  BAS[ATNO][ 15].ng = 4;
  BAS[ATNO][ 15].a[  0] =         0.410000000000;     BAS[ATNO][ 15].d[  0] =         1.166812288559;
  BAS[ATNO][ 15].a[  1] =         1.254000000000;     BAS[ATNO][ 15].d[  1] =        -1.032289606480;
  BAS[ATNO][ 15].a[  2] =        20.706000000000;     BAS[ATNO][ 15].d[  2] =         0.070114542192;
  BAS[ATNO][ 15].a[  3] =         6.681000000000;     BAS[ATNO][ 15].d[  3] =         0.456756932407;

  // Basis function  17 L = d
  InitBFNGauss(BAS[ATNO][ 16]);
  BAS[ATNO][ 16].l  = 2;
  BAS[ATNO][ 16].ng = 4;
  BAS[ATNO][ 16].a[  0] =         0.410000000000;     BAS[ATNO][ 16].d[  0] =        -0.134526703827;
  BAS[ATNO][ 16].a[  1] =         1.254000000000;     BAS[ATNO][ 16].d[  1] =         0.308731075929;
  BAS[ATNO][ 16].a[  2] =        20.706000000000;     BAS[ATNO][ 16].d[  2] =         1.250872378836;
  BAS[ATNO][ 16].a[  3] =         6.681000000000;     BAS[ATNO][ 16].d[  3] =        -0.913614747536;

  // Basis function  18 L = f
  InitBFNGauss(BAS[ATNO][ 17]);
  BAS[ATNO][ 17].l  = 3;
  BAS[ATNO][ 17].ng = 2;
  BAS[ATNO][ 17].a[  0] =         0.890000000000;     BAS[ATNO][ 17].d[  0] =         0.998792166150;
  BAS[ATNO][ 17].a[  1] =        13.674000000000;     BAS[ATNO][ 17].d[  1] =         0.024744053171;

  // Basis function  19 L = f
  InitBFNGauss(BAS[ATNO][ 18]);
  BAS[ATNO][ 18].l  = 3;
  BAS[ATNO][ 18].ng = 2;
  BAS[ATNO][ 18].a[  0] =         0.890000000000;     BAS[ATNO][ 18].d[  0] =        -0.061196322682;
  BAS[ATNO][ 18].a[  1] =        13.674000000000;     BAS[ATNO][ 18].d[  1] =         1.000359191943;

-------
TIMINGS
-------

Total SCF time: 0 days 0 hours 0 min 2 sec 

Total time                  ....       2.374 sec
Sum of individual times     ....       2.148 sec  ( 90.5%)

Fock matrix formation       ....       1.623 sec  ( 68.4%)
  XC integration            ....       0.033 sec  (  2.0% of F)
    Basis function eval.    ....       0.007 sec  ( 21.4% of XC)
    Density eval.           ....       0.002 sec  (  5.7% of XC)
    XC-Functional eval.     ....       0.002 sec  (  5.6% of XC)
    XC-Potential eval.      ....       0.002 sec  (  7.2% of XC)
Diagonalization             ....       0.003 sec  (  0.1%)
Density matrix formation    ....       0.001 sec  (  0.0%)
Population analysis         ....       0.001 sec  (  0.0%)
Initial guess               ....       0.093 sec  (  3.9%)
Orbital Transformation      ....       0.000 sec  (  0.0%)
Orbital Orthonormalization  ....       0.000 sec  (  0.0%)
DIIS solution               ....       0.000 sec  (  0.0%)
SOSCF solution              ....       0.001 sec  (  0.0%)
Grid generation             ....       0.427 sec  ( 18.0%)

-------------------------   --------------------
FINAL SINGLE POINT ENERGY      -311.701396351570
-------------------------   --------------------


                            ***************************************
                            *     ORCA property calculations      *
                            ***************************************

                                    ---------------------
                                    Active property flags
                                    ---------------------
   (+) Dipole Moment


------------------------------------------------------------------------------
                       ORCA ELECTRIC PROPERTIES CALCULATION
------------------------------------------------------------------------------

Dipole Moment Calculation                       ... on
Quadrupole Moment Calculation                   ... off
Polarizability Calculation                      ... off
GBWName                                         ... Ar_cc-pcvtz_548.143956_.gbw
Electron density file                           ... Ar_cc-pcvtz_548.143956_.scfp
The origin for moment calculation is the CENTER OF MASS  = ( 0.000000,  0.000000  0.000000)

-------------
DIPOLE MOMENT
-------------
                                X             Y             Z
Electronic contribution:     -0.00000       0.00000       0.00000
Nuclear contribution   :      0.00000       0.00000       0.00000
                        -----------------------------------------
Total Dipole Moment    :     -0.00000       0.00000       0.00000
                        -----------------------------------------
Magnitude (a.u.)       :      0.00000
Magnitude (Debye)      :      0.00000



--------------------
Rotational spectrum 
--------------------
 
Rotational constants in cm-1:     0.000000     0.000000     0.000000 
Rotational constants in MHz :     0.000000     0.000000     0.000000 

 Dipole components along the rotational axes: 
x,y,z [a.u.] :    -0.000000     0.000000     0.000000 
x,y,z [Debye]:    -0.000000     0.000000     0.000000 

 

Timings for individual modules:

Sum of individual times         ...        3.581 sec (=   0.060 min)
GTO integral calculation        ...        0.583 sec (=   0.010 min)  16.3 %
Relativistic integrals          ...        0.353 sec (=   0.006 min)   9.9 %
SCF iterations                  ...        2.645 sec (=   0.044 min)  73.9 %
                             ****ORCA TERMINATED NORMALLY****
TOTAL RUN TIME: 0 days 0 hours 0 minutes 3 seconds 933 msec
