
                                 *****************
                                 * O   R   C   A *
                                 *****************

           --- An Ab Initio, DFT and Semiempirical electronic structure package ---

                  #######################################################
                  #                        -***-                        #
                  #          Department of theory and spectroscopy      #
                  #               Directorship: Frank Neese             #
                  #        Max Planck Institute fuer Kohlenforschung    #
                  #                Kaiser Wilhelm Platz 1               #
                  #                 D-45470 Muelheim/Ruhr               #
                  #                      Germany                        #
                  #                                                     #
                  #                  All rights reserved                #
                  #                        -***-                        #
                  #######################################################


                         Program Version 4.2.1 -  RELEASE  -


 With contributions from (in alphabetic order):
   Daniel Aravena         : Magnetic Suceptibility
   Michael Atanasov       : Ab Initio Ligand Field Theory (pilot matlab implementation)
   Alexander A. Auer      : GIAO ZORA, VPT2
   Ute Becker             : Parallelization
   Giovanni Bistoni       : ED, misc. LED, open-shell LED, HFLD
   Martin Brehm           : Molecular dynamics
   Dmytro Bykov           : SCF Hessian
   Vijay G. Chilkuri      : MRCI spin determinant printing, contributions to CSF-ICE
   Dipayan Datta          : RHF DLPNO-CCSD density
   Achintya Kumar Dutta   : EOM-CC, STEOM-CC
   Dmitry Ganyushin       : Spin-Orbit,Spin-Spin,Magnetic field MRCI
   Miquel Garcia          : C-PCM Hessian, Gaussian charge scheme
   Yang Guo               : DLPNO-NEVPT2, CIM, IAO-localization
   Andreas Hansen         : Spin unrestricted coupled pair/coupled cluster methods
   Benjamin Helmich-Paris : CASSCF linear response (MC-RPA)
   Lee Huntington         : MR-EOM, pCC
   Robert Izsak           : Overlap fitted RIJCOSX, COSX-SCS-MP3, EOM
   Christian Kollmar      : KDIIS, OOCD, Brueckner-CCSD(T), CCSD density
   Simone Kossmann        : Meta GGA functionals, TD-DFT gradient, OOMP2, MP2 Hessian
   Martin Krupicka        : AUTO-CI
   Lucas Lang             : DCDCAS
   Dagmar Lenk            : GEPOL surface, SMD
   Dimitrios Liakos       : Extrapolation schemes; Compound Job, initial MDCI parallelization
   Dimitrios Manganas     : Further ROCIS development; embedding schemes
   Dimitrios Pantazis     : SARC Basis sets
   Taras Petrenko         : DFT Hessian,TD-DFT gradient, ASA, ECA, R-Raman, ABS, FL, XAS/XES, NRVS
   Peter Pinski           : DLPNO-MP2, DLPNO-MP2 Gradient
   Christoph Reimann      : Effective Core Potentials
   Marius Retegan         : Local ZFS, SOC
   Christoph Riplinger    : Optimizer, TS searches, QM/MM, DLPNO-CCSD(T), (RO)-DLPNO pert. Triples
   Tobias Risthaus        : Range-separated hybrids, TD-DFT gradient, RPA, STAB
   Michael Roemelt        : Original ROCIS implementation
   Masaaki Saitow         : Open-shell DLPNO-CCSD energy and density
   Barbara Sandhoefer     : DKH picture change effects
   Avijit Sen             : IP-ROCIS
   Kantharuban Sivalingam : CASSCF convergence, NEVPT2, FIC-MRCI
   Bernardo de Souza      : ESD, SOC TD-DFT
   Georgi Stoychev        : AutoAux, RI-MP2 NMR
   Willem Van den Heuvel  : Paramagnetic NMR
   Boris Wezisla          : Elementary symmetry handling
   Frank Wennmohs         : Technical directorship


 We gratefully acknowledge several colleagues who have allowed us to
 interface, adapt or use parts of their codes:
   Stefan Grimme, W. Hujo, H. Kruse,             : VdW corrections, initial TS optimization,
                  C. Bannwarth                     DFT functionals, gCP, sTDA/sTD-DF
   Ed Valeev, F. Pavosevic, A. Kumar             : LibInt (2-el integral package), F12 methods
   Garnet Chan, S. Sharma, J. Yang, R. Olivares  : DMRG
   Ulf Ekstrom                                   : XCFun DFT Library
   Mihaly Kallay                                 : mrcc  (arbitrary order and MRCC methods)
   Andreas Klamt, Michael Diedenhofen            : otool_cosmo (COSMO solvation model)
   Jiri Pittner, Ondrej Demel                    : Mk-CCSD
   Frank Weinhold                                : gennbo (NPA and NBO analysis)
   Christopher J. Cramer and Donald G. Truhlar   : smd solvation model
   Lars Goerigk                                  : TD-DFT with DH, B97 family of functionals
   V. Asgeirsson, H. Jonsson                     : NEB implementation
   FAccTs GmbH                                   : IRC, NEB, NEB-TS, Multilevel, MM, QM/MM, CI optimization
   S Lehtola, MJT Oliveira, MAL Marques          : LibXC Library


 Your calculation uses the libint2 library for the computation of 2-el integrals
 For citations please refer to: http://libint.valeyev.net

 Your ORCA version has been built with support for libXC version: 4.2.3
 For citations please refer to: https://tddft.org/programs/libxc/

 This ORCA versions uses:
   CBLAS   interface :  Fast vector & matrix operations
   LAPACKE interface :  Fast linear algebra routines
   SCALAPACK package :  Parallel linear algebra routines


----- Orbital basis set information -----
Your calculation utilizes the basis: cc-pCV5Z 
             H : cc-pV5Z. Obtained from the ccRepo (grant-hill.group.shef.ac.uk/ccrepo) Feb. 2017
                 T. H. Dunning, Jr., J. Chem. Phys. 90, 1007 (1989)
            He : cc-pV5Z. Obtained from the ccRepo (grant-hill.group.shef.ac.uk/ccrepo) Feb. 2017
                 D. E. Woon, T. H. Dunning, Jr., J. Chem. Phys. 100, 2975 (1994)
  Li-Be, Na-Mg : Obtained from the ccRepo (grant-hill.group.shef.ac.uk/ccrepo) Feb. 2017
                 B. P. Prascher, D. E. Woon, K. A. Peterson, T. H. Dunning, Jr., A. K. Wilson, Theor. Chem. Acc. 128, 69 (2011)
          B-Ne : Obtained from the ccRepo (grant-hill.group.shef.ac.uk/ccrepo) Feb. 2017
                 D. E. Woon, T. H. Dunning, Jr., J. Chem. Phys. 103, 4572 (1995)
                  K. A. Peterson, T. H. Dunning, Jr., J. Chem. Phys. 117, 10548 (2002)
         Al-Ar : Obtained from the EMSL Basis Set Exchange (bse.pnl.gov) Feb. 2017
                 K. A. Peterson, T. H. Dunning, Jr., J. Chem. Phys. 117, 10548 (2002)
            Ca : Obtained from the Peterson Research Group Website (tyr0.chem.wsu.edu/~kipeters) Feb. 2017
                 J. Koput, K. A. Peterson, J. Phys. Chem. A 106, 9595 (2002)
         Ga-Kr : Obtained from the Peterson Research Group Website (tyr0.chem.wsu.edu/~kipeters) Feb. 2017
                 N. J. DeYonker, K. A. Peterson, A. K. Wilson, J. Phys. Chem. A 111, 11383 (2007)

================================================================================
                                        WARNINGS
                       Please study these warnings very carefully!
================================================================================


INFO   : the flag for use of LIBINT has been found!

================================================================================
                                       INPUT FILE
================================================================================
NAME = Ar_cc-pcv5z_2192.575824_.inp
|  1> ! LDA cc-pcv5z nori grid5 finalgrid6 verytightscf
|  2> %Pal NProcs 18 End
|  3> 
|  4> % REL
|  5>   Method ZORA
|  6>   ModelPot 1, 0, 0, 0
|  7>   velit 2192.575824
|  8> END
|  9> 
| 10> *xyz 16 1
| 11> Ar 0.0 0.0 0.0
| 12> **                         ****END OF INPUT****
================================================================================

                       ****************************
                       * Single Point Calculation *
                       ****************************

---------------------------------
CARTESIAN COORDINATES (ANGSTROEM)
---------------------------------
  Ar     0.000000    0.000000    0.000000

----------------------------
CARTESIAN COORDINATES (A.U.)
----------------------------
  NO LB      ZA    FRAG     MASS         X           Y           Z
   0 Ar   18.0000    0    39.948    0.000000    0.000000    0.000000

--------------------------------
INTERNAL COORDINATES (ANGSTROEM)
--------------------------------
 Ar     0   0   0     0.000000000000     0.00000000     0.00000000

---------------------------
INTERNAL COORDINATES (A.U.)
---------------------------
 Ar     0   0   0     0.000000000000     0.00000000     0.00000000

---------------------
BASIS SET INFORMATION
---------------------
There are 1 groups of distinct atoms

 Group   1 Type Ar  : 31s12p8d6f4g2h contracted to 11s10p8d6f4g2h pattern {1111111111111/3111111111/11111111/111111/1111/11}

Atom   0Ar   basis set group =>   1


           ************************************************************
           *        Program running with 18 parallel MPI-processes    *
           *              working on a common directory               *
           ************************************************************
------------------------------------------------------------------------------
                           ORCA GTO INTEGRAL CALCULATION
------------------------------------------------------------------------------

                         BASIS SET STATISTICS AND STARTUP INFO

 # of primitive gaussian shells          ...   63
 # of primitive gaussian functions       ...  207
 # of contracted shells                  ...   41
 # of contracted basis functions         ...  181
 Highest angular momentum                ...    5
 Maximum contraction depth               ...   11
 Integral package used                   ... LIBINT
 Integral threshhold            Thresh   ...  1.000e-12
 Primitive cut-off              TCut     ...  1.000e-14


------------------------------ INTEGRAL EVALUATION ----------------------------


 * One electron integrals 
 Pre-screening matrix                    ... done
 Shell pair data                         ... done (   0.000 sec)



           ************************************************************
           *        Program running with 18 parallel MPI-processes    *
           *              working on a common directory               *
           ************************************************************
------------------------------------------------------------------------------
                          ORCA RELATIVISTIC HAMILTONIAN
------------------------------------------------------------------------------

Relativistic Method            ... ZORA(MP)
Treatment of potential         ... Van Wuellen
Nucleus model                  ... Point Nucleus
Speed of light used            ... 2192.57582400000001


            *************************************************
            *         ZERO ORDER REGULAR APPROXIMATION      *
            *                     ZORA(MP)                  *
            *            Programmed by FN according to      *
            *                   C. van Wuellen              *
            *       J. Chem. Phys. (1998) vol 109, 392-399  *
            *************************************************

Terms included in model potential: +V(e,N)
Basis function cutoff value   ... 1.000000e-12
Loading the fitted atomic densities  (DKH4)  ... done
Calculating the cutoffs                      ... done
Number of fit functions                      ... 15
Setting up the integration grid ... done


           ************************************************************
           *        Program running with 18 parallel MPI-processes    *
           *              working on a common directory               *
           ************************************************************
-------------------------------------------------------------------------------
                                 ORCA SCF
-------------------------------------------------------------------------------

------------
SCF SETTINGS
------------
Hamiltonian:
 Density Functional     Method          .... DFT(GTOs)
 Exchange Functional    Exchange        .... Slater
   X-Alpha parameter    XAlpha          ....  0.666667
 Correlation Functional Correlation     .... VWN-5
 Gradients option       PostSCFGGA      .... off
   Density functional embedding theory  .... OFF

Relativistic Settings:
 Scalar relativistic method             .... ZORA
 Speed of light used       Velit        ....       2192.57582
Orbital energies will be scaled


General Settings:
 Integral files         IntName         .... Ar_cc-pcv5z_2192.575824_
 Hartree-Fock type      HFTyp           .... RHF
 Total Charge           Charge          ....   16
 Multiplicity           Mult            ....    1
 Number of Electrons    NEL             ....    2
 Basis Dimension        Dim             ....  181
 Nuclear Repulsion      ENuc            ....      0.0000000000 Eh

Convergence Acceleration:
 DIIS                   CNVDIIS         .... on
   Start iteration      DIISMaxIt       ....    12
   Startup error        DIISStart       ....  0.200000
   # of expansion vecs  DIISMaxEq       ....     5
   Bias factor          DIISBfac        ....   1.050
   Max. coefficient     DIISMaxC        ....  10.000
 Newton-Raphson         CNVNR           .... off
 SOSCF                  CNVSOSCF        .... on
   Start iteration      SOSCFMaxIt      ....   150
   Startup grad/error   SOSCFStart      ....  0.003300
 Level Shifting         CNVShift        .... on
   Level shift para.    LevelShift      ....    0.2500
   Turn off err/grad.   ShiftErr        ....    0.0010
 Zerner damping         CNVZerner       .... off
 Static damping         CNVDamp         .... on
   Fraction old density DampFac         ....    0.7000
   Max. Damping (<1)    DampMax         ....    0.9800
   Min. Damping (>=0)   DampMin         ....    0.0000
   Turn off err/grad.   DampErr         ....    0.1000
 Fernandez-Rico         CNVRico         .... off

SCF Procedure:
 Maximum # iterations   MaxIter         ....   125
 SCF integral mode      SCFMode         .... Direct
   Integral package                     .... LIBINT
 Reset frequency        DirectResetFreq ....    20
 Integral Threshold     Thresh          ....  1.000e-12 Eh
 Primitive CutOff       TCut            ....  1.000e-14 Eh

Convergence Tolerance:
 Convergence Check Mode ConvCheckMode   .... Total+1el-Energy
 Convergence forced     ConvForced      .... 0
 Energy Change          TolE            ....  1.000e-09 Eh
 1-El. energy change                    ....  1.000e-06 Eh
 Orbital Gradient       TolG            ....  2.000e-06
 Orbital Rotation angle TolX            ....  2.000e-06
 DIIS Error             TolErr          ....  1.000e-08


Diagonalization of the overlap matrix:
Smallest eigenvalue                        ... 8.204e-05
Time for diagonalization                   ...    0.005 sec
Threshold for overlap eigenvalues          ... 1.000e-08
Number of eigenvalues below threshold      ... 0
Time for construction of square roots      ...    0.004 sec
Total time needed                          ...    0.009 sec

-------------------
DFT GRID GENERATION
-------------------

General Integration Accuracy     IntAcc      ...  5.010
Radial Grid Type                 RadialGrid  ... Gauss-Chebyshev
Angular Grid (max. acc.)         AngularGrid ... Lebedev-434
Angular grid pruning method      GridPruning ... 3 (G Style)
Weight generation scheme         WeightScheme... Becke
Basis function cutoff            BFCut       ...    1.0000e-12
Integration weight cutoff        WCut        ...    1.0000e-14
Grids for H and He will be reduced by one unit

# of grid points (after initial pruning)     ...  11992 (   0.0 sec)
# of grid points (after weights+screening)   ...  11992 (   0.0 sec)
Grid point division into batches done        ...    0.1 sec
Reduced shell lists constructed in    0.1 sec

Total number of grid points                  ...    11992
Total number of batches                      ...      188
Average number of points per batch           ...       63
Average number of grid points per atom       ...    11992
Average number of shells per batch           ...     0.42 ( 1.02%)
Average number of basis functions per batch  ...     1.25 ( 0.69%)
Average number of large shells per batch     ...     0.42 (100.00%)
Average number of large basis fcns per batch ...     1.25 (100.00%)
Maximum spatial batch extension              ...  18.71, 18.71, 18.71 au
Average spatial batch extension              ...   0.97,  0.98,  0.97 au

Time for grid setup =    0.150 sec

------------------------------
INITIAL GUESS: MODEL POTENTIAL
------------------------------
Loading ZORA relativistic densities                ... done
Calculating cut-offs                               ... done
Setting up the integral package                    ... done
Initializing the effective Hamiltonian             ... done
Starting the Coulomb interaction                   ... done (   0.0 sec)
Reading the grid                                   ... done
Mapping shells                                     ... done
Starting the XC term evaluation                    ... done (   0.0 sec)
  promolecular density results
     # of electrons  =     18.000000116
     EX              =    -28.047870263
     EC              =     -1.433252902
     EX+EC           =    -29.481123164
Transforming the Hamiltonian                       ... done (   0.0 sec)
Diagonalizing the Hamiltonian                      ... done (   0.0 sec)
Back transforming the eigenvectors                 ... done (   0.0 sec)
Now organizing SCF variables                       ... done
                      ------------------
                      INITIAL GUESS DONE (   0.2 sec)
                      ------------------
--------------
SCF ITERATIONS
--------------
ITER       Energy         Delta-E        Max-DP      RMS-DP      [F,P]     Damp
               ***  Starting incremental Fock matrix formation  ***
  0   -311.5104658297   0.000000000000 0.00335613  0.00004022  2.8059715 0.7000
  1   -311.5212487649  -0.010782935227 0.00233690  0.00002779  1.9433469 0.7000
  2   -311.5287067693  -0.007458004416 0.00162186  0.00001916  1.3448669 0.7000
  3   -311.5338844095  -0.005177640160 0.00112567  0.00001321  0.9307436 0.7000
                      *** Initiating the SOSCF procedure ***
                      *** Re-Reading the Fockian *** 
                      *** Removing any level shift *** 
ITER      Energy       Delta-E        Grad      Rot      Max-DP    RMS-DP
  4   -311.53748826  -0.0036038537  0.003212  0.003212  0.002604  0.000030
               *** Restarting incremental Fock matrix formation ***
  5   -311.54583360  -0.0083453401  0.007407  0.000040  0.000168  0.000002
  6   -311.54583489  -0.0000012896  0.000215  0.000001  0.000004  0.000000
                  ***Gradient check signals convergence***
              ***Rediagonalizing the Fockian in SOSCF/NRSCF***

               *****************************************************
               *                     SUCCESS                       *
               *           SCF CONVERGED AFTER   7 CYCLES          *
               *****************************************************

Setting up the final grid:

General Integration Accuracy     IntAcc      ...  5.340
Radial Grid Type                 RadialGrid  ... Gauss-Chebyshev
Angular Grid (max. acc.)         AngularGrid ... Lebedev-590
Angular grid pruning method      GridPruning ... 3 (G Style)
Weight generation scheme         WeightScheme... Becke
Basis function cutoff            BFCut       ...    1.0000e-12
Integration weight cutoff        WCut        ...    1.0000e-14
Grids for H and He will be reduced by one unit

# of grid points (after initial pruning)     ...  18110 (   0.0 sec)
# of grid points (after weights+screening)   ...  18110 (   0.0 sec)
Grid point division into batches done        ...    0.2 sec
Reduced shell lists constructed in    0.2 sec

Total number of grid points                  ...    18110
Total number of batches                      ...      283
Average number of points per batch           ...       63
Average number of grid points per atom       ...    18110
Average number of shells per batch           ...     0.00 ( 0.00%)
Average number of basis functions per batch  ...     0.00 ( 0.00%)
Average number of large shells per batch     ...     0.00 ( -nan%)
Average number of large basis fcns per batch ...     0.00 ( -nan%)
Maximum spatial batch extension              ...  19.03, 19.03, 19.03 au
Average spatial batch extension              ...   0.84,  0.84,  0.80 au

Final grid set up in    0.2 sec
Final integration                            ... done (   0.0 sec)
Change in XC energy                          ...     0.000015995
Integrated number of electrons               ...     2.000000071
Previous integrated no of electrons          ...     2.000001288

----------------
TOTAL SCF ENERGY
----------------

Total Energy       :         -311.54581890 Eh           -8477.59272 eV

Components:
Nuclear Repulsion  :            0.00000000 Eh               0.00000 eV
Electronic Energy  :         -311.54581890 Eh           -8477.59272 eV
One Electron Energy:         -323.86293266 Eh           -8812.75843 eV
Two Electron Energy:           12.31711376 Eh             335.16570 eV

Virial components:
Potential Energy   :         -622.92258095 Eh          -16950.58518 eV
Kinetic Energy     :          311.37676205 Eh            8472.99245 eV
Virial Ratio       :            2.00054293


DFT components:
N(Alpha)           :        1.000000035696 electrons
N(Beta)            :        1.000000035696 electrons
N(Total)           :        2.000000071392 electrons
E(X)               :       -9.434476070088 Eh       
E(C)               :       -0.236905503699 Eh       
E(XC)              :       -9.671381573787 Eh       
DFET-embed. en.    :        0.000000000000 Eh       

---------------
SCF CONVERGENCE
---------------

  Last Energy change         ...   -1.1306e-09  Tolerance :   1.0000e-09
  Last MAX-Density change    ...    1.9425e-09  Tolerance :   1.0000e-08
  Last RMS-Density change    ...    1.4324e-11  Tolerance :   1.0000e-09
  Last Orbital Gradient      ...    1.8430e-08  Tolerance :   2.0000e-06
  Last Orbital Rotation      ...    3.5947e-11  Tolerance :   2.0000e-06

================================================================================
                                        WARNING
Number of found core electrons (2) does not match given number of chemical core electrons (10)
================================================================================
             **** THE GBW FILE WAS UPDATED (Ar_cc-pcv5z_2192.575824_.gbw) ****
             **** DENSITY FILE WAS UPDATED (Ar_cc-pcv5z_2192.575824_.scfp) ****
             **** ENERGY FILE WAS UPDATED (Ar_cc-pcv5z_2192.575824_.en.tmp) ****
             **** THE GBW FILE WAS UPDATED (Ar_cc-pcv5z_2192.575824_.gbw) ****
             **** DENSITY FILE WAS UPDATED (Ar_cc-pcv5z_2192.575824_.scfp) ****
----------------
ORBITAL ENERGIES
----------------

  NO   OCC          E(Eh)            E(eV) 
   0   2.0000    -146.360636     -3982.6754 
   1   0.0000     -34.113807      -928.2839 
   2   0.0000     -33.269677      -905.3139 
   3   0.0000     -33.269677      -905.3139 
   4   0.0000     -33.269677      -905.3139 
   5   0.0000     -14.796023      -402.6202 
   6   0.0000     -14.532610      -395.4524 
   7   0.0000     -14.532610      -395.4524 
   8   0.0000     -14.532610      -395.4524 
   9   0.0000     -14.324431      -389.7876 
  10   0.0000     -14.324431      -389.7876 
  11   0.0000     -14.324431      -389.7876 
  12   0.0000     -14.324431      -389.7876 
  13   0.0000     -14.324431      -389.7876 
  14   0.0000      -8.233692      -224.0502 
  15   0.0000      -8.121521      -220.9978 
  16   0.0000      -8.121521      -220.9978 
  17   0.0000      -8.121521      -220.9978 
  18   0.0000      -8.032439      -218.5738 
  19   0.0000      -8.032439      -218.5738 
  20   0.0000      -8.032439      -218.5738 
  21   0.0000      -8.032439      -218.5738 
  22   0.0000      -8.032439      -218.5738 
  23   0.0000      -7.952443      -216.3970 
  24   0.0000      -7.952443      -216.3970 
  25   0.0000      -7.952443      -216.3970 
  26   0.0000      -7.952443      -216.3970 
  27   0.0000      -7.952443      -216.3970 
  28   0.0000      -7.952443      -216.3970 
  29   0.0000      -7.952443      -216.3970 
  30   0.0000      -5.220514      -142.0574 
  31   0.0000      -5.158374      -140.3665 
  32   0.0000      -5.158374      -140.3665 
  33   0.0000      -5.158374      -140.3665 
  34   0.0000      -5.093368      -138.5976 
  35   0.0000      -5.093368      -138.5976 
  36   0.0000      -5.093368      -138.5976 
  37   0.0000      -5.093368      -138.5976 
  38   0.0000      -5.093368      -138.5976 
  39   0.0000      -5.093368      -138.5976 
  40   0.0000      -5.093368      -138.5976 
  41   0.0000      -5.093368      -138.5976 
  42   0.0000      -5.093368      -138.5976 
  43   0.0000      -5.083375      -138.3257 
  44   0.0000      -5.083375      -138.3257 
  45   0.0000      -5.083375      -138.3257 
  46   0.0000      -5.083375      -138.3257 
  47   0.0000      -5.083375      -138.3257 
  48   0.0000      -5.081800      -138.2828 
  49   0.0000      -5.081800      -138.2828 
  50   0.0000      -5.081800      -138.2828 
  51   0.0000      -5.081800      -138.2828 
  52   0.0000      -5.081800      -138.2828 
  53   0.0000      -5.081800      -138.2828 
  54   0.0000      -5.081800      -138.2828 
  55   0.0000      -3.602969       -98.0418 
  56   0.0000      -3.449489       -93.8654 
  57   0.0000      -3.449489       -93.8654 
  58   0.0000      -3.449489       -93.8654 
  59   0.0000      -3.177695       -86.4695 
  60   0.0000      -3.177695       -86.4695 
  61   0.0000      -3.177695       -86.4695 
  62   0.0000      -3.177695       -86.4695 
  63   0.0000      -3.177695       -86.4695 
  64   0.0000      -3.177695       -86.4695 
  65   0.0000      -3.177695       -86.4695 
  66   0.0000      -2.628907       -71.5362 
  67   0.0000      -2.628907       -71.5362 
  68   0.0000      -2.628907       -71.5362 
  69   0.0000      -2.628907       -71.5362 
  70   0.0000      -2.628907       -71.5362 
  71   0.0000      -2.628907       -71.5362 
  72   0.0000      -2.628907       -71.5362 
  73   0.0000      -2.628907       -71.5362 
  74   0.0000      -2.628907       -71.5362 
  75   0.0000      -2.503125       -68.1135 
  76   0.0000      -2.503125       -68.1135 
  77   0.0000      -2.503125       -68.1135 
  78   0.0000      -2.503125       -68.1135 
  79   0.0000      -2.503125       -68.1135 
  80   0.0000      -2.388359       -64.9906 
  81   0.0000      -2.388359       -64.9906 
  82   0.0000      -2.388359       -64.9906 
  83   0.0000      -2.388359       -64.9906 
  84   0.0000      -2.388359       -64.9906 
  85   0.0000      -2.388359       -64.9906 
  86   0.0000      -2.388359       -64.9906 
  87   0.0000      -2.388359       -64.9906 
  88   0.0000      -2.388359       -64.9906 
  89   0.0000      -2.388359       -64.9906 
  90   0.0000      -2.388359       -64.9906 
  91   0.0000      -1.558666       -42.4135 
  92   0.0000      -1.558666       -42.4135 
  93   0.0000      -1.558666       -42.4135 
  94   0.0000       2.718504        73.9742 
  95   0.0000       4.206448       114.4633 
  96   0.0000       4.206448       114.4633 
  97   0.0000       4.206448       114.4633 
  98   0.0000       4.206448       114.4633 
  99   0.0000       4.206448       114.4633 
 100   0.0000       4.206448       114.4633 
 101   0.0000       4.206448       114.4633 
 102   0.0000      11.324849       308.1648 
 103   0.0000      11.324849       308.1648 
 104   0.0000      11.324849       308.1648 
 105   0.0000      11.324849       308.1648 
 106   0.0000      11.324849       308.1648 
 107   0.0000      14.722755       400.6265 
 108   0.0000      14.722755       400.6265 
 109   0.0000      14.722755       400.6265 
 110   0.0000      23.172158       630.5465 
 111   0.0000      23.172158       630.5465 
 112   0.0000      23.172158       630.5465 
 113   0.0000      23.172158       630.5465 
 114   0.0000      23.172158       630.5465 
 115   0.0000      23.172158       630.5465 
 116   0.0000      23.172158       630.5465 
 117   0.0000      23.172158       630.5465 
 118   0.0000      23.172158       630.5465 
 119   0.0000      29.214758       794.9740 
 120   0.0000      38.703235      1053.1686 
 121   0.0000      38.703235      1053.1686 
 122   0.0000      38.703235      1053.1686 
 123   0.0000      38.703235      1053.1686 
 124   0.0000      38.703235      1053.1686 
 125   0.0000      38.703235      1053.1686 
 126   0.0000      38.703235      1053.1686 
 127   0.0000      49.006814      1333.5432 
 128   0.0000      49.006814      1333.5432 
 129   0.0000      49.006814      1333.5432 
 130   0.0000      49.006814      1333.5432 
 131   0.0000      49.006814      1333.5432 
 132   0.0000      68.688613      1869.1122 
 133   0.0000      68.688613      1869.1122 
 134   0.0000      68.688613      1869.1122 
 135   0.0000      93.565133      2546.0367 
 136   0.0000      93.565133      2546.0367 
 137   0.0000      93.565133      2546.0367 
 138   0.0000      93.565133      2546.0367 
 139   0.0000      93.565133      2546.0367 
 140   0.0000      93.565133      2546.0367 
 141   0.0000      93.565133      2546.0367 
 142   0.0000      93.565133      2546.0367 
 143   0.0000      93.565133      2546.0367 
 144   0.0000      93.565133      2546.0367 
 145   0.0000      93.565133      2546.0367 
 146   0.0000     107.113002      2914.6930 
 147   0.0000     111.590212      3036.5240 
 148   0.0000     111.590212      3036.5240 
 149   0.0000     111.590212      3036.5240 
 150   0.0000     111.590212      3036.5240 
 151   0.0000     111.590212      3036.5240 
 152   0.0000     111.590212      3036.5240 
 153   0.0000     111.590212      3036.5240 
 154   0.0000     111.590212      3036.5240 
 155   0.0000     111.590212      3036.5240 
 156   0.0000     136.746607      3721.0643 
 157   0.0000     136.746607      3721.0643 
 158   0.0000     136.746607      3721.0643 
 159   0.0000     136.746607      3721.0643 
 160   0.0000     136.746607      3721.0643 
 161   0.0000     137.580060      3743.7438 
 162   0.0000     137.580060      3743.7438 
 163   0.0000     137.580060      3743.7438 
 164   0.0000     137.580060      3743.7438 
 165   0.0000     137.580060      3743.7438 
 166   0.0000     137.580060      3743.7438 
 167   0.0000     137.580060      3743.7438 
 168   0.0000     225.798999      6144.3031 
 169   0.0000     225.798999      6144.3031 
 170   0.0000     225.798999      6144.3031 
 171   0.0000     334.413463      9099.8530 
 172   0.0000     334.413463      9099.8530 
 173   0.0000     334.413463      9099.8530 
 174   0.0000     334.413463      9099.8530 
 175   0.0000     334.413463      9099.8530 
 176   0.0000     335.816490      9138.0312 
 177   0.0000     793.058632     21580.2225 
 178   0.0000     793.058632     21580.2225 
 179   0.0000     793.058632     21580.2225 
 180   0.0000    1571.206849     42754.7120 

                    ********************************
                    * MULLIKEN POPULATION ANALYSIS *
                    ********************************

-----------------------
MULLIKEN ATOMIC CHARGES
-----------------------
   0 Ar:   16.000000
Sum of atomic charges:   16.0000000

--------------------------------
MULLIKEN REDUCED ORBITAL CHARGES
--------------------------------
  0 Ars       :     2.000000  s :     2.000000
      pz      :     0.000000  p :     0.000000
      px      :     0.000000
      py      :     0.000000
      dz2     :     0.000000  d :     0.000000
      dxz     :     0.000000
      dyz     :     0.000000
      dx2y2   :     0.000000
      dxy     :     0.000000
      f0      :     0.000000  f :     0.000000
      f+1     :     0.000000
      f-1     :     0.000000
      f+2     :     0.000000
      f-2     :     0.000000
      f+3     :     0.000000
      f-3     :     0.000000
      g0      :     0.000000  g :     0.000000
      g+1     :     0.000000
      g-1     :     0.000000
      g+2     :     0.000000
      g-2     :     0.000000
      g+3     :     0.000000
      g-3     :     0.000000
      g+4     :     0.000000
      g-4     :     0.000000
      h0      :     0.000000  h :     0.000000
      h+1     :     0.000000
      h-1     :     0.000000
      h+2     :     0.000000
      h-2     :     0.000000
      h+3     :     0.000000
      h-3     :     0.000000
      h+4     :     0.000000
      h-4     :     0.000000
      h+5     :     0.000000
      h-5     :     0.000000


                     *******************************
                     * LOEWDIN POPULATION ANALYSIS *
                     *******************************

----------------------
LOEWDIN ATOMIC CHARGES
----------------------
   0 Ar:   16.000000

-------------------------------
LOEWDIN REDUCED ORBITAL CHARGES
-------------------------------
  0 Ars       :     2.000000  s :     2.000000
      pz      :     0.000000  p :     0.000000
      px      :     0.000000
      py      :     0.000000
      dz2     :     0.000000  d :     0.000000
      dxz     :     0.000000
      dyz     :     0.000000
      dx2y2   :     0.000000
      dxy     :     0.000000
      f0      :     0.000000  f :     0.000000
      f+1     :     0.000000
      f-1     :     0.000000
      f+2     :     0.000000
      f-2     :     0.000000
      f+3     :     0.000000
      f-3     :     0.000000
      g0      :     0.000000  g :     0.000000
      g+1     :     0.000000
      g-1     :     0.000000
      g+2     :     0.000000
      g-2     :     0.000000
      g+3     :     0.000000
      g-3     :     0.000000
      g+4     :     0.000000
      g-4     :     0.000000
      h0      :     0.000000  h :     0.000000
      h+1     :     0.000000
      h-1     :     0.000000
      h+2     :     0.000000
      h-2     :     0.000000
      h+3     :     0.000000
      h-3     :     0.000000
      h+4     :     0.000000
      h-4     :     0.000000
      h+5     :     0.000000
      h-5     :     0.000000


                      *****************************
                      * MAYER POPULATION ANALYSIS *
                      *****************************

  NA   - Mulliken gross atomic population
  ZA   - Total nuclear charge
  QA   - Mulliken gross atomic charge
  VA   - Mayer's total valence
  BVA  - Mayer's bonded valence
  FA   - Mayer's free valence

  ATOM       NA         ZA         QA         VA         BVA        FA
  0 Ar     2.0000    18.0000    16.0000    -0.0000     0.0000    -0.0000

  Mayer bond orders larger than 0.100000


--------------------------
ATOM BASIS FOR ELEMENT Ar
--------------------------
 NewGTO Ar
 S 31
    1    7401000.000000000000         0.000001827842
    2    1108000.000000000000         0.000013810365
    3     252100.000000000000         0.000072707511
    4      71380.000000000000         0.000307686815
    5      23260.000000000000         0.001123209194
    6       8390.000000000000         0.003662488564
    7       3271.000000000000         0.010878912158
    8       1357.000000000000         0.029557025017
    9        592.000000000000         0.072768540973
   10        269.100000000000         0.156524750732
   11        126.500000000000         0.274599921312
   12    7401000.000000000000        -0.000000015293
   13    1108000.000000000000        -0.000000119284
   14     252100.000000000000        -0.000000620887
   15      71380.000000000000        -0.000002633417
   16      23260.000000000000        -0.000009616103
   17       8390.000000000000        -0.000031454198
   18       3271.000000000000        -0.000093980275
   19       1357.000000000000        -0.000259221864
   20        592.000000000000        -0.000658204481
   21        269.100000000000        -0.001512434926
   22        126.500000000000        -0.003021117003
   23         61.030000000000         0.338847047952
   24         29.860000000000         0.225039624142
   25         14.170000000000         0.041586157559
   26          7.022000000000        -0.001724451067
   27          3.511000000000         0.000865054978
   28          1.758000000000        -0.000348867349
   29          0.784100000000         0.000129979703
   30          0.348000000000        -0.000049155691
   31          0.149100000000         0.000011961428
 S 31
    1    7401000.000000000000        -0.000000075834
    2    1108000.000000000000        -0.000000572965
    3     252100.000000000000        -0.000003016492
    4      71380.000000000000        -0.000012765323
    5      23260.000000000000        -0.000046599750
    6       8390.000000000000        -0.000151949477
    7       3271.000000000000        -0.000451344758
    8       1357.000000000000        -0.001226263077
    9        592.000000000000        -0.003019024239
   10        269.100000000000        -0.006493905336
   11        126.500000000000        -0.011392612899
   12    7401000.000000000000         0.000000674154
   13    1108000.000000000000         0.000005258403
   14     252100.000000000000         0.000027370660
   15      71380.000000000000         0.000116089352
   16      23260.000000000000         0.000423908158
   17       8390.000000000000         0.001386600349
   18       3271.000000000000         0.004142947193
   19       1357.000000000000         0.011427318107
   20        592.000000000000         0.029015731408
   21        269.100000000000         0.066672906125
   22        126.500000000000         0.133180374809
   23         61.030000000000         0.200260097070
   24         29.860000000000         0.186425906019
   25         14.170000000000        -0.181515212792
   26          7.022000000000        -0.662000804313
   27          3.511000000000        -0.344437462452
   28          1.758000000000        -0.008988095364
   29          0.784100000000        -0.002760219444
   30          0.348000000000         0.001124857108
   31          0.149100000000        -0.000278829029
 S 31
    1    7401000.000000000000         0.000000116963
    2    1108000.000000000000         0.000000883721
    3     252100.000000000000         0.000004652532
    4      71380.000000000000         0.000019688789
    5      23260.000000000000         0.000071873826
    6       8390.000000000000         0.000234361565
    7       3271.000000000000         0.000696138386
    8       1357.000000000000         0.001891345330
    9        592.000000000000         0.004656437515
   10        269.100000000000         0.010015972720
   11        126.500000000000         0.017571568126
   12    7401000.000000000000        -0.000000433507
   13    1108000.000000000000        -0.000003381354
   14     252100.000000000000        -0.000017600383
   15      71380.000000000000        -0.000074649900
   16      23260.000000000000        -0.000272589182
   17       8390.000000000000        -0.000891637133
   18       3271.000000000000        -0.002664073725
   19       1357.000000000000        -0.007348203223
   20        592.000000000000        -0.018658226632
   21        269.100000000000        -0.042873232289
   22        126.500000000000        -0.085640081968
   23         61.030000000000        -0.118407385493
   24         29.860000000000        -0.121071923489
   25         14.170000000000         0.154855443782
   26          7.022000000000         0.806022218847
   27          3.511000000000         0.408422023345
   28          1.758000000000        -1.279127502579
   29          0.784100000000        -0.333508705373
   30          0.348000000000         0.039436599809
   31          0.149100000000        -0.007982640825
 S 31
    1    7401000.000000000000        -0.000000110022
    2    1108000.000000000000        -0.000000831277
    3     252100.000000000000        -0.000004376430
    4      71380.000000000000        -0.000018520369
    5      23260.000000000000        -0.000067608516
    6       8390.000000000000        -0.000220453516
    7       3271.000000000000        -0.000654826465
    8       1357.000000000000        -0.001779104559
    9        592.000000000000        -0.004380103982
   10        269.100000000000        -0.009421580738
   11        126.500000000000        -0.016528793798
   12    7401000.000000000000         0.000000312495
   13    1108000.000000000000         0.000002437463
   14     252100.000000000000         0.000012687310
   15      71380.000000000000         0.000053811693
   16      23260.000000000000         0.000196497054
   17       8390.000000000000         0.000642740364
   18       3271.000000000000         0.001920408709
   19       1357.000000000000         0.005296983087
   20        592.000000000000         0.013449860858
   21        269.100000000000         0.030905349163
   22        126.500000000000         0.061734011975
   23         61.030000000000         0.075730131681
   24         29.860000000000         0.095530625657
   25         14.170000000000        -0.148726349356
   26          7.022000000000        -0.624632139568
   27          3.511000000000        -0.541990833060
   28          1.758000000000         2.717306987716
   29          0.784100000000        -1.331015208627
   30          0.348000000000        -0.847749395552
   31          0.149100000000         0.091348815020
 S 31
    1    7401000.000000000000        -0.000000117580
    2    1108000.000000000000        -0.000000888382
    3     252100.000000000000        -0.000004677071
    4      71380.000000000000        -0.000019792632
    5      23260.000000000000        -0.000072252905
    6       8390.000000000000        -0.000235597642
    7       3271.000000000000        -0.000699809980
    8       1357.000000000000        -0.001901320720
    9        592.000000000000        -0.004680996638
   10        269.100000000000        -0.010068799266
   11        126.500000000000        -0.017664244620
   12    7401000.000000000000         0.000000263887
   13    1108000.000000000000         0.000002058321
   14     252100.000000000000         0.000010713823
   15      71380.000000000000         0.000045441388
   16      23260.000000000000         0.000165932317
   17       8390.000000000000         0.000542763343
   18       3271.000000000000         0.001621692846
   19       1357.000000000000         0.004473047606
   20        592.000000000000         0.011357760997
   21        269.100000000000         0.026098081834
   22        126.500000000000         0.052131405732
   23         61.030000000000         0.050316783431
   24         29.860000000000         0.093826766765
   25         14.170000000000        -0.176781687973
   26          7.022000000000        -0.383814187097
   27          3.511000000000        -0.806243939517
   28          1.758000000000         3.876735117127
   29          0.784100000000        -4.693620214706
   30          0.348000000000         1.662154888379
   31          0.149100000000         0.765023863630
 S 31
    1    7401000.000000000000        -0.000000109668
    2    1108000.000000000000        -0.000000828605
    3     252100.000000000000        -0.000004362360
    4      71380.000000000000        -0.000018460827
    5      23260.000000000000        -0.000067391158
    6       8390.000000000000        -0.000219744769
    7       3271.000000000000        -0.000652721231
    8       1357.000000000000        -0.001773384827
    9        592.000000000000        -0.004366022167
   10        269.100000000000        -0.009391290828
   11        126.500000000000        -0.016475654556
   12    7401000.000000000000         0.000000230860
   13    1108000.000000000000         0.000001800708
   14     252100.000000000000         0.000009372916
   15      71380.000000000000         0.000039754091
   16      23260.000000000000         0.000145164766
   17       8390.000000000000         0.000474832841
   18       3271.000000000000         0.001418727022
   19       1357.000000000000         0.003913215455
   20        592.000000000000         0.009936260418
   21        269.100000000000         0.022831730443
   22        126.500000000000         0.045606807842
   23         61.030000000000         0.040504838831
   24         29.860000000000         0.085737249330
   25         14.170000000000        -0.169919378439
   26          7.022000000000        -0.305388072687
   27          3.511000000000        -0.849429399564
   28          1.758000000000         4.404700624146
   29          0.784100000000        -7.560756570515
   30          0.348000000000         7.273868962562
   31          0.149100000000        -3.299806044107
 S 31
    1    7401000.000000000000         0.000000907325
    2    1108000.000000000000         0.000006855342
    3     252100.000000000000         0.000036091361
    4      71380.000000000000         0.000152732993
    5      23260.000000000000         0.000557551034
    6       8390.000000000000         0.001818026682
    7       3271.000000000000         0.005400195041
    8       1357.000000000000         0.014671843801
    9        592.000000000000         0.036121655214
   10        269.100000000000         0.077697491288
   11        126.500000000000         0.136308953658
   12    7401000.000000000000        -0.000000446378
   13    1108000.000000000000        -0.000003481752
   14     252100.000000000000        -0.000018122963
   15      71380.000000000000        -0.000076866360
   16      23260.000000000000        -0.000280682737
   17       8390.000000000000        -0.000918111091
   18       3271.000000000000        -0.002743173813
   19       1357.000000000000        -0.007566381689
   20        592.000000000000        -0.019212215565
   21        269.100000000000        -0.044146198723
   22        126.500000000000        -0.088182856187
   23         61.030000000000         0.392572163718
   24         29.860000000000        -0.654578022391
   25         14.170000000000         2.209110046223
   26          7.022000000000        -8.956606885076
   27          3.511000000000        16.369071865906
   28          1.758000000000       -15.775806534175
   29          0.784100000000         9.831245245689
   30          0.348000000000        -4.685994568443
   31          0.149100000000         1.268111110491
 S 31
    1    7401000.000000000000         0.000004959933
    2    1108000.000000000000         0.000037475050
    3     252100.000000000000         0.000197295115
    4      71380.000000000000         0.000834922067
    5      23260.000000000000         0.003047878872
    6       8390.000000000000         0.009938328114
    7       3271.000000000000         0.029520419428
    8       1357.000000000000         0.080204322163
    9        592.000000000000         0.197460722120
   10        269.100000000000         0.424736979686
   11        126.500000000000         0.745139287270
   12    7401000.000000000000        -0.000005244086
   13    1108000.000000000000        -0.000040903869
   14     252100.000000000000        -0.000212909884
   15      71380.000000000000        -0.000903031578
   16      23260.000000000000        -0.003297481164
   17       8390.000000000000        -0.010786035716
   18       3271.000000000000        -0.032227005003
   19       1357.000000000000        -0.088890401115
   20        592.000000000000        -0.225706502546
   21        269.100000000000        -0.518632745962
   22        126.500000000000        -1.035978593263
   23         61.030000000000         0.653732926765
   24         29.860000000000        -3.939460144133
   25         14.170000000000        12.496424948470
   26          7.022000000000       -19.008198940806
   27          3.511000000000        17.513537882760
   28          1.758000000000       -10.810614532550
   29          0.784100000000         4.989273465392
   30          0.348000000000        -2.048268133476
   31          0.149100000000         0.515524316907
 S 31
    1    7401000.000000000000        -0.000011871723
    2    1108000.000000000000        -0.000089697460
    3     252100.000000000000        -0.000472230747
    4      71380.000000000000        -0.001998406654
    5      23260.000000000000        -0.007295173599
    6       8390.000000000000        -0.023787634589
    7       3271.000000000000        -0.070657855346
    8       1357.000000000000        -0.191971032371
    9        592.000000000000        -0.472627131008
   10        269.100000000000        -1.016618484862
   11        126.500000000000        -1.783509346881
   12    7401000.000000000000         0.000009635878
   13    1108000.000000000000         0.000075159846
   14     252100.000000000000         0.000391216637
   15      71380.000000000000         0.001659298149
   16      23260.000000000000         0.006059039932
   17       8390.000000000000         0.019819073364
   18       3271.000000000000         0.059216323148
   19       1357.000000000000         0.163333909453
   20        592.000000000000         0.414730105698
   21        269.100000000000         0.952974819619
   22        126.500000000000         1.903584994838
   23         61.030000000000        -4.465116443940
   24         29.860000000000        12.328319886667
   25         14.170000000000       -16.692142887116
   26          7.022000000000        15.449578013849
   27          3.511000000000       -10.847021461433
   28          1.758000000000         5.905368792742
   29          0.784100000000        -2.589972828549
   30          0.348000000000         1.049817898610
   31          0.149100000000        -0.263383257206
 S 31
    1    7401000.000000000000        -0.000070954179
    2    1108000.000000000000        -0.000536098239
    3     252100.000000000000        -0.002822399553
    4      71380.000000000000        -0.011943953417
    5      23260.000000000000        -0.043601342822
    6       8390.000000000000        -0.142172464656
    7       3271.000000000000        -0.422303504132
    8       1357.000000000000        -1.147360605055
    9        592.000000000000        -2.824768634625
   10        269.100000000000        -6.076062547017
   11        126.500000000000       -10.659568467618
   12    7401000.000000000000         0.000068078234
   13    1108000.000000000000         0.000531010224
   14     252100.000000000000         0.002763976293
   15      71380.000000000000         0.011723071863
   16      23260.000000000000         0.042807593423
   17       8390.000000000000         0.140023311310
   18       3271.000000000000         0.418367978084
   19       1357.000000000000         1.153966910098
   20        592.000000000000         2.930100799029
   21        269.100000000000         6.732842014741
   22        126.500000000000        13.448977630903
   23         61.030000000000        -9.872434717951
   24         29.860000000000        12.951929985866
   25         14.170000000000       -11.727881778143
   26          7.022000000000         9.141103760908
   27          3.511000000000        -6.043928069977
   28          1.758000000000         3.249097837129
   29          0.784100000000        -1.428734292551
   30          0.348000000000         0.581684152542
   31          0.149100000000        -0.146315950041
 S 31
    1    7401000.000000000000        -0.000259132305
    2    1108000.000000000000        -0.001957888526
    3     252100.000000000000        -0.010307707237
    4      71380.000000000000        -0.043620604650
    5      23260.000000000000        -0.159236801330
    6       8390.000000000000        -0.519229157722
    7       3271.000000000000        -1.542297893506
    8       1357.000000000000        -4.190284539325
    9        592.000000000000       -10.316359377069
   10        269.100000000000       -22.190435019781
   11        126.500000000000       -38.929892440908
   12    7401000.000000000000         0.000222022045
   13    1108000.000000000000         0.001731771951
   14     252100.000000000000         0.009014095027
   15      71380.000000000000         0.038232196149
   16      23260.000000000000         0.139607461896
   17       8390.000000000000         0.456654942156
   18       3271.000000000000         1.364414275342
   19       1357.000000000000         3.763406875974
   20        592.000000000000         9.555873221202
   21        269.100000000000        21.957669419621
   22        126.500000000000        43.860854629399
   23         61.030000000000        -8.405421461151
   24         29.860000000000         8.471009057714
   25         14.170000000000        -7.019475187070
   26          7.022000000000         5.413958460308
   27          3.511000000000        -3.616918056727
   28          1.758000000000         1.968047973239
   29          0.784100000000        -0.873978035296
   30          0.348000000000         0.357728221914
   31          0.149100000000        -0.090212045915
 P 12
    1       2927.000000000000         0.000312094382
    2        693.500000000000         0.002721812769
    3        224.700000000000         0.014843316408
    4         85.170000000000         0.061005268405
    5         35.530000000000         0.187263272892
    6         15.730000000000         0.392893117002
    7          7.165000000000         0.403490239790
    8          3.322000000000         0.103654975609
    9          1.478000000000        -0.000969371295
   10          0.655200000000         0.000812377370
   11          0.275100000000        -0.000282118570
   12          0.109700000000         0.000073371232
 P 12
    1       2927.000000000000         0.000184889210
    2        693.500000000000         0.001612441115
    3        224.700000000000         0.008793394582
    4         85.170000000000         0.036561907877
    5         35.530000000000         0.123493166240
    6         15.730000000000         0.272288634146
    7          7.165000000000         0.278423446779
    8          3.322000000000        -0.546833055968
    9          1.478000000000        -0.656606189832
   10          0.655200000000         0.008885111625
   11          0.275100000000        -0.014261581690
   12          0.109700000000         0.004183705919
 P 12
    1       2927.000000000000         0.000125634440
    2        693.500000000000         0.001095673117
    3        224.700000000000         0.005975217303
    4         85.170000000000         0.023544671009
    5         35.530000000000         0.089419426368
    6         15.730000000000         0.179650951485
    7          7.165000000000         0.232351176546
    8          3.322000000000        -0.819521107473
    9          1.478000000000        -0.382011331367
   10          0.655200000000         1.310407472569
   11          0.275100000000        -0.004466293539
   12          0.109700000000         0.013566301750
 P 12
    1       2927.000000000000         0.000092888264
    2        693.500000000000         0.000810089764
    3        224.700000000000         0.004417797882
    4         85.170000000000         0.015298894639
    5         35.530000000000         0.070784335072
    6         15.730000000000         0.110805686491
    7          7.165000000000         0.229660024973
    8          3.322000000000        -0.926380193544
    9          1.478000000000         0.240053784579
   10          0.655200000000         1.547024797244
   11          0.275100000000        -1.806640354948
   12          0.109700000000         0.099724153675
 P 12
    1       2927.000000000000         0.000069274807
    2        693.500000000000         0.000604153955
    3        224.700000000000         0.003294733722
    4         85.170000000000         0.009012751349
    5         35.530000000000         0.057268807391
    6         15.730000000000         0.054698434373
    7          7.165000000000         0.235439602804
    8          3.322000000000        -0.940852989932
    9          1.478000000000         0.860073448947
   10          0.655200000000         0.429416096515
   11          0.275100000000        -1.875311669205
   12          0.109700000000         1.753525527715
 P 12
    1       2927.000000000000        -0.000189283233
    2        693.500000000000        -0.001650761916
    3        224.700000000000        -0.009002375811
    4         85.170000000000        -0.018342435401
    5         35.530000000000        -0.168585612166
    6         15.730000000000        -0.073720210611
    7          7.165000000000        -0.831543915592
    8          3.322000000000         3.399209860108
    9          1.478000000000        -5.214258447621
   10          0.655200000000         4.798225085116
   11          0.275100000000        -2.974147084636
   12          0.109700000000         1.112197449929
 P 12
    1       2927.000000000000         0.000132261931
    2        693.500000000000         0.001153472261
    3        224.700000000000         0.006290423038
    4         85.170000000000         0.171260444240
    5         35.530000000000        -0.142597248928
    6         15.730000000000         2.344250297202
    7          7.165000000000        -5.283716705416
    8          3.322000000000         5.563981841901
    9          1.478000000000        -3.872449671886
   10          0.655200000000         2.143363500964
   11          0.275100000000        -0.931508897909
   12          0.109700000000         0.270558630339
 P 12
    1       2927.000000000000         0.001615146972
    2        693.500000000000         0.014085891677
    3        224.700000000000         0.076816946951
    4         85.170000000000        -0.200044129303
    5         35.530000000000         2.732852377127
    6         15.730000000000        -5.028606558031
    7          7.165000000000         4.871134123262
    8          3.322000000000        -3.336062622395
    9          1.478000000000         1.885161257086
   10          0.655200000000        -0.965061104360
   11          0.275100000000         0.407461631579
   12          0.109700000000        -0.116699308422
 P 12
    1       2927.000000000000        -0.001239044906
    2        693.500000000000        -0.010805860167
    3        224.700000000000        -0.058929402998
    4         85.170000000000         2.383723801202
    5         35.530000000000        -4.021478741759
    6         15.730000000000         3.787459201362
    7          7.165000000000        -2.754660747395
    8          3.322000000000         1.708041210106
    9          1.478000000000        -0.942788896695
   10          0.655200000000         0.482445281476
   11          0.275100000000        -0.204099709748
   12          0.109700000000         0.058469462977
 P 12
    1       2927.000000000000         0.032399345297
    2        693.500000000000         0.282558600600
    3        224.700000000000         1.540924034506
    4         85.170000000000        -2.603850283973
    5         35.530000000000         2.504243997097
    6         15.730000000000        -1.961821004824
    7          7.165000000000         1.370352553264
    8          3.322000000000        -0.852631882716
    9          1.478000000000         0.475609966979
   10          0.655200000000        -0.245140738272
   11          0.275100000000         0.104078670613
   12          0.109700000000        -0.029850919680
 D 8
    1          0.309000000000         0.006186534941
    2          0.770000000000         0.000871516241
    3          1.917000000000         0.433696219369
    4          4.776000000000         0.507776663566
    5         76.808000000000         0.006822719512
    6         38.737000000000         0.006414776759
    7         19.537000000000         0.072312332471
    8          9.853000000000         0.138866477790
 D 8
    1          0.309000000000         0.002911453209
    2          0.770000000000        -0.889827809080
    3          1.917000000000        -0.170214389022
    4          4.776000000000         0.473539610731
    5         76.808000000000         0.006290285230
    6         38.737000000000         0.001014316863
    7         19.537000000000         0.069556306541
    8          9.853000000000         0.093804628952
 D 8
    1          0.309000000000         1.176914401963
    2          0.770000000000        -0.440464574422
    3          1.917000000000        -0.550908593012
    4          4.776000000000         0.429541401528
    5         76.808000000000         0.005925796002
    6         38.737000000000        -0.004267795816
    7         19.537000000000         0.067189910841
    8          9.853000000000         0.043463815567
 D 8
    1          0.309000000000        -1.094681073333
    2          0.770000000000         2.135268429777
    3          1.917000000000        -2.140738126131
    4          4.776000000000         0.977833208999
    5         76.808000000000         0.013950198860
    6         38.737000000000        -0.021278525290
    7         19.537000000000         0.161664642632
    8          9.853000000000        -0.000103397844
 D 8
    1          0.309000000000         0.331289634667
    2          0.770000000000        -0.973033697375
    3          1.917000000000         1.926236171605
    4          4.776000000000        -3.081256207871
    5         76.808000000000        -0.040178756477
    6         38.737000000000         0.282323612635
    7         19.537000000000        -0.539372893292
    8          9.853000000000         2.509808070563
 D 8
    1          0.309000000000        -0.153048185952
    2          0.770000000000         0.469572052461
    3          1.917000000000        -1.067091411974
    4          4.776000000000         2.531444160087
    5         76.808000000000         0.213189109029
    6         38.737000000000        -0.707997499870
    7         19.537000000000         3.245794794094
    8          9.853000000000        -4.114178605183
 D 8
    1          0.309000000000         0.083927862788
    2          0.770000000000        -0.257942017395
    3          1.917000000000         0.595611770441
    4          4.776000000000        -1.556158719270
    5         76.808000000000        -0.405836440674
    6         38.737000000000         3.166585540865
    7         19.537000000000        -4.442364052606
    8          9.853000000000         3.258676314843
 D 8
    1          0.309000000000        -0.048716443790
    2          0.770000000000         0.149344665859
    3          1.917000000000        -0.343397762596
    4          4.776000000000         0.905420995007
    5         76.808000000000         2.547429841095
    6         38.737000000000        -4.047545602442
    7         19.537000000000         3.387799582120
    8          9.853000000000        -2.023978552978
 F 6
    1          0.408000000000         0.074404191883
    2          0.825000000000         0.165765998302
    3          1.668000000000         0.754260497877
    4         35.873000000000         0.007679956604
    5         15.140000000000        -0.014684028077
    6          6.390000000000         0.187568321219
 F 6
    1          0.408000000000        -0.685355176742
    2          0.825000000000        -0.549343853741
    3          1.668000000000         0.705354404513
    4         35.873000000000         0.006890174334
    5         15.140000000000        -0.012536085819
    6          6.390000000000         0.178208419280
 F 6
    1          0.408000000000         1.618592928768
    2          0.825000000000        -2.307648817771
    3          1.668000000000         1.040833704301
    4         35.873000000000         0.007443698235
    5         15.140000000000        -0.010141926065
    6          6.390000000000         0.216429594942
 F 6
    1          0.408000000000        -0.576256343275
    2          0.825000000000         1.401977607981
    3          1.668000000000        -1.469948786248
    4         35.873000000000         0.043218505083
    5         15.140000000000        -0.097761375085
    6          6.390000000000         1.164711047621
 F 6
    1          0.408000000000         0.179055181357
    2          0.825000000000        -0.465396174705
    3          1.668000000000         0.577565882597
    4         35.873000000000        -0.150542440911
    5         15.140000000000         1.542513529499
    6          6.390000000000        -1.128464479804
 F 6
    1          0.408000000000        -0.077463843411
    2          0.825000000000         0.201377979124
    3          1.668000000000        -0.253139359296
    4         35.873000000000         1.473433400715
    5         15.140000000000        -1.297158425327
    6          6.390000000000         0.586987742149
 G 4
    1          0.665000000000        -0.673819582144
    2          1.562000000000        -0.431594759769
    3         26.560000000000         0.002556663951
    4         10.306000000000        -0.016461733055
 G 4
    1          0.665000000000         1.071368673950
    2          1.562000000000        -1.184260663341
    3         26.560000000000         0.005095244012
    4         10.306000000000        -0.035000988422
 G 4
    1          0.665000000000        -0.116518503614
    2          1.562000000000         0.224121452825
    3         26.560000000000         0.118841303642
    4         10.306000000000        -1.070207902480
 G 4
    1          0.665000000000        -0.037325165475
    2          1.562000000000         0.073945692417
    3         26.560000000000         1.196256187916
    4         10.306000000000        -0.569924150343
 H 2
    1          1.264000000000         0.999993336738
    2         21.104000000000         0.000943385517
 H 2
    1          1.264000000000        -0.007534970885
    2         21.104000000000         1.000021279439
 end
  // -----------------------------------------------
  // The basis set
  // -----------------------------------------------
  BAS[ATNO] = new BFNGauss[NSH];
  // Basis function   1 L = s
  InitBFNGauss(BAS[ATNO][  0]);
  BAS[ATNO][  0].l  = 0;
  BAS[ATNO][  0].ng = 31;
  BAS[ATNO][  0].a[  0] =   7401000.000000000000;     BAS[ATNO][  0].d[  0] =         0.000001827842;
  BAS[ATNO][  0].a[  1] =   1108000.000000000000;     BAS[ATNO][  0].d[  1] =         0.000013810365;
  BAS[ATNO][  0].a[  2] =    252100.000000000000;     BAS[ATNO][  0].d[  2] =         0.000072707511;
  BAS[ATNO][  0].a[  3] =     71380.000000000000;     BAS[ATNO][  0].d[  3] =         0.000307686815;
  BAS[ATNO][  0].a[  4] =     23260.000000000000;     BAS[ATNO][  0].d[  4] =         0.001123209194;
  BAS[ATNO][  0].a[  5] =      8390.000000000000;     BAS[ATNO][  0].d[  5] =         0.003662488564;
  BAS[ATNO][  0].a[  6] =      3271.000000000000;     BAS[ATNO][  0].d[  6] =         0.010878912158;
  BAS[ATNO][  0].a[  7] =      1357.000000000000;     BAS[ATNO][  0].d[  7] =         0.029557025017;
  BAS[ATNO][  0].a[  8] =       592.000000000000;     BAS[ATNO][  0].d[  8] =         0.072768540973;
  BAS[ATNO][  0].a[  9] =       269.100000000000;     BAS[ATNO][  0].d[  9] =         0.156524750732;
  BAS[ATNO][  0].a[ 10] =       126.500000000000;     BAS[ATNO][  0].d[ 10] =         0.274599921312;
  BAS[ATNO][  0].a[ 11] =   7401000.000000000000;     BAS[ATNO][  0].d[ 11] =        -0.000000015293;
  BAS[ATNO][  0].a[ 12] =   1108000.000000000000;     BAS[ATNO][  0].d[ 12] =        -0.000000119284;
  BAS[ATNO][  0].a[ 13] =    252100.000000000000;     BAS[ATNO][  0].d[ 13] =        -0.000000620887;
  BAS[ATNO][  0].a[ 14] =     71380.000000000000;     BAS[ATNO][  0].d[ 14] =        -0.000002633417;
  BAS[ATNO][  0].a[ 15] =     23260.000000000000;     BAS[ATNO][  0].d[ 15] =        -0.000009616103;
  BAS[ATNO][  0].a[ 16] =      8390.000000000000;     BAS[ATNO][  0].d[ 16] =        -0.000031454198;
  BAS[ATNO][  0].a[ 17] =      3271.000000000000;     BAS[ATNO][  0].d[ 17] =        -0.000093980275;
  BAS[ATNO][  0].a[ 18] =      1357.000000000000;     BAS[ATNO][  0].d[ 18] =        -0.000259221864;
  BAS[ATNO][  0].a[ 19] =       592.000000000000;     BAS[ATNO][  0].d[ 19] =        -0.000658204481;
  BAS[ATNO][  0].a[ 20] =       269.100000000000;     BAS[ATNO][  0].d[ 20] =        -0.001512434926;
  BAS[ATNO][  0].a[ 21] =       126.500000000000;     BAS[ATNO][  0].d[ 21] =        -0.003021117003;
  BAS[ATNO][  0].a[ 22] =        61.030000000000;     BAS[ATNO][  0].d[ 22] =         0.338847047952;
  BAS[ATNO][  0].a[ 23] =        29.860000000000;     BAS[ATNO][  0].d[ 23] =         0.225039624142;
  BAS[ATNO][  0].a[ 24] =        14.170000000000;     BAS[ATNO][  0].d[ 24] =         0.041586157559;
  BAS[ATNO][  0].a[ 25] =         7.022000000000;     BAS[ATNO][  0].d[ 25] =        -0.001724451067;
  BAS[ATNO][  0].a[ 26] =         3.511000000000;     BAS[ATNO][  0].d[ 26] =         0.000865054978;
  BAS[ATNO][  0].a[ 27] =         1.758000000000;     BAS[ATNO][  0].d[ 27] =        -0.000348867349;
  BAS[ATNO][  0].a[ 28] =         0.784100000000;     BAS[ATNO][  0].d[ 28] =         0.000129979703;
  BAS[ATNO][  0].a[ 29] =         0.348000000000;     BAS[ATNO][  0].d[ 29] =        -0.000049155691;
  BAS[ATNO][  0].a[ 30] =         0.149100000000;     BAS[ATNO][  0].d[ 30] =         0.000011961428;

  // Basis function   2 L = s
  InitBFNGauss(BAS[ATNO][  1]);
  BAS[ATNO][  1].l  = 0;
  BAS[ATNO][  1].ng = 31;
  BAS[ATNO][  1].a[  0] =   7401000.000000000000;     BAS[ATNO][  1].d[  0] =         0.000000075834;
  BAS[ATNO][  1].a[  1] =   1108000.000000000000;     BAS[ATNO][  1].d[  1] =         0.000000572965;
  BAS[ATNO][  1].a[  2] =    252100.000000000000;     BAS[ATNO][  1].d[  2] =         0.000003016492;
  BAS[ATNO][  1].a[  3] =     71380.000000000000;     BAS[ATNO][  1].d[  3] =         0.000012765323;
  BAS[ATNO][  1].a[  4] =     23260.000000000000;     BAS[ATNO][  1].d[  4] =         0.000046599750;
  BAS[ATNO][  1].a[  5] =      8390.000000000000;     BAS[ATNO][  1].d[  5] =         0.000151949477;
  BAS[ATNO][  1].a[  6] =      3271.000000000000;     BAS[ATNO][  1].d[  6] =         0.000451344758;
  BAS[ATNO][  1].a[  7] =      1357.000000000000;     BAS[ATNO][  1].d[  7] =         0.001226263077;
  BAS[ATNO][  1].a[  8] =       592.000000000000;     BAS[ATNO][  1].d[  8] =         0.003019024239;
  BAS[ATNO][  1].a[  9] =       269.100000000000;     BAS[ATNO][  1].d[  9] =         0.006493905336;
  BAS[ATNO][  1].a[ 10] =       126.500000000000;     BAS[ATNO][  1].d[ 10] =         0.011392612899;
  BAS[ATNO][  1].a[ 11] =   7401000.000000000000;     BAS[ATNO][  1].d[ 11] =        -0.000000674154;
  BAS[ATNO][  1].a[ 12] =   1108000.000000000000;     BAS[ATNO][  1].d[ 12] =        -0.000005258403;
  BAS[ATNO][  1].a[ 13] =    252100.000000000000;     BAS[ATNO][  1].d[ 13] =        -0.000027370660;
  BAS[ATNO][  1].a[ 14] =     71380.000000000000;     BAS[ATNO][  1].d[ 14] =        -0.000116089352;
  BAS[ATNO][  1].a[ 15] =     23260.000000000000;     BAS[ATNO][  1].d[ 15] =        -0.000423908158;
  BAS[ATNO][  1].a[ 16] =      8390.000000000000;     BAS[ATNO][  1].d[ 16] =        -0.001386600349;
  BAS[ATNO][  1].a[ 17] =      3271.000000000000;     BAS[ATNO][  1].d[ 17] =        -0.004142947193;
  BAS[ATNO][  1].a[ 18] =      1357.000000000000;     BAS[ATNO][  1].d[ 18] =        -0.011427318107;
  BAS[ATNO][  1].a[ 19] =       592.000000000000;     BAS[ATNO][  1].d[ 19] =        -0.029015731408;
  BAS[ATNO][  1].a[ 20] =       269.100000000000;     BAS[ATNO][  1].d[ 20] =        -0.066672906125;
  BAS[ATNO][  1].a[ 21] =       126.500000000000;     BAS[ATNO][  1].d[ 21] =        -0.133180374809;
  BAS[ATNO][  1].a[ 22] =        61.030000000000;     BAS[ATNO][  1].d[ 22] =        -0.200260097070;
  BAS[ATNO][  1].a[ 23] =        29.860000000000;     BAS[ATNO][  1].d[ 23] =        -0.186425906019;
  BAS[ATNO][  1].a[ 24] =        14.170000000000;     BAS[ATNO][  1].d[ 24] =         0.181515212792;
  BAS[ATNO][  1].a[ 25] =         7.022000000000;     BAS[ATNO][  1].d[ 25] =         0.662000804313;
  BAS[ATNO][  1].a[ 26] =         3.511000000000;     BAS[ATNO][  1].d[ 26] =         0.344437462452;
  BAS[ATNO][  1].a[ 27] =         1.758000000000;     BAS[ATNO][  1].d[ 27] =         0.008988095364;
  BAS[ATNO][  1].a[ 28] =         0.784100000000;     BAS[ATNO][  1].d[ 28] =         0.002760219444;
  BAS[ATNO][  1].a[ 29] =         0.348000000000;     BAS[ATNO][  1].d[ 29] =        -0.001124857108;
  BAS[ATNO][  1].a[ 30] =         0.149100000000;     BAS[ATNO][  1].d[ 30] =         0.000278829029;

  // Basis function   3 L = s
  InitBFNGauss(BAS[ATNO][  2]);
  BAS[ATNO][  2].l  = 0;
  BAS[ATNO][  2].ng = 31;
  BAS[ATNO][  2].a[  0] =   7401000.000000000000;     BAS[ATNO][  2].d[  0] =        -0.000000116963;
  BAS[ATNO][  2].a[  1] =   1108000.000000000000;     BAS[ATNO][  2].d[  1] =        -0.000000883721;
  BAS[ATNO][  2].a[  2] =    252100.000000000000;     BAS[ATNO][  2].d[  2] =        -0.000004652532;
  BAS[ATNO][  2].a[  3] =     71380.000000000000;     BAS[ATNO][  2].d[  3] =        -0.000019688789;
  BAS[ATNO][  2].a[  4] =     23260.000000000000;     BAS[ATNO][  2].d[  4] =        -0.000071873826;
  BAS[ATNO][  2].a[  5] =      8390.000000000000;     BAS[ATNO][  2].d[  5] =        -0.000234361565;
  BAS[ATNO][  2].a[  6] =      3271.000000000000;     BAS[ATNO][  2].d[  6] =        -0.000696138386;
  BAS[ATNO][  2].a[  7] =      1357.000000000000;     BAS[ATNO][  2].d[  7] =        -0.001891345330;
  BAS[ATNO][  2].a[  8] =       592.000000000000;     BAS[ATNO][  2].d[  8] =        -0.004656437515;
  BAS[ATNO][  2].a[  9] =       269.100000000000;     BAS[ATNO][  2].d[  9] =        -0.010015972720;
  BAS[ATNO][  2].a[ 10] =       126.500000000000;     BAS[ATNO][  2].d[ 10] =        -0.017571568126;
  BAS[ATNO][  2].a[ 11] =   7401000.000000000000;     BAS[ATNO][  2].d[ 11] =         0.000000433507;
  BAS[ATNO][  2].a[ 12] =   1108000.000000000000;     BAS[ATNO][  2].d[ 12] =         0.000003381354;
  BAS[ATNO][  2].a[ 13] =    252100.000000000000;     BAS[ATNO][  2].d[ 13] =         0.000017600383;
  BAS[ATNO][  2].a[ 14] =     71380.000000000000;     BAS[ATNO][  2].d[ 14] =         0.000074649900;
  BAS[ATNO][  2].a[ 15] =     23260.000000000000;     BAS[ATNO][  2].d[ 15] =         0.000272589182;
  BAS[ATNO][  2].a[ 16] =      8390.000000000000;     BAS[ATNO][  2].d[ 16] =         0.000891637133;
  BAS[ATNO][  2].a[ 17] =      3271.000000000000;     BAS[ATNO][  2].d[ 17] =         0.002664073725;
  BAS[ATNO][  2].a[ 18] =      1357.000000000000;     BAS[ATNO][  2].d[ 18] =         0.007348203223;
  BAS[ATNO][  2].a[ 19] =       592.000000000000;     BAS[ATNO][  2].d[ 19] =         0.018658226632;
  BAS[ATNO][  2].a[ 20] =       269.100000000000;     BAS[ATNO][  2].d[ 20] =         0.042873232289;
  BAS[ATNO][  2].a[ 21] =       126.500000000000;     BAS[ATNO][  2].d[ 21] =         0.085640081968;
  BAS[ATNO][  2].a[ 22] =        61.030000000000;     BAS[ATNO][  2].d[ 22] =         0.118407385493;
  BAS[ATNO][  2].a[ 23] =        29.860000000000;     BAS[ATNO][  2].d[ 23] =         0.121071923489;
  BAS[ATNO][  2].a[ 24] =        14.170000000000;     BAS[ATNO][  2].d[ 24] =        -0.154855443782;
  BAS[ATNO][  2].a[ 25] =         7.022000000000;     BAS[ATNO][  2].d[ 25] =        -0.806022218847;
  BAS[ATNO][  2].a[ 26] =         3.511000000000;     BAS[ATNO][  2].d[ 26] =        -0.408422023345;
  BAS[ATNO][  2].a[ 27] =         1.758000000000;     BAS[ATNO][  2].d[ 27] =         1.279127502579;
  BAS[ATNO][  2].a[ 28] =         0.784100000000;     BAS[ATNO][  2].d[ 28] =         0.333508705373;
  BAS[ATNO][  2].a[ 29] =         0.348000000000;     BAS[ATNO][  2].d[ 29] =        -0.039436599809;
  BAS[ATNO][  2].a[ 30] =         0.149100000000;     BAS[ATNO][  2].d[ 30] =         0.007982640825;

  // Basis function   4 L = s
  InitBFNGauss(BAS[ATNO][  3]);
  BAS[ATNO][  3].l  = 0;
  BAS[ATNO][  3].ng = 31;
  BAS[ATNO][  3].a[  0] =   7401000.000000000000;     BAS[ATNO][  3].d[  0] =        -0.000000110022;
  BAS[ATNO][  3].a[  1] =   1108000.000000000000;     BAS[ATNO][  3].d[  1] =        -0.000000831277;
  BAS[ATNO][  3].a[  2] =    252100.000000000000;     BAS[ATNO][  3].d[  2] =        -0.000004376430;
  BAS[ATNO][  3].a[  3] =     71380.000000000000;     BAS[ATNO][  3].d[  3] =        -0.000018520369;
  BAS[ATNO][  3].a[  4] =     23260.000000000000;     BAS[ATNO][  3].d[  4] =        -0.000067608516;
  BAS[ATNO][  3].a[  5] =      8390.000000000000;     BAS[ATNO][  3].d[  5] =        -0.000220453516;
  BAS[ATNO][  3].a[  6] =      3271.000000000000;     BAS[ATNO][  3].d[  6] =        -0.000654826465;
  BAS[ATNO][  3].a[  7] =      1357.000000000000;     BAS[ATNO][  3].d[  7] =        -0.001779104559;
  BAS[ATNO][  3].a[  8] =       592.000000000000;     BAS[ATNO][  3].d[  8] =        -0.004380103982;
  BAS[ATNO][  3].a[  9] =       269.100000000000;     BAS[ATNO][  3].d[  9] =        -0.009421580738;
  BAS[ATNO][  3].a[ 10] =       126.500000000000;     BAS[ATNO][  3].d[ 10] =        -0.016528793798;
  BAS[ATNO][  3].a[ 11] =   7401000.000000000000;     BAS[ATNO][  3].d[ 11] =         0.000000312495;
  BAS[ATNO][  3].a[ 12] =   1108000.000000000000;     BAS[ATNO][  3].d[ 12] =         0.000002437463;
  BAS[ATNO][  3].a[ 13] =    252100.000000000000;     BAS[ATNO][  3].d[ 13] =         0.000012687310;
  BAS[ATNO][  3].a[ 14] =     71380.000000000000;     BAS[ATNO][  3].d[ 14] =         0.000053811693;
  BAS[ATNO][  3].a[ 15] =     23260.000000000000;     BAS[ATNO][  3].d[ 15] =         0.000196497054;
  BAS[ATNO][  3].a[ 16] =      8390.000000000000;     BAS[ATNO][  3].d[ 16] =         0.000642740364;
  BAS[ATNO][  3].a[ 17] =      3271.000000000000;     BAS[ATNO][  3].d[ 17] =         0.001920408709;
  BAS[ATNO][  3].a[ 18] =      1357.000000000000;     BAS[ATNO][  3].d[ 18] =         0.005296983087;
  BAS[ATNO][  3].a[ 19] =       592.000000000000;     BAS[ATNO][  3].d[ 19] =         0.013449860858;
  BAS[ATNO][  3].a[ 20] =       269.100000000000;     BAS[ATNO][  3].d[ 20] =         0.030905349163;
  BAS[ATNO][  3].a[ 21] =       126.500000000000;     BAS[ATNO][  3].d[ 21] =         0.061734011975;
  BAS[ATNO][  3].a[ 22] =        61.030000000000;     BAS[ATNO][  3].d[ 22] =         0.075730131681;
  BAS[ATNO][  3].a[ 23] =        29.860000000000;     BAS[ATNO][  3].d[ 23] =         0.095530625657;
  BAS[ATNO][  3].a[ 24] =        14.170000000000;     BAS[ATNO][  3].d[ 24] =        -0.148726349356;
  BAS[ATNO][  3].a[ 25] =         7.022000000000;     BAS[ATNO][  3].d[ 25] =        -0.624632139568;
  BAS[ATNO][  3].a[ 26] =         3.511000000000;     BAS[ATNO][  3].d[ 26] =        -0.541990833060;
  BAS[ATNO][  3].a[ 27] =         1.758000000000;     BAS[ATNO][  3].d[ 27] =         2.717306987716;
  BAS[ATNO][  3].a[ 28] =         0.784100000000;     BAS[ATNO][  3].d[ 28] =        -1.331015208627;
  BAS[ATNO][  3].a[ 29] =         0.348000000000;     BAS[ATNO][  3].d[ 29] =        -0.847749395552;
  BAS[ATNO][  3].a[ 30] =         0.149100000000;     BAS[ATNO][  3].d[ 30] =         0.091348815020;

  // Basis function   5 L = s
  InitBFNGauss(BAS[ATNO][  4]);
  BAS[ATNO][  4].l  = 0;
  BAS[ATNO][  4].ng = 31;
  BAS[ATNO][  4].a[  0] =   7401000.000000000000;     BAS[ATNO][  4].d[  0] =         0.000000117580;
  BAS[ATNO][  4].a[  1] =   1108000.000000000000;     BAS[ATNO][  4].d[  1] =         0.000000888382;
  BAS[ATNO][  4].a[  2] =    252100.000000000000;     BAS[ATNO][  4].d[  2] =         0.000004677071;
  BAS[ATNO][  4].a[  3] =     71380.000000000000;     BAS[ATNO][  4].d[  3] =         0.000019792632;
[...]
  BAS[ATNO][ 19].a[  7] =         3.322000000000;     BAS[ATNO][ 19].d[  7] =        -1.708041210106;
  BAS[ATNO][ 19].a[  8] =         1.478000000000;     BAS[ATNO][ 19].d[  8] =         0.942788896695;
  BAS[ATNO][ 19].a[  9] =         0.655200000000;     BAS[ATNO][ 19].d[  9] =        -0.482445281476;
  BAS[ATNO][ 19].a[ 10] =         0.275100000000;     BAS[ATNO][ 19].d[ 10] =         0.204099709748;
  BAS[ATNO][ 19].a[ 11] =         0.109700000000;     BAS[ATNO][ 19].d[ 11] =        -0.058469462977;

  // Basis function  21 L = p
  InitBFNGauss(BAS[ATNO][ 20]);
  BAS[ATNO][ 20].l  = 1;
  BAS[ATNO][ 20].ng = 12;
  BAS[ATNO][ 20].a[  0] =      2927.000000000000;     BAS[ATNO][ 20].d[  0] =        -0.032399345297;
  BAS[ATNO][ 20].a[  1] =       693.500000000000;     BAS[ATNO][ 20].d[  1] =        -0.282558600600;
  BAS[ATNO][ 20].a[  2] =       224.700000000000;     BAS[ATNO][ 20].d[  2] =        -1.540924034506;
  BAS[ATNO][ 20].a[  3] =        85.170000000000;     BAS[ATNO][ 20].d[  3] =         2.603850283973;
  BAS[ATNO][ 20].a[  4] =        35.530000000000;     BAS[ATNO][ 20].d[  4] =        -2.504243997097;
  BAS[ATNO][ 20].a[  5] =        15.730000000000;     BAS[ATNO][ 20].d[  5] =         1.961821004824;
  BAS[ATNO][ 20].a[  6] =         7.165000000000;     BAS[ATNO][ 20].d[  6] =        -1.370352553264;
  BAS[ATNO][ 20].a[  7] =         3.322000000000;     BAS[ATNO][ 20].d[  7] =         0.852631882716;
  BAS[ATNO][ 20].a[  8] =         1.478000000000;     BAS[ATNO][ 20].d[  8] =        -0.475609966979;
  BAS[ATNO][ 20].a[  9] =         0.655200000000;     BAS[ATNO][ 20].d[  9] =         0.245140738272;
  BAS[ATNO][ 20].a[ 10] =         0.275100000000;     BAS[ATNO][ 20].d[ 10] =        -0.104078670613;
  BAS[ATNO][ 20].a[ 11] =         0.109700000000;     BAS[ATNO][ 20].d[ 11] =         0.029850919680;

  // Basis function  22 L = d
  InitBFNGauss(BAS[ATNO][ 21]);
  BAS[ATNO][ 21].l  = 2;
  BAS[ATNO][ 21].ng = 8;
  BAS[ATNO][ 21].a[  0] =         0.309000000000;     BAS[ATNO][ 21].d[  0] =         0.006186534941;
  BAS[ATNO][ 21].a[  1] =         0.770000000000;     BAS[ATNO][ 21].d[  1] =         0.000871516241;
  BAS[ATNO][ 21].a[  2] =         1.917000000000;     BAS[ATNO][ 21].d[  2] =         0.433696219369;
  BAS[ATNO][ 21].a[  3] =         4.776000000000;     BAS[ATNO][ 21].d[  3] =         0.507776663566;
  BAS[ATNO][ 21].a[  4] =        76.808000000000;     BAS[ATNO][ 21].d[  4] =         0.006822719512;
  BAS[ATNO][ 21].a[  5] =        38.737000000000;     BAS[ATNO][ 21].d[  5] =         0.006414776759;
  BAS[ATNO][ 21].a[  6] =        19.537000000000;     BAS[ATNO][ 21].d[  6] =         0.072312332471;
  BAS[ATNO][ 21].a[  7] =         9.853000000000;     BAS[ATNO][ 21].d[  7] =         0.138866477790;

  // Basis function  23 L = d
  InitBFNGauss(BAS[ATNO][ 22]);
  BAS[ATNO][ 22].l  = 2;
  BAS[ATNO][ 22].ng = 8;
  BAS[ATNO][ 22].a[  0] =         0.309000000000;     BAS[ATNO][ 22].d[  0] =        -0.002911453209;
  BAS[ATNO][ 22].a[  1] =         0.770000000000;     BAS[ATNO][ 22].d[  1] =         0.889827809080;
  BAS[ATNO][ 22].a[  2] =         1.917000000000;     BAS[ATNO][ 22].d[  2] =         0.170214389022;
  BAS[ATNO][ 22].a[  3] =         4.776000000000;     BAS[ATNO][ 22].d[  3] =        -0.473539610731;
  BAS[ATNO][ 22].a[  4] =        76.808000000000;     BAS[ATNO][ 22].d[  4] =        -0.006290285230;
  BAS[ATNO][ 22].a[  5] =        38.737000000000;     BAS[ATNO][ 22].d[  5] =        -0.001014316863;
  BAS[ATNO][ 22].a[  6] =        19.537000000000;     BAS[ATNO][ 22].d[  6] =        -0.069556306541;
  BAS[ATNO][ 22].a[  7] =         9.853000000000;     BAS[ATNO][ 22].d[  7] =        -0.093804628952;

  // Basis function  24 L = d
  InitBFNGauss(BAS[ATNO][ 23]);
  BAS[ATNO][ 23].l  = 2;
  BAS[ATNO][ 23].ng = 8;
  BAS[ATNO][ 23].a[  0] =         0.309000000000;     BAS[ATNO][ 23].d[  0] =         1.176914401963;
  BAS[ATNO][ 23].a[  1] =         0.770000000000;     BAS[ATNO][ 23].d[  1] =        -0.440464574422;
  BAS[ATNO][ 23].a[  2] =         1.917000000000;     BAS[ATNO][ 23].d[  2] =        -0.550908593012;
  BAS[ATNO][ 23].a[  3] =         4.776000000000;     BAS[ATNO][ 23].d[  3] =         0.429541401528;
  BAS[ATNO][ 23].a[  4] =        76.808000000000;     BAS[ATNO][ 23].d[  4] =         0.005925796002;
  BAS[ATNO][ 23].a[  5] =        38.737000000000;     BAS[ATNO][ 23].d[  5] =        -0.004267795816;
  BAS[ATNO][ 23].a[  6] =        19.537000000000;     BAS[ATNO][ 23].d[  6] =         0.067189910841;
  BAS[ATNO][ 23].a[  7] =         9.853000000000;     BAS[ATNO][ 23].d[  7] =         0.043463815567;

  // Basis function  25 L = d
  InitBFNGauss(BAS[ATNO][ 24]);
  BAS[ATNO][ 24].l  = 2;
  BAS[ATNO][ 24].ng = 8;
  BAS[ATNO][ 24].a[  0] =         0.309000000000;     BAS[ATNO][ 24].d[  0] =         1.094681073333;
  BAS[ATNO][ 24].a[  1] =         0.770000000000;     BAS[ATNO][ 24].d[  1] =        -2.135268429777;
  BAS[ATNO][ 24].a[  2] =         1.917000000000;     BAS[ATNO][ 24].d[  2] =         2.140738126131;
  BAS[ATNO][ 24].a[  3] =         4.776000000000;     BAS[ATNO][ 24].d[  3] =        -0.977833208999;
  BAS[ATNO][ 24].a[  4] =        76.808000000000;     BAS[ATNO][ 24].d[  4] =        -0.013950198860;
  BAS[ATNO][ 24].a[  5] =        38.737000000000;     BAS[ATNO][ 24].d[  5] =         0.021278525290;
  BAS[ATNO][ 24].a[  6] =        19.537000000000;     BAS[ATNO][ 24].d[  6] =        -0.161664642632;
  BAS[ATNO][ 24].a[  7] =         9.853000000000;     BAS[ATNO][ 24].d[  7] =         0.000103397844;

  // Basis function  26 L = d
  InitBFNGauss(BAS[ATNO][ 25]);
  BAS[ATNO][ 25].l  = 2;
  BAS[ATNO][ 25].ng = 8;
  BAS[ATNO][ 25].a[  0] =         0.309000000000;     BAS[ATNO][ 25].d[  0] =        -0.331289634667;
  BAS[ATNO][ 25].a[  1] =         0.770000000000;     BAS[ATNO][ 25].d[  1] =         0.973033697375;
  BAS[ATNO][ 25].a[  2] =         1.917000000000;     BAS[ATNO][ 25].d[  2] =        -1.926236171605;
  BAS[ATNO][ 25].a[  3] =         4.776000000000;     BAS[ATNO][ 25].d[  3] =         3.081256207871;
  BAS[ATNO][ 25].a[  4] =        76.808000000000;     BAS[ATNO][ 25].d[  4] =         0.040178756477;
  BAS[ATNO][ 25].a[  5] =        38.737000000000;     BAS[ATNO][ 25].d[  5] =        -0.282323612635;
  BAS[ATNO][ 25].a[  6] =        19.537000000000;     BAS[ATNO][ 25].d[  6] =         0.539372893292;
  BAS[ATNO][ 25].a[  7] =         9.853000000000;     BAS[ATNO][ 25].d[  7] =        -2.509808070563;

  // Basis function  27 L = d
  InitBFNGauss(BAS[ATNO][ 26]);
  BAS[ATNO][ 26].l  = 2;
  BAS[ATNO][ 26].ng = 8;
  BAS[ATNO][ 26].a[  0] =         0.309000000000;     BAS[ATNO][ 26].d[  0] =         0.153048185952;
  BAS[ATNO][ 26].a[  1] =         0.770000000000;     BAS[ATNO][ 26].d[  1] =        -0.469572052461;
  BAS[ATNO][ 26].a[  2] =         1.917000000000;     BAS[ATNO][ 26].d[  2] =         1.067091411974;
  BAS[ATNO][ 26].a[  3] =         4.776000000000;     BAS[ATNO][ 26].d[  3] =        -2.531444160087;
  BAS[ATNO][ 26].a[  4] =        76.808000000000;     BAS[ATNO][ 26].d[  4] =        -0.213189109029;
  BAS[ATNO][ 26].a[  5] =        38.737000000000;     BAS[ATNO][ 26].d[  5] =         0.707997499870;
  BAS[ATNO][ 26].a[  6] =        19.537000000000;     BAS[ATNO][ 26].d[  6] =        -3.245794794094;
  BAS[ATNO][ 26].a[  7] =         9.853000000000;     BAS[ATNO][ 26].d[  7] =         4.114178605183;

  // Basis function  28 L = d
  InitBFNGauss(BAS[ATNO][ 27]);
  BAS[ATNO][ 27].l  = 2;
  BAS[ATNO][ 27].ng = 8;
  BAS[ATNO][ 27].a[  0] =         0.309000000000;     BAS[ATNO][ 27].d[  0] =        -0.083927862788;
  BAS[ATNO][ 27].a[  1] =         0.770000000000;     BAS[ATNO][ 27].d[  1] =         0.257942017395;
  BAS[ATNO][ 27].a[  2] =         1.917000000000;     BAS[ATNO][ 27].d[  2] =        -0.595611770441;
  BAS[ATNO][ 27].a[  3] =         4.776000000000;     BAS[ATNO][ 27].d[  3] =         1.556158719270;
  BAS[ATNO][ 27].a[  4] =        76.808000000000;     BAS[ATNO][ 27].d[  4] =         0.405836440674;
  BAS[ATNO][ 27].a[  5] =        38.737000000000;     BAS[ATNO][ 27].d[  5] =        -3.166585540865;
  BAS[ATNO][ 27].a[  6] =        19.537000000000;     BAS[ATNO][ 27].d[  6] =         4.442364052606;
  BAS[ATNO][ 27].a[  7] =         9.853000000000;     BAS[ATNO][ 27].d[  7] =        -3.258676314843;

  // Basis function  29 L = d
  InitBFNGauss(BAS[ATNO][ 28]);
  BAS[ATNO][ 28].l  = 2;
  BAS[ATNO][ 28].ng = 8;
  BAS[ATNO][ 28].a[  0] =         0.309000000000;     BAS[ATNO][ 28].d[  0] =         0.048716443790;
  BAS[ATNO][ 28].a[  1] =         0.770000000000;     BAS[ATNO][ 28].d[  1] =        -0.149344665859;
  BAS[ATNO][ 28].a[  2] =         1.917000000000;     BAS[ATNO][ 28].d[  2] =         0.343397762596;
  BAS[ATNO][ 28].a[  3] =         4.776000000000;     BAS[ATNO][ 28].d[  3] =        -0.905420995007;
  BAS[ATNO][ 28].a[  4] =        76.808000000000;     BAS[ATNO][ 28].d[  4] =        -2.547429841095;
  BAS[ATNO][ 28].a[  5] =        38.737000000000;     BAS[ATNO][ 28].d[  5] =         4.047545602442;
  BAS[ATNO][ 28].a[  6] =        19.537000000000;     BAS[ATNO][ 28].d[  6] =        -3.387799582120;
  BAS[ATNO][ 28].a[  7] =         9.853000000000;     BAS[ATNO][ 28].d[  7] =         2.023978552978;

  // Basis function  30 L = f
  InitBFNGauss(BAS[ATNO][ 29]);
  BAS[ATNO][ 29].l  = 3;
  BAS[ATNO][ 29].ng = 6;
  BAS[ATNO][ 29].a[  0] =         0.408000000000;     BAS[ATNO][ 29].d[  0] =         0.074404191883;
  BAS[ATNO][ 29].a[  1] =         0.825000000000;     BAS[ATNO][ 29].d[  1] =         0.165765998302;
  BAS[ATNO][ 29].a[  2] =         1.668000000000;     BAS[ATNO][ 29].d[  2] =         0.754260497877;
  BAS[ATNO][ 29].a[  3] =        35.873000000000;     BAS[ATNO][ 29].d[  3] =         0.007679956604;
  BAS[ATNO][ 29].a[  4] =        15.140000000000;     BAS[ATNO][ 29].d[  4] =        -0.014684028077;
  BAS[ATNO][ 29].a[  5] =         6.390000000000;     BAS[ATNO][ 29].d[  5] =         0.187568321219;

  // Basis function  31 L = f
  InitBFNGauss(BAS[ATNO][ 30]);
  BAS[ATNO][ 30].l  = 3;
  BAS[ATNO][ 30].ng = 6;
  BAS[ATNO][ 30].a[  0] =         0.408000000000;     BAS[ATNO][ 30].d[  0] =        -0.685355176742;
  BAS[ATNO][ 30].a[  1] =         0.825000000000;     BAS[ATNO][ 30].d[  1] =        -0.549343853741;
  BAS[ATNO][ 30].a[  2] =         1.668000000000;     BAS[ATNO][ 30].d[  2] =         0.705354404513;
  BAS[ATNO][ 30].a[  3] =        35.873000000000;     BAS[ATNO][ 30].d[  3] =         0.006890174334;
  BAS[ATNO][ 30].a[  4] =        15.140000000000;     BAS[ATNO][ 30].d[  4] =        -0.012536085819;
  BAS[ATNO][ 30].a[  5] =         6.390000000000;     BAS[ATNO][ 30].d[  5] =         0.178208419280;

  // Basis function  32 L = f
  InitBFNGauss(BAS[ATNO][ 31]);
  BAS[ATNO][ 31].l  = 3;
  BAS[ATNO][ 31].ng = 6;
  BAS[ATNO][ 31].a[  0] =         0.408000000000;     BAS[ATNO][ 31].d[  0] =        -1.618592928768;
  BAS[ATNO][ 31].a[  1] =         0.825000000000;     BAS[ATNO][ 31].d[  1] =         2.307648817771;
  BAS[ATNO][ 31].a[  2] =         1.668000000000;     BAS[ATNO][ 31].d[  2] =        -1.040833704301;
  BAS[ATNO][ 31].a[  3] =        35.873000000000;     BAS[ATNO][ 31].d[  3] =        -0.007443698235;
  BAS[ATNO][ 31].a[  4] =        15.140000000000;     BAS[ATNO][ 31].d[  4] =         0.010141926065;
  BAS[ATNO][ 31].a[  5] =         6.390000000000;     BAS[ATNO][ 31].d[  5] =        -0.216429594942;

  // Basis function  33 L = f
  InitBFNGauss(BAS[ATNO][ 32]);
  BAS[ATNO][ 32].l  = 3;
  BAS[ATNO][ 32].ng = 6;
  BAS[ATNO][ 32].a[  0] =         0.408000000000;     BAS[ATNO][ 32].d[  0] =         0.576256343275;
  BAS[ATNO][ 32].a[  1] =         0.825000000000;     BAS[ATNO][ 32].d[  1] =        -1.401977607981;
  BAS[ATNO][ 32].a[  2] =         1.668000000000;     BAS[ATNO][ 32].d[  2] =         1.469948786248;
  BAS[ATNO][ 32].a[  3] =        35.873000000000;     BAS[ATNO][ 32].d[  3] =        -0.043218505083;
  BAS[ATNO][ 32].a[  4] =        15.140000000000;     BAS[ATNO][ 32].d[  4] =         0.097761375085;
  BAS[ATNO][ 32].a[  5] =         6.390000000000;     BAS[ATNO][ 32].d[  5] =        -1.164711047621;

  // Basis function  34 L = f
  InitBFNGauss(BAS[ATNO][ 33]);
  BAS[ATNO][ 33].l  = 3;
  BAS[ATNO][ 33].ng = 6;
  BAS[ATNO][ 33].a[  0] =         0.408000000000;     BAS[ATNO][ 33].d[  0] =         0.179055181357;
  BAS[ATNO][ 33].a[  1] =         0.825000000000;     BAS[ATNO][ 33].d[  1] =        -0.465396174705;
  BAS[ATNO][ 33].a[  2] =         1.668000000000;     BAS[ATNO][ 33].d[  2] =         0.577565882597;
  BAS[ATNO][ 33].a[  3] =        35.873000000000;     BAS[ATNO][ 33].d[  3] =        -0.150542440911;
  BAS[ATNO][ 33].a[  4] =        15.140000000000;     BAS[ATNO][ 33].d[  4] =         1.542513529499;
  BAS[ATNO][ 33].a[  5] =         6.390000000000;     BAS[ATNO][ 33].d[  5] =        -1.128464479804;

  // Basis function  35 L = f
  InitBFNGauss(BAS[ATNO][ 34]);
  BAS[ATNO][ 34].l  = 3;
  BAS[ATNO][ 34].ng = 6;
  BAS[ATNO][ 34].a[  0] =         0.408000000000;     BAS[ATNO][ 34].d[  0] =        -0.077463843411;
  BAS[ATNO][ 34].a[  1] =         0.825000000000;     BAS[ATNO][ 34].d[  1] =         0.201377979124;
  BAS[ATNO][ 34].a[  2] =         1.668000000000;     BAS[ATNO][ 34].d[  2] =        -0.253139359296;
  BAS[ATNO][ 34].a[  3] =        35.873000000000;     BAS[ATNO][ 34].d[  3] =         1.473433400715;
  BAS[ATNO][ 34].a[  4] =        15.140000000000;     BAS[ATNO][ 34].d[  4] =        -1.297158425327;
  BAS[ATNO][ 34].a[  5] =         6.390000000000;     BAS[ATNO][ 34].d[  5] =         0.586987742149;

  // Basis function  36 L = g
  InitBFNGauss(BAS[ATNO][ 35]);
  BAS[ATNO][ 35].l  = 4;
  BAS[ATNO][ 35].ng = 4;
  BAS[ATNO][ 35].a[  0] =         0.665000000000;     BAS[ATNO][ 35].d[  0] =         0.673819582144;
  BAS[ATNO][ 35].a[  1] =         1.562000000000;     BAS[ATNO][ 35].d[  1] =         0.431594759769;
  BAS[ATNO][ 35].a[  2] =        26.560000000000;     BAS[ATNO][ 35].d[  2] =        -0.002556663951;
  BAS[ATNO][ 35].a[  3] =        10.306000000000;     BAS[ATNO][ 35].d[  3] =         0.016461733055;

  // Basis function  37 L = g
  InitBFNGauss(BAS[ATNO][ 36]);
  BAS[ATNO][ 36].l  = 4;
  BAS[ATNO][ 36].ng = 4;
  BAS[ATNO][ 36].a[  0] =         0.665000000000;     BAS[ATNO][ 36].d[  0] =        -1.071368673950;
  BAS[ATNO][ 36].a[  1] =         1.562000000000;     BAS[ATNO][ 36].d[  1] =         1.184260663341;
  BAS[ATNO][ 36].a[  2] =        26.560000000000;     BAS[ATNO][ 36].d[  2] =        -0.005095244012;
  BAS[ATNO][ 36].a[  3] =        10.306000000000;     BAS[ATNO][ 36].d[  3] =         0.035000988422;

  // Basis function  38 L = g
  InitBFNGauss(BAS[ATNO][ 37]);
  BAS[ATNO][ 37].l  = 4;
  BAS[ATNO][ 37].ng = 4;
  BAS[ATNO][ 37].a[  0] =         0.665000000000;     BAS[ATNO][ 37].d[  0] =         0.116518503614;
  BAS[ATNO][ 37].a[  1] =         1.562000000000;     BAS[ATNO][ 37].d[  1] =        -0.224121452825;
  BAS[ATNO][ 37].a[  2] =        26.560000000000;     BAS[ATNO][ 37].d[  2] =        -0.118841303642;
  BAS[ATNO][ 37].a[  3] =        10.306000000000;     BAS[ATNO][ 37].d[  3] =         1.070207902480;

  // Basis function  39 L = g
  InitBFNGauss(BAS[ATNO][ 38]);
  BAS[ATNO][ 38].l  = 4;
  BAS[ATNO][ 38].ng = 4;
  BAS[ATNO][ 38].a[  0] =         0.665000000000;     BAS[ATNO][ 38].d[  0] =        -0.037325165475;
  BAS[ATNO][ 38].a[  1] =         1.562000000000;     BAS[ATNO][ 38].d[  1] =         0.073945692417;
  BAS[ATNO][ 38].a[  2] =        26.560000000000;     BAS[ATNO][ 38].d[  2] =         1.196256187916;
  BAS[ATNO][ 38].a[  3] =        10.306000000000;     BAS[ATNO][ 38].d[  3] =        -0.569924150343;

  // Basis function  40 L = h
  InitBFNGauss(BAS[ATNO][ 39]);
  BAS[ATNO][ 39].l  = 5;
  BAS[ATNO][ 39].ng = 2;
  BAS[ATNO][ 39].a[  0] =         1.264000000000;     BAS[ATNO][ 39].d[  0] =         0.999993336738;
  BAS[ATNO][ 39].a[  1] =        21.104000000000;     BAS[ATNO][ 39].d[  1] =         0.000943385517;

  // Basis function  41 L = h
  InitBFNGauss(BAS[ATNO][ 40]);
  BAS[ATNO][ 40].l  = 5;
  BAS[ATNO][ 40].ng = 2;
  BAS[ATNO][ 40].a[  0] =         1.264000000000;     BAS[ATNO][ 40].d[  0] =        -0.007534970885;
  BAS[ATNO][ 40].a[  1] =        21.104000000000;     BAS[ATNO][ 40].d[  1] =         1.000021279439;

-------
TIMINGS
-------

Total SCF time: 0 days 0 hours 0 min 2 sec 

Total time                  ....       2.115 sec
Sum of individual times     ....       1.852 sec  ( 87.6%)

Fock matrix formation       ....       1.340 sec  ( 63.3%)
  XC integration            ....       0.063 sec  (  4.7% of F)
    Basis function eval.    ....       0.007 sec  ( 10.6% of XC)
    Density eval.           ....       0.006 sec  ( 10.1% of XC)
    XC-Functional eval.     ....       0.002 sec  (  2.5% of XC)
    XC-Potential eval.      ....       0.015 sec  ( 24.4% of XC)
Diagonalization             ....       0.020 sec  (  0.9%)
Density matrix formation    ....       0.006 sec  (  0.3%)
Population analysis         ....       0.004 sec  (  0.2%)
Initial guess               ....       0.097 sec  (  4.6%)
Orbital Transformation      ....       0.000 sec  (  0.0%)
Orbital Orthonormalization  ....       0.000 sec  (  0.0%)
DIIS solution               ....       0.003 sec  (  0.2%)
SOSCF solution              ....       0.007 sec  (  0.3%)
Grid generation             ....       0.376 sec  ( 17.8%)

-------------------------   --------------------
FINAL SINGLE POINT ENERGY      -311.545818899381
-------------------------   --------------------


                            ***************************************
                            *     ORCA property calculations      *
                            ***************************************

                                    ---------------------
                                    Active property flags
                                    ---------------------
   (+) Dipole Moment


------------------------------------------------------------------------------
                       ORCA ELECTRIC PROPERTIES CALCULATION
------------------------------------------------------------------------------

Dipole Moment Calculation                       ... on
Quadrupole Moment Calculation                   ... off
Polarizability Calculation                      ... off
GBWName                                         ... Ar_cc-pcv5z_2192.575824_.gbw
Electron density file                           ... Ar_cc-pcv5z_2192.575824_.scfp
The origin for moment calculation is the CENTER OF MASS  = ( 0.000000,  0.000000  0.000000)

-------------
DIPOLE MOMENT
-------------
                                X             Y             Z
Electronic contribution:     -0.00000      -0.00000       0.00000
Nuclear contribution   :      0.00000       0.00000       0.00000
                        -----------------------------------------
Total Dipole Moment    :     -0.00000      -0.00000       0.00000
                        -----------------------------------------
Magnitude (a.u.)       :      0.00000
Magnitude (Debye)      :      0.00000



--------------------
Rotational spectrum 
--------------------
 
Rotational constants in cm-1:     0.000000     0.000000     0.000000 
Rotational constants in MHz :     0.000000     0.000000     0.000000 

 Dipole components along the rotational axes: 
x,y,z [a.u.] :    -0.000000    -0.000000     0.000000 
x,y,z [Debye]:    -0.000000    -0.000000     0.000000 

 

Timings for individual modules:

Sum of individual times         ...        3.539 sec (=   0.059 min)
GTO integral calculation        ...        0.700 sec (=   0.012 min)  19.8 %
Relativistic integrals          ...        0.427 sec (=   0.007 min)  12.1 %
SCF iterations                  ...        2.412 sec (=   0.040 min)  68.1 %
                             ****ORCA TERMINATED NORMALLY****
TOTAL RUN TIME: 0 days 0 hours 0 minutes 3 seconds 868 msec
