
                                 *****************
                                 * O   R   C   A *
                                 *****************

           --- An Ab Initio, DFT and Semiempirical electronic structure package ---

                  #######################################################
                  #                        -***-                        #
                  #          Department of theory and spectroscopy      #
                  #               Directorship: Frank Neese             #
                  #        Max Planck Institute fuer Kohlenforschung    #
                  #                Kaiser Wilhelm Platz 1               #
                  #                 D-45470 Muelheim/Ruhr               #
                  #                      Germany                        #
                  #                                                     #
                  #                  All rights reserved                #
                  #                        -***-                        #
                  #######################################################


                         Program Version 4.2.1 -  RELEASE  -


 With contributions from (in alphabetic order):
   Daniel Aravena         : Magnetic Suceptibility
   Michael Atanasov       : Ab Initio Ligand Field Theory (pilot matlab implementation)
   Alexander A. Auer      : GIAO ZORA, VPT2
   Ute Becker             : Parallelization
   Giovanni Bistoni       : ED, misc. LED, open-shell LED, HFLD
   Martin Brehm           : Molecular dynamics
   Dmytro Bykov           : SCF Hessian
   Vijay G. Chilkuri      : MRCI spin determinant printing, contributions to CSF-ICE
   Dipayan Datta          : RHF DLPNO-CCSD density
   Achintya Kumar Dutta   : EOM-CC, STEOM-CC
   Dmitry Ganyushin       : Spin-Orbit,Spin-Spin,Magnetic field MRCI
   Miquel Garcia          : C-PCM Hessian, Gaussian charge scheme
   Yang Guo               : DLPNO-NEVPT2, CIM, IAO-localization
   Andreas Hansen         : Spin unrestricted coupled pair/coupled cluster methods
   Benjamin Helmich-Paris : CASSCF linear response (MC-RPA)
   Lee Huntington         : MR-EOM, pCC
   Robert Izsak           : Overlap fitted RIJCOSX, COSX-SCS-MP3, EOM
   Christian Kollmar      : KDIIS, OOCD, Brueckner-CCSD(T), CCSD density
   Simone Kossmann        : Meta GGA functionals, TD-DFT gradient, OOMP2, MP2 Hessian
   Martin Krupicka        : AUTO-CI
   Lucas Lang             : DCDCAS
   Dagmar Lenk            : GEPOL surface, SMD
   Dimitrios Liakos       : Extrapolation schemes; Compound Job, initial MDCI parallelization
   Dimitrios Manganas     : Further ROCIS development; embedding schemes
   Dimitrios Pantazis     : SARC Basis sets
   Taras Petrenko         : DFT Hessian,TD-DFT gradient, ASA, ECA, R-Raman, ABS, FL, XAS/XES, NRVS
   Peter Pinski           : DLPNO-MP2, DLPNO-MP2 Gradient
   Christoph Reimann      : Effective Core Potentials
   Marius Retegan         : Local ZFS, SOC
   Christoph Riplinger    : Optimizer, TS searches, QM/MM, DLPNO-CCSD(T), (RO)-DLPNO pert. Triples
   Tobias Risthaus        : Range-separated hybrids, TD-DFT gradient, RPA, STAB
   Michael Roemelt        : Original ROCIS implementation
   Masaaki Saitow         : Open-shell DLPNO-CCSD energy and density
   Barbara Sandhoefer     : DKH picture change effects
   Avijit Sen             : IP-ROCIS
   Kantharuban Sivalingam : CASSCF convergence, NEVPT2, FIC-MRCI
   Bernardo de Souza      : ESD, SOC TD-DFT
   Georgi Stoychev        : AutoAux, RI-MP2 NMR
   Willem Van den Heuvel  : Paramagnetic NMR
   Boris Wezisla          : Elementary symmetry handling
   Frank Wennmohs         : Technical directorship


 We gratefully acknowledge several colleagues who have allowed us to
 interface, adapt or use parts of their codes:
   Stefan Grimme, W. Hujo, H. Kruse,             : VdW corrections, initial TS optimization,
                  C. Bannwarth                     DFT functionals, gCP, sTDA/sTD-DF
   Ed Valeev, F. Pavosevic, A. Kumar             : LibInt (2-el integral package), F12 methods
   Garnet Chan, S. Sharma, J. Yang, R. Olivares  : DMRG
   Ulf Ekstrom                                   : XCFun DFT Library
   Mihaly Kallay                                 : mrcc  (arbitrary order and MRCC methods)
   Andreas Klamt, Michael Diedenhofen            : otool_cosmo (COSMO solvation model)
   Jiri Pittner, Ondrej Demel                    : Mk-CCSD
   Frank Weinhold                                : gennbo (NPA and NBO analysis)
   Christopher J. Cramer and Donald G. Truhlar   : smd solvation model
   Lars Goerigk                                  : TD-DFT with DH, B97 family of functionals
   V. Asgeirsson, H. Jonsson                     : NEB implementation
   FAccTs GmbH                                   : IRC, NEB, NEB-TS, Multilevel, MM, QM/MM, CI optimization
   S Lehtola, MJT Oliveira, MAL Marques          : LibXC Library


 Your calculation uses the libint2 library for the computation of 2-el integrals
 For citations please refer to: http://libint.valeyev.net

 Your ORCA version has been built with support for libXC version: 4.2.3
 For citations please refer to: https://tddft.org/programs/libxc/

 This ORCA versions uses:
   CBLAS   interface :  Fast vector & matrix operations
   LAPACKE interface :  Fast linear algebra routines
   SCALAPACK package :  Parallel linear algebra routines


----- Orbital basis set information -----
Your calculation utilizes the basis: cc-pCVDZ 
             H : cc-pVDZ. Obtained from the ccRepo (grant-hill.group.shef.ac.uk/ccrepo) Feb. 2017
                 T. H. Dunning, Jr., J. Chem. Phys. 90, 1007 (1989)
            He : cc-pVDZ. Obtained from the ccRepo (grant-hill.group.shef.ac.uk/ccrepo) Feb. 2017
                 D. E. Woon, T. H. Dunning, Jr., J. Chem. Phys. 100, 2975 (1994)
  Li-Be, Na-Mg : Obtained from the ccRepo (grant-hill.group.shef.ac.uk/ccrepo) Feb. 2017
                 B. P. Prascher, D. E. Woon, K. A. Peterson, T. H. Dunning, Jr., A. K. Wilson, Theor. Chem. Acc. 128, 69 (2011)
          B-Ne : Obtained from the ccRepo (grant-hill.group.shef.ac.uk/ccrepo) Feb. 2017
                 D. E. Woon, T. H. Dunning, Jr., J. Chem. Phys. 103, 4572 (1995)
                  K. A. Peterson, T. H. Dunning, Jr., J. Chem. Phys. 117, 10548 (2002)
         Al-Ar : Obtained from the EMSL Basis Set Exchange (bse.pnl.gov) Feb. 2017
                 K. A. Peterson, T. H. Dunning, Jr., J. Chem. Phys. 117, 10548 (2002)
            Ca : Obtained from the Peterson Research Group Website (tyr0.chem.wsu.edu/~kipeters) Feb. 2017
                 J. Koput, K. A. Peterson, J. Phys. Chem. 106, 9595 (2002)
         Ga-Kr : Obtained from the Peterson Research Group Website (tyr0.chem.wsu.edu/~kipeters) Feb. 2017
                 N. J. DeYonker, K. A. Peterson, A. K. Wilson, J. Phys. Chem. A 111, 11383 (2007)

================================================================================
                                        WARNINGS
                       Please study these warnings very carefully!
================================================================================


INFO   : the flag for use of LIBINT has been found!

================================================================================
                                       INPUT FILE
================================================================================
NAME = Ar_cc-pcvdz_34.25899725_.inp
|  1> ! LDA cc-pcvdz nori grid5 finalgrid6 verytightscf
|  2> %Pal NProcs 18 End
|  3> 
|  4> % REL
|  5>   Method ZORA
|  6>   ModelPot 1, 0, 0, 0
|  7>   velit 34.25899725
|  8> END
|  9> 
| 10> *xyz 16 1
| 11> Ar 0.0 0.0 0.0
| 12> **                         ****END OF INPUT****
================================================================================

                       ****************************
                       * Single Point Calculation *
                       ****************************

---------------------------------
CARTESIAN COORDINATES (ANGSTROEM)
---------------------------------
  Ar     0.000000    0.000000    0.000000

----------------------------
CARTESIAN COORDINATES (A.U.)
----------------------------
  NO LB      ZA    FRAG     MASS         X           Y           Z
   0 Ar   18.0000    0    39.948    0.000000    0.000000    0.000000

--------------------------------
INTERNAL COORDINATES (ANGSTROEM)
--------------------------------
 Ar     0   0   0     0.000000000000     0.00000000     0.00000000

---------------------------
INTERNAL COORDINATES (A.U.)
---------------------------
 Ar     0   0   0     0.000000000000     0.00000000     0.00000000

---------------------
BASIS SET INFORMATION
---------------------
There are 1 groups of distinct atoms

 Group   1 Type Ar  : 35s16p2d contracted to 5s4p2d pattern {11111111/7711/11}

Atom   0Ar   basis set group =>   1


           ************************************************************
           *        Program running with 18 parallel MPI-processes    *
           *              working on a common directory               *
           ************************************************************
------------------------------------------------------------------------------
                           ORCA GTO INTEGRAL CALCULATION
------------------------------------------------------------------------------

                         BASIS SET STATISTICS AND STARTUP INFO

 # of primitive gaussian shells          ...   53
 # of primitive gaussian functions       ...   93
 # of contracted shells                  ...   11
 # of contracted basis functions         ...   27
 Highest angular momentum                ...    2
 Maximum contraction depth               ...   11
 Integral package used                   ... LIBINT
 Integral threshhold            Thresh   ...  1.000e-12
 Primitive cut-off              TCut     ...  1.000e-14


------------------------------ INTEGRAL EVALUATION ----------------------------


 * One electron integrals 
 Pre-screening matrix                    ... done
 Shell pair data                         ... done (   0.000 sec)



           ************************************************************
           *        Program running with 18 parallel MPI-processes    *
           *              working on a common directory               *
           ************************************************************
------------------------------------------------------------------------------
                          ORCA RELATIVISTIC HAMILTONIAN
------------------------------------------------------------------------------

Relativistic Method            ... ZORA(MP)
Treatment of potential         ... Van Wuellen
Nucleus model                  ... Point Nucleus
Speed of light used            ...  34.25899725000000


            *************************************************
            *         ZERO ORDER REGULAR APPROXIMATION      *
            *                     ZORA(MP)                  *
            *            Programmed by FN according to      *
            *                   C. van Wuellen              *
            *       J. Chem. Phys. (1998) vol 109, 392-399  *
            *************************************************

Terms included in model potential: +V(e,N)
Basis function cutoff value   ... 1.000000e-12
Loading the fitted atomic densities  (DKH4)  ... done
Calculating the cutoffs                      ... done
Number of fit functions                      ... 15
Setting up the integration grid ... done


           ************************************************************
           *        Program running with 18 parallel MPI-processes    *
           *              working on a common directory               *
           ************************************************************
-------------------------------------------------------------------------------
                                 ORCA SCF
-------------------------------------------------------------------------------

------------
SCF SETTINGS
------------
Hamiltonian:
 Density Functional     Method          .... DFT(GTOs)
 Exchange Functional    Exchange        .... Slater
   X-Alpha parameter    XAlpha          ....  0.666667
 Correlation Functional Correlation     .... VWN-5
 Gradients option       PostSCFGGA      .... off
   Density functional embedding theory  .... OFF

Relativistic Settings:
 Scalar relativistic method             .... ZORA
 Speed of light used       Velit        ....       34.2589973
Orbital energies will be scaled


General Settings:
 Integral files         IntName         .... Ar_cc-pcvdz_34.25899725_
 Hartree-Fock type      HFTyp           .... RHF
 Total Charge           Charge          ....   16
 Multiplicity           Mult            ....    1
 Number of Electrons    NEL             ....    2
 Basis Dimension        Dim             ....   27
 Nuclear Repulsion      ENuc            ....      0.0000000000 Eh

Convergence Acceleration:
 DIIS                   CNVDIIS         .... on
   Start iteration      DIISMaxIt       ....    12
   Startup error        DIISStart       ....  0.200000
   # of expansion vecs  DIISMaxEq       ....     5
   Bias factor          DIISBfac        ....   1.050
   Max. coefficient     DIISMaxC        ....  10.000
 Newton-Raphson         CNVNR           .... off
 SOSCF                  CNVSOSCF        .... on
   Start iteration      SOSCFMaxIt      ....   150
   Startup grad/error   SOSCFStart      ....  0.003300
 Level Shifting         CNVShift        .... on
   Level shift para.    LevelShift      ....    0.2500
   Turn off err/grad.   ShiftErr        ....    0.0010
 Zerner damping         CNVZerner       .... off
 Static damping         CNVDamp         .... on
   Fraction old density DampFac         ....    0.7000
   Max. Damping (<1)    DampMax         ....    0.9800
   Min. Damping (>=0)   DampMin         ....    0.0000
   Turn off err/grad.   DampErr         ....    0.1000
 Fernandez-Rico         CNVRico         .... off

SCF Procedure:
 Maximum # iterations   MaxIter         ....   125
 SCF integral mode      SCFMode         .... Direct
   Integral package                     .... LIBINT
 Reset frequency        DirectResetFreq ....    20
 Integral Threshold     Thresh          ....  1.000e-12 Eh
 Primitive CutOff       TCut            ....  1.000e-14 Eh

Convergence Tolerance:
 Convergence Check Mode ConvCheckMode   .... Total+1el-Energy
 Convergence forced     ConvForced      .... 0
 Energy Change          TolE            ....  1.000e-09 Eh
 1-El. energy change                    ....  1.000e-06 Eh
 Orbital Gradient       TolG            ....  2.000e-06
 Orbital Rotation angle TolX            ....  2.000e-06
 DIIS Error             TolErr          ....  1.000e-08


Diagonalization of the overlap matrix:
Smallest eigenvalue                        ... 5.526e-02
Time for diagonalization                   ...    0.000 sec
Threshold for overlap eigenvalues          ... 1.000e-08
Number of eigenvalues below threshold      ... 0
Time for construction of square roots      ...    0.001 sec
Total time needed                          ...    0.002 sec

-------------------
DFT GRID GENERATION
-------------------

General Integration Accuracy     IntAcc      ...  5.010
Radial Grid Type                 RadialGrid  ... Gauss-Chebyshev
Angular Grid (max. acc.)         AngularGrid ... Lebedev-434
Angular grid pruning method      GridPruning ... 3 (G Style)
Weight generation scheme         WeightScheme... Becke
Basis function cutoff            BFCut       ...    1.0000e-12
Integration weight cutoff        WCut        ...    1.0000e-14
Grids for H and He will be reduced by one unit

# of grid points (after initial pruning)     ...  11992 (   0.0 sec)
# of grid points (after weights+screening)   ...  11992 (   0.0 sec)
Grid point division into batches done        ...    0.1 sec
Reduced shell lists constructed in    0.1 sec

Total number of grid points                  ...    11992
Total number of batches                      ...      188
Average number of points per batch           ...       63
Average number of grid points per atom       ...    11992
Average number of shells per batch           ...     0.00 ( 0.00%)
Average number of basis functions per batch  ...     0.00 ( 0.00%)
Average number of large shells per batch     ...     0.00 ( -nan%)
Average number of large basis fcns per batch ...     0.00 ( -nan%)
Maximum spatial batch extension              ...  18.71, 18.71, 18.71 au
Average spatial batch extension              ...   0.97,  0.98,  0.97 au

Time for grid setup =    0.150 sec

------------------------------
INITIAL GUESS: MODEL POTENTIAL
------------------------------
Loading ZORA relativistic densities                ... done
Calculating cut-offs                               ... done
Setting up the integral package                    ... done
Initializing the effective Hamiltonian             ... done
Starting the Coulomb interaction                   ... done (   0.0 sec)
Reading the grid                                   ... done
Mapping shells                                     ... done
Starting the XC term evaluation                    ... done (   0.0 sec)
  promolecular density results
     # of electrons  =     18.000000116
     EX              =    -28.047870263
     EC              =     -1.433252902
     EX+EC           =    -29.481123164
Transforming the Hamiltonian                       ... done (   0.0 sec)
Diagonalizing the Hamiltonian                      ... done (   0.0 sec)
Back transforming the eigenvectors                 ... done (   0.0 sec)
Now organizing SCF variables                       ... done
                      ------------------
                      INITIAL GUESS DONE (   0.2 sec)
                      ------------------
--------------
SCF ITERATIONS
--------------
ITER       Energy         Delta-E        Max-DP      RMS-DP      [F,P]     Damp
               ***  Starting incremental Fock matrix formation  ***
  0   -349.6023715719   0.000000000000 0.00200661  0.00013984  1.3569242 0.7000
                      *** Initiating the SOSCF procedure ***
                      *** Re-Reading the Fockian *** 
                      *** Removing any level shift *** 
ITER      Energy       Delta-E        Grad      Rot      Max-DP    RMS-DP
  1   -349.60507720  -0.0027056260  0.000952  0.000952  0.004708  0.000325
               *** Restarting incremental Fock matrix formation ***
  2   -349.61135869  -0.0062814921  0.003019  0.000024  0.000197  0.000011
  3   -349.61135893  -0.0000002444  0.000033  0.000000  0.000002  0.000000
                 **** Energy Check signals convergence ****
              ***Rediagonalizing the Fockian in SOSCF/NRSCF***

               *****************************************************
               *                     SUCCESS                       *
               *           SCF CONVERGED AFTER   4 CYCLES          *
               *****************************************************

Setting up the final grid:

General Integration Accuracy     IntAcc      ...  5.340
Radial Grid Type                 RadialGrid  ... Gauss-Chebyshev
Angular Grid (max. acc.)         AngularGrid ... Lebedev-590
Angular grid pruning method      GridPruning ... 3 (G Style)
Weight generation scheme         WeightScheme... Becke
Basis function cutoff            BFCut       ...    1.0000e-12
Integration weight cutoff        WCut        ...    1.0000e-14
Grids for H and He will be reduced by one unit

# of grid points (after initial pruning)     ...  18110 (   0.0 sec)
# of grid points (after weights+screening)   ...  18110 (   0.0 sec)
Grid point division into batches done        ...    0.2 sec
Reduced shell lists constructed in    0.2 sec

Total number of grid points                  ...    18110
Total number of batches                      ...      283
Average number of points per batch           ...       63
Average number of grid points per atom       ...    18110
Average number of shells per batch           ...     0.00 ( 0.00%)
Average number of basis functions per batch  ...     0.00 ( 0.00%)
Average number of large shells per batch     ...     0.00 ( -nan%)
Average number of large basis fcns per batch ...     0.00 ( -nan%)
Maximum spatial batch extension              ...  19.03, 19.03, 19.03 au
Average spatial batch extension              ...   0.84,  0.84,  0.80 au

Final grid set up in    0.2 sec
Final integration                            ... done (   0.0 sec)
Change in XC energy                          ...     0.000001800
Integrated number of electrons               ...     1.999999979
Previous integrated no of electrons          ...     2.000000100

----------------
TOTAL SCF ENERGY
----------------

Total Energy       :         -349.61135713 Eh           -9513.40868 eV

Components:
Nuclear Repulsion  :            0.00000000 Eh               0.00000 eV
Electronic Energy  :         -349.61135713 Eh           -9513.40868 eV
One Electron Energy:         -362.94497177 Eh           -9876.23478 eV
Two Electron Energy:           13.33361464 Eh             362.82610 eV

Virial components:
Potential Energy   :         -664.82454580 Eh          -18090.79561 eV
Kinetic Energy     :          315.21318867 Eh            8577.38693 eV
Virial Ratio       :            2.10912668


DFT components:
N(Alpha)           :        0.999999989485 electrons
N(Beta)            :        0.999999989485 electrons
N(Total)           :        1.999999978971 electrons
E(X)               :      -10.175563487718 Eh       
E(C)               :       -0.241763703897 Eh       
E(XC)              :      -10.417327191614 Eh       
DFET-embed. en.    :        0.000000000000 Eh       

---------------
SCF CONVERGENCE
---------------

  Last Energy change         ...   -2.8081e-11  Tolerance :   1.0000e-09
  Last MAX-Density change    ...    0.0000e+00  Tolerance :   1.0000e-08
  Last RMS-Density change    ...    0.0000e+00  Tolerance :   1.0000e-09
  Last Orbital Gradient      ...    4.5445e-10  Tolerance :   2.0000e-06
  Last Orbital Rotation      ...    0.0000e+00  Tolerance :   2.0000e-06

================================================================================
                                        WARNING
Number of found core electrons (2) does not match given number of chemical core electrons (10)
================================================================================
             **** THE GBW FILE WAS UPDATED (Ar_cc-pcvdz_34.25899725_.gbw) ****
             **** DENSITY FILE WAS UPDATED (Ar_cc-pcvdz_34.25899725_.scfp) ****
             **** ENERGY FILE WAS UPDATED (Ar_cc-pcvdz_34.25899725_.en.tmp) ****
             **** THE GBW FILE WAS UPDATED (Ar_cc-pcvdz_34.25899725_.gbw) ****
             **** DENSITY FILE WAS UPDATED (Ar_cc-pcvdz_34.25899725_.scfp) ****
----------------
ORBITAL ENERGIES
----------------

  NO   OCC          E(Eh)            E(eV) 
   0   2.0000    -164.635727     -4479.9659 
   1   0.0000     -37.659119     -1024.7567 
   2   0.0000     -34.786500      -946.5888 
   3   0.0000     -34.786500      -946.5888 
   4   0.0000     -34.786500      -946.5888 
   5   0.0000     -15.513026      -422.1309 
   6   0.0000     -14.374892      -391.1607 
   7   0.0000     -14.374892      -391.1607 
   8   0.0000     -14.374892      -391.1607 
   9   0.0000      -9.934604      -270.3343 
  10   0.0000      -9.934604      -270.3343 
  11   0.0000      -9.934604      -270.3343 
  12   0.0000      -9.934604      -270.3343 
  13   0.0000      -9.934604      -270.3343 
  14   0.0000      -7.918106      -215.4626 
  15   0.0000      -7.918106      -215.4626 
  16   0.0000      -7.918106      -215.4626 
  17   0.0000      -7.765593      -211.3125 
  18   0.0000      -6.237079      -169.7196 
  19   0.0000      -6.237079      -169.7196 
  20   0.0000      -6.237079      -169.7196 
  21   0.0000      -6.237079      -169.7196 
  22   0.0000      -6.237079      -169.7196 
  23   0.0000      -5.014593      -136.4540 
  24   0.0000      -5.014593      -136.4540 
  25   0.0000      -5.014593      -136.4540 
  26   0.0000      -4.964817      -135.0995 

                    ********************************
                    * MULLIKEN POPULATION ANALYSIS *
                    ********************************

-----------------------
MULLIKEN ATOMIC CHARGES
-----------------------
   0 Ar:   16.000000
Sum of atomic charges:   16.0000000

--------------------------------
MULLIKEN REDUCED ORBITAL CHARGES
--------------------------------
  0 Ars       :     2.000000  s :     2.000000
      pz      :     0.000000  p :     0.000000
      px      :     0.000000
      py      :     0.000000
      dz2     :     0.000000  d :     0.000000
      dxz     :     0.000000
      dyz     :     0.000000
      dx2y2   :     0.000000
      dxy     :     0.000000


                     *******************************
                     * LOEWDIN POPULATION ANALYSIS *
                     *******************************

----------------------
LOEWDIN ATOMIC CHARGES
----------------------
   0 Ar:   16.000000

-------------------------------
LOEWDIN REDUCED ORBITAL CHARGES
-------------------------------
  0 Ars       :     2.000000  s :     2.000000
      pz      :     0.000000  p :     0.000000
      px      :     0.000000
      py      :     0.000000
      dz2     :     0.000000  d :     0.000000
      dxz     :     0.000000
      dyz     :     0.000000
      dx2y2   :     0.000000
      dxy     :     0.000000


                      *****************************
                      * MAYER POPULATION ANALYSIS *
                      *****************************

  NA   - Mulliken gross atomic population
  ZA   - Total nuclear charge
  QA   - Mulliken gross atomic charge
  VA   - Mayer's total valence
  BVA  - Mayer's bonded valence
  FA   - Mayer's free valence

  ATOM       NA         ZA         QA         VA         BVA        FA
  0 Ar     2.0000    18.0000    16.0000    -0.0000     0.0000    -0.0000

  Mayer bond orders larger than 0.100000


--------------------------
ATOM BASIS FOR ELEMENT Ar
--------------------------
 NewGTO Ar
 S 35
    1     145700.000000000000         0.000273506548
    2      21840.000000000000         0.002120605922
    3       4972.000000000000         0.011010285136
    4       1408.000000000000         0.044634951337
    5        459.700000000000         0.143375437097
    6        165.900000000000         0.342571862021
    7         64.690000000000         0.487699035182
    8         26.440000000000         0.279296751928
    9          7.628000000000         0.023168789353
   10          2.996000000000        -0.004171350391
   11          0.650400000000         0.001127312643
   12     145700.000000000000        -0.000008942001
   13      21840.000000000000        -0.000068699891
   14       4972.000000000000        -0.000364120472
   15       1408.000000000000        -0.001470751251
   16        459.700000000000        -0.005098547808
   17        165.900000000000        -0.013217364469
   18         64.690000000000        -0.026907486028
   19         26.440000000000        -0.017966942238
   20          7.628000000000         0.067199156896
   21          2.996000000000         0.081203933129
   22          0.650400000000         0.005868960879
   23     145700.000000000000        -0.000002285868
   24      21840.000000000000        -0.000017656918
   25       4972.000000000000        -0.000092915695
   26       1408.000000000000        -0.000379873820
   27        459.700000000000        -0.001305068512
   28        165.900000000000        -0.003490522800
   29         64.690000000000        -0.007117280781
   30         26.440000000000        -0.005423882810
   31          7.628000000000         0.024956247459
   32          2.996000000000         0.045727360600
   33          0.650400000000        -0.069766467132
   34          0.233700000000         0.024357620916
   35          9.548000000000        -0.295567152033
 S 35
    1     145700.000000000000         0.000097852826
    2      21840.000000000000         0.000758692195
    3       4972.000000000000         0.003939165365
    4       1408.000000000000         0.015969109991
    5        459.700000000000         0.051295633948
    6        165.900000000000         0.122562422064
    7         64.690000000000         0.174484777114
    8         26.440000000000         0.099924395977
    9          7.628000000000         0.008289130703
   10          2.996000000000        -0.001492389959
   11          0.650400000000         0.000403320247
   12     145700.000000000000         0.000019491462
   13      21840.000000000000         0.000149749625
   14       4972.000000000000         0.000793697100
   15       1408.000000000000         0.003205892260
   16        459.700000000000         0.011113636612
   17        165.900000000000         0.028810749884
   18         64.690000000000         0.058651999175
   19         26.440000000000         0.039163713780
   20          7.628000000000        -0.146478377461
   21          2.996000000000        -0.177005500033
   22          0.650400000000        -0.012792956143
   23     145700.000000000000        -0.000000178185
   24      21840.000000000000        -0.000001376371
   25       4972.000000000000        -0.000007242852
   26       1408.000000000000        -0.000029611464
   27        459.700000000000        -0.000101731119
   28        165.900000000000        -0.000272089003
   29         64.690000000000        -0.000554797647
   30         26.440000000000        -0.000422795940
   31          7.628000000000         0.001945359159
   32          2.996000000000         0.003564483800
   33          0.650400000000        -0.005438351102
   34          0.233700000000         0.006181573778
   35          9.548000000000        -0.886192661061
 S 35
    1     145700.000000000000         0.000197775596
    2      21840.000000000000         0.001533433491
    3       4972.000000000000         0.007961658407
    4       1408.000000000000         0.032276024751
    5        459.700000000000         0.103676357157
    6        165.900000000000         0.247717485213
    7         64.690000000000         0.352660542006
    8         26.440000000000         0.201962556433
    9          7.628000000000         0.016753606674
   10          2.996000000000        -0.003016349395
   11          0.650400000000         0.000815172184
   12     145700.000000000000        -0.000117707742
   13      21840.000000000000        -0.000904328779
   14       4972.000000000000        -0.004793087983
   15       1408.000000000000        -0.019360186218
   16        459.700000000000        -0.067114568094
   17        165.900000000000        -0.173986346906
   18         64.690000000000        -0.354195816359
   19         26.440000000000        -0.236507259241
   20          7.628000000000         0.884573914155
   21          2.996000000000         1.068925330175
   22          0.650400000000         0.077255875473
   23     145700.000000000000         0.000029475927
   24      21840.000000000000         0.000227683282
   25       4972.000000000000         0.001198133811
   26       1408.000000000000         0.004898415360
   27        459.700000000000         0.016828660766
   28        165.900000000000         0.045009762750
   29         64.690000000000         0.091776257515
   30         26.440000000000         0.069940147197
   31          7.628000000000        -0.321807030486
   32          2.996000000000        -0.589647387928
   33          0.650400000000         0.899628025100
   34          0.233700000000        -0.265929907530
   35          9.548000000000        -1.482695078017
 S 35
    1     145700.000000000000         0.000232231774
    2      21840.000000000000         0.001800586053
    3       4972.000000000000         0.009348727005
    4       1408.000000000000         0.037899107041
    5        459.700000000000         0.121738701955
    6        165.900000000000         0.290874466738
    7         64.690000000000         0.414100550905
    8         26.440000000000         0.237148180530
    9          7.628000000000         0.019672395766
   10          2.996000000000        -0.003541853419
   11          0.650400000000         0.000957190301
   12     145700.000000000000        -0.000110769407
   13      21840.000000000000        -0.000851022718
   14       4972.000000000000        -0.004510557286
   15       1408.000000000000        -0.018218991454
   16        459.700000000000        -0.063158470109
   17        165.900000000000        -0.163730644515
   18         64.690000000000        -0.333317586858
   19         26.440000000000        -0.222566233941
   20          7.628000000000         0.832432312429
   21          2.996000000000         1.005917052461
   22          0.650400000000         0.072701993626
   23     145700.000000000000        -0.000008025043
   24      21840.000000000000        -0.000061988487
   25       4972.000000000000        -0.000326200946
   26       1408.000000000000        -0.001333630443
   27        459.700000000000        -0.004581729533
   28        165.900000000000        -0.012254246618
   29         64.690000000000        -0.024986776747
   30         26.440000000000        -0.019041731391
   31          7.628000000000         0.087614385725
   32          2.996000000000         0.160535938602
   33          0.650400000000        -0.244930499750
   34          0.233700000000        -0.900175575344
   35          9.548000000000        -1.764280313499
 S 35
    1     145700.000000000000         0.000209625224
    2      21840.000000000000         0.001625308404
    3       4972.000000000000         0.008438677255
    4       1408.000000000000         0.034209826903
    5        459.700000000000         0.109888075113
    6        165.900000000000         0.262559356525
    7         64.690000000000         0.373790024959
    8         26.440000000000         0.214063043687
    9          7.628000000000         0.017757390779
   10          2.996000000000        -0.003197072486
   11          0.650400000000         0.000864012825
   12     145700.000000000000        -0.000015294652
   13      21840.000000000000        -0.000117506241
   14       4972.000000000000        -0.000622801975
   15       1408.000000000000        -0.002515614624
   16        459.700000000000        -0.008720700672
   17        165.900000000000        -0.022607354787
   18         64.690000000000        -0.046023326698
   19         26.440000000000        -0.030731167212
   20          7.628000000000         0.114939342475
   21          2.996000000000         0.138893508658
   22          0.650400000000         0.010038437023
   23     145700.000000000000        -0.000081488749
   24      21840.000000000000        -0.000629450128
   25       4972.000000000000        -0.003312344568
   26       1408.000000000000        -0.013542093006
   27        459.700000000000        -0.046524288473
   28        165.900000000000        -0.124433382751
   29         64.690000000000        -0.253723403126
   30         26.440000000000        -0.193355587191
   31          7.628000000000         0.889663374119
   32          2.996000000000         1.630131212149
   33          0.650400000000        -2.487099498893
   34          0.233700000000         1.805632015248
   35          9.548000000000        -1.988652236162
 P 16
    1        453.700000000000         0.008394407340
    2        106.800000000000         0.063332309479
    3         33.730000000000         0.259813126964
    4         12.130000000000         0.598605525060
    5          4.594000000000         0.665821988631
    6          1.678000000000         0.180673487348
    7          0.590900000000        -0.006561807531
    8        453.700000000000         0.000234657398
    9        106.800000000000         0.001777790327
   10         33.730000000000         0.007606796645
   11         12.130000000000         0.018073388578
   12          4.594000000000         0.022145915149
   13          1.678000000000        -0.020803012585
   14          0.590900000000        -0.085373927743
   15          0.185200000000         0.031470709292
   16          4.361000000000        -0.577209497528
 P 16
    1        453.700000000000         0.005273697176
    2        106.800000000000         0.039787850184
    3         33.730000000000         0.163224835103
    4         12.130000000000         0.376067557715
    5          4.594000000000         0.418295586417
    6          1.678000000000         0.113506197799
    7          0.590900000000        -0.004122385827
    8        453.700000000000         0.001666927697
    9        106.800000000000         0.012628828089
   10         33.730000000000         0.054036140064
   11         12.130000000000         0.128387309700
   12          4.594000000000         0.157317176831
   13          1.678000000000        -0.147777646008
   14          0.590900000000        -0.606467838296
   15          0.185200000000         0.197814796108
   16          4.361000000000        -1.386930838239
 P 16
    1        453.700000000000         0.008619434351
    2        106.800000000000         0.065030044617
    3         33.730000000000         0.266777879688
    4         12.130000000000         0.614652210268
    5          4.594000000000         0.683670530632
    6          1.678000000000         0.185516761350
    7          0.590900000000        -0.006737708447
    8        453.700000000000        -0.001846678144
    9        106.800000000000        -0.013990637306
   10         33.730000000000        -0.059863039681
   11         12.130000000000        -0.142231747234
   12          4.594000000000        -0.174281219715
   13          1.678000000000         0.163713009042
   14          0.590900000000         0.671865315065
   15          0.185200000000         0.164215896511
   16          4.361000000000        -1.736177563277
 P 16
    1        453.700000000000         0.005358952481
    2        106.800000000000         0.040431065982
    3         33.730000000000         0.165863549989
    4         12.130000000000         0.382147117006
    5          4.594000000000         0.425057809764
    6          1.678000000000         0.115341154431
    7          0.590900000000        -0.004189028877
    8        453.700000000000        -0.002114349791
    9        106.800000000000        -0.016018547223
   10         33.730000000000        -0.068540046253
   11         12.130000000000        -0.162847903916
   12          4.594000000000        -0.199542871928
   13          1.678000000000         0.187442824015
   14          0.590900000000         0.769250609653
   15          0.185200000000        -1.283459139826
   16          4.361000000000        -0.892328846437
 D 2
    1          0.738000000000         0.856982451058
    2         11.459000000000         0.455159969890
 D 2
    1          0.738000000000        -0.520786556296
    2         11.459000000000         0.893569784880
 end
  // -----------------------------------------------
  // The basis set
  // -----------------------------------------------
  BAS[ATNO] = new BFNGauss[NSH];
  // Basis function   1 L = s
  InitBFNGauss(BAS[ATNO][  0]);
  BAS[ATNO][  0].l  = 0;
  BAS[ATNO][  0].ng = 35;
  BAS[ATNO][  0].a[  0] =    145700.000000000000;     BAS[ATNO][  0].d[  0] =         0.000273506548;
  BAS[ATNO][  0].a[  1] =     21840.000000000000;     BAS[ATNO][  0].d[  1] =         0.002120605922;
  BAS[ATNO][  0].a[  2] =      4972.000000000000;     BAS[ATNO][  0].d[  2] =         0.011010285136;
  BAS[ATNO][  0].a[  3] =      1408.000000000000;     BAS[ATNO][  0].d[  3] =         0.044634951337;
  BAS[ATNO][  0].a[  4] =       459.700000000000;     BAS[ATNO][  0].d[  4] =         0.143375437097;
  BAS[ATNO][  0].a[  5] =       165.900000000000;     BAS[ATNO][  0].d[  5] =         0.342571862021;
  BAS[ATNO][  0].a[  6] =        64.690000000000;     BAS[ATNO][  0].d[  6] =         0.487699035182;
  BAS[ATNO][  0].a[  7] =        26.440000000000;     BAS[ATNO][  0].d[  7] =         0.279296751928;
  BAS[ATNO][  0].a[  8] =         7.628000000000;     BAS[ATNO][  0].d[  8] =         0.023168789353;
  BAS[ATNO][  0].a[  9] =         2.996000000000;     BAS[ATNO][  0].d[  9] =        -0.004171350391;
  BAS[ATNO][  0].a[ 10] =         0.650400000000;     BAS[ATNO][  0].d[ 10] =         0.001127312643;
  BAS[ATNO][  0].a[ 11] =    145700.000000000000;     BAS[ATNO][  0].d[ 11] =        -0.000008942001;
  BAS[ATNO][  0].a[ 12] =     21840.000000000000;     BAS[ATNO][  0].d[ 12] =        -0.000068699891;
  BAS[ATNO][  0].a[ 13] =      4972.000000000000;     BAS[ATNO][  0].d[ 13] =        -0.000364120472;
  BAS[ATNO][  0].a[ 14] =      1408.000000000000;     BAS[ATNO][  0].d[ 14] =        -0.001470751251;
  BAS[ATNO][  0].a[ 15] =       459.700000000000;     BAS[ATNO][  0].d[ 15] =        -0.005098547808;
  BAS[ATNO][  0].a[ 16] =       165.900000000000;     BAS[ATNO][  0].d[ 16] =        -0.013217364469;
  BAS[ATNO][  0].a[ 17] =        64.690000000000;     BAS[ATNO][  0].d[ 17] =        -0.026907486028;
  BAS[ATNO][  0].a[ 18] =        26.440000000000;     BAS[ATNO][  0].d[ 18] =        -0.017966942238;
  BAS[ATNO][  0].a[ 19] =         7.628000000000;     BAS[ATNO][  0].d[ 19] =         0.067199156896;
  BAS[ATNO][  0].a[ 20] =         2.996000000000;     BAS[ATNO][  0].d[ 20] =         0.081203933129;
  BAS[ATNO][  0].a[ 21] =         0.650400000000;     BAS[ATNO][  0].d[ 21] =         0.005868960879;
  BAS[ATNO][  0].a[ 22] =    145700.000000000000;     BAS[ATNO][  0].d[ 22] =        -0.000002285868;
  BAS[ATNO][  0].a[ 23] =     21840.000000000000;     BAS[ATNO][  0].d[ 23] =        -0.000017656918;
  BAS[ATNO][  0].a[ 24] =      4972.000000000000;     BAS[ATNO][  0].d[ 24] =        -0.000092915695;
  BAS[ATNO][  0].a[ 25] =      1408.000000000000;     BAS[ATNO][  0].d[ 25] =        -0.000379873820;
  BAS[ATNO][  0].a[ 26] =       459.700000000000;     BAS[ATNO][  0].d[ 26] =        -0.001305068512;
  BAS[ATNO][  0].a[ 27] =       165.900000000000;     BAS[ATNO][  0].d[ 27] =        -0.003490522800;
  BAS[ATNO][  0].a[ 28] =        64.690000000000;     BAS[ATNO][  0].d[ 28] =        -0.007117280781;
  BAS[ATNO][  0].a[ 29] =        26.440000000000;     BAS[ATNO][  0].d[ 29] =        -0.005423882810;
  BAS[ATNO][  0].a[ 30] =         7.628000000000;     BAS[ATNO][  0].d[ 30] =         0.024956247459;
  BAS[ATNO][  0].a[ 31] =         2.996000000000;     BAS[ATNO][  0].d[ 31] =         0.045727360600;
  BAS[ATNO][  0].a[ 32] =         0.650400000000;     BAS[ATNO][  0].d[ 32] =        -0.069766467132;
  BAS[ATNO][  0].a[ 33] =         0.233700000000;     BAS[ATNO][  0].d[ 33] =         0.024357620916;
  BAS[ATNO][  0].a[ 34] =         9.548000000000;     BAS[ATNO][  0].d[ 34] =        -0.295567152033;

  // Basis function   2 L = s
  InitBFNGauss(BAS[ATNO][  1]);
  BAS[ATNO][  1].l  = 0;
  BAS[ATNO][  1].ng = 35;
  BAS[ATNO][  1].a[  0] =    145700.000000000000;     BAS[ATNO][  1].d[  0] =        -0.000097852826;
  BAS[ATNO][  1].a[  1] =     21840.000000000000;     BAS[ATNO][  1].d[  1] =        -0.000758692195;
  BAS[ATNO][  1].a[  2] =      4972.000000000000;     BAS[ATNO][  1].d[  2] =        -0.003939165365;
  BAS[ATNO][  1].a[  3] =      1408.000000000000;     BAS[ATNO][  1].d[  3] =        -0.015969109991;
  BAS[ATNO][  1].a[  4] =       459.700000000000;     BAS[ATNO][  1].d[  4] =        -0.051295633948;
  BAS[ATNO][  1].a[  5] =       165.900000000000;     BAS[ATNO][  1].d[  5] =        -0.122562422064;
  BAS[ATNO][  1].a[  6] =        64.690000000000;     BAS[ATNO][  1].d[  6] =        -0.174484777114;
  BAS[ATNO][  1].a[  7] =        26.440000000000;     BAS[ATNO][  1].d[  7] =        -0.099924395977;
  BAS[ATNO][  1].a[  8] =         7.628000000000;     BAS[ATNO][  1].d[  8] =        -0.008289130703;
  BAS[ATNO][  1].a[  9] =         2.996000000000;     BAS[ATNO][  1].d[  9] =         0.001492389959;
  BAS[ATNO][  1].a[ 10] =         0.650400000000;     BAS[ATNO][  1].d[ 10] =        -0.000403320247;
  BAS[ATNO][  1].a[ 11] =    145700.000000000000;     BAS[ATNO][  1].d[ 11] =        -0.000019491462;
  BAS[ATNO][  1].a[ 12] =     21840.000000000000;     BAS[ATNO][  1].d[ 12] =        -0.000149749625;
  BAS[ATNO][  1].a[ 13] =      4972.000000000000;     BAS[ATNO][  1].d[ 13] =        -0.000793697100;
  BAS[ATNO][  1].a[ 14] =      1408.000000000000;     BAS[ATNO][  1].d[ 14] =        -0.003205892260;
  BAS[ATNO][  1].a[ 15] =       459.700000000000;     BAS[ATNO][  1].d[ 15] =        -0.011113636612;
  BAS[ATNO][  1].a[ 16] =       165.900000000000;     BAS[ATNO][  1].d[ 16] =        -0.028810749884;
  BAS[ATNO][  1].a[ 17] =        64.690000000000;     BAS[ATNO][  1].d[ 17] =        -0.058651999175;
  BAS[ATNO][  1].a[ 18] =        26.440000000000;     BAS[ATNO][  1].d[ 18] =        -0.039163713780;
  BAS[ATNO][  1].a[ 19] =         7.628000000000;     BAS[ATNO][  1].d[ 19] =         0.146478377461;
  BAS[ATNO][  1].a[ 20] =         2.996000000000;     BAS[ATNO][  1].d[ 20] =         0.177005500033;
  BAS[ATNO][  1].a[ 21] =         0.650400000000;     BAS[ATNO][  1].d[ 21] =         0.012792956143;
  BAS[ATNO][  1].a[ 22] =    145700.000000000000;     BAS[ATNO][  1].d[ 22] =         0.000000178185;
  BAS[ATNO][  1].a[ 23] =     21840.000000000000;     BAS[ATNO][  1].d[ 23] =         0.000001376371;
  BAS[ATNO][  1].a[ 24] =      4972.000000000000;     BAS[ATNO][  1].d[ 24] =         0.000007242852;
  BAS[ATNO][  1].a[ 25] =      1408.000000000000;     BAS[ATNO][  1].d[ 25] =         0.000029611464;
  BAS[ATNO][  1].a[ 26] =       459.700000000000;     BAS[ATNO][  1].d[ 26] =         0.000101731119;
  BAS[ATNO][  1].a[ 27] =       165.900000000000;     BAS[ATNO][  1].d[ 27] =         0.000272089003;
  BAS[ATNO][  1].a[ 28] =        64.690000000000;     BAS[ATNO][  1].d[ 28] =         0.000554797647;
  BAS[ATNO][  1].a[ 29] =        26.440000000000;     BAS[ATNO][  1].d[ 29] =         0.000422795940;
  BAS[ATNO][  1].a[ 30] =         7.628000000000;     BAS[ATNO][  1].d[ 30] =        -0.001945359159;
  BAS[ATNO][  1].a[ 31] =         2.996000000000;     BAS[ATNO][  1].d[ 31] =        -0.003564483800;
  BAS[ATNO][  1].a[ 32] =         0.650400000000;     BAS[ATNO][  1].d[ 32] =         0.005438351102;
  BAS[ATNO][  1].a[ 33] =         0.233700000000;     BAS[ATNO][  1].d[ 33] =        -0.006181573778;
  BAS[ATNO][  1].a[ 34] =         9.548000000000;     BAS[ATNO][  1].d[ 34] =         0.886192661061;

  // Basis function   3 L = s
  InitBFNGauss(BAS[ATNO][  2]);
  BAS[ATNO][  2].l  = 0;
  BAS[ATNO][  2].ng = 35;
  BAS[ATNO][  2].a[  0] =    145700.000000000000;     BAS[ATNO][  2].d[  0] =        -0.000197775596;
  BAS[ATNO][  2].a[  1] =     21840.000000000000;     BAS[ATNO][  2].d[  1] =        -0.001533433491;
  BAS[ATNO][  2].a[  2] =      4972.000000000000;     BAS[ATNO][  2].d[  2] =        -0.007961658407;
  BAS[ATNO][  2].a[  3] =      1408.000000000000;     BAS[ATNO][  2].d[  3] =        -0.032276024751;
  BAS[ATNO][  2].a[  4] =       459.700000000000;     BAS[ATNO][  2].d[  4] =        -0.103676357157;
  BAS[ATNO][  2].a[  5] =       165.900000000000;     BAS[ATNO][  2].d[  5] =        -0.247717485213;
  BAS[ATNO][  2].a[  6] =        64.690000000000;     BAS[ATNO][  2].d[  6] =        -0.352660542006;
  BAS[ATNO][  2].a[  7] =        26.440000000000;     BAS[ATNO][  2].d[  7] =        -0.201962556433;
  BAS[ATNO][  2].a[  8] =         7.628000000000;     BAS[ATNO][  2].d[  8] =        -0.016753606674;
  BAS[ATNO][  2].a[  9] =         2.996000000000;     BAS[ATNO][  2].d[  9] =         0.003016349395;
  BAS[ATNO][  2].a[ 10] =         0.650400000000;     BAS[ATNO][  2].d[ 10] =        -0.000815172184;
  BAS[ATNO][  2].a[ 11] =    145700.000000000000;     BAS[ATNO][  2].d[ 11] =         0.000117707742;
  BAS[ATNO][  2].a[ 12] =     21840.000000000000;     BAS[ATNO][  2].d[ 12] =         0.000904328779;
  BAS[ATNO][  2].a[ 13] =      4972.000000000000;     BAS[ATNO][  2].d[ 13] =         0.004793087983;
  BAS[ATNO][  2].a[ 14] =      1408.000000000000;     BAS[ATNO][  2].d[ 14] =         0.019360186218;
  BAS[ATNO][  2].a[ 15] =       459.700000000000;     BAS[ATNO][  2].d[ 15] =         0.067114568094;
  BAS[ATNO][  2].a[ 16] =       165.900000000000;     BAS[ATNO][  2].d[ 16] =         0.173986346906;
  BAS[ATNO][  2].a[ 17] =        64.690000000000;     BAS[ATNO][  2].d[ 17] =         0.354195816359;
  BAS[ATNO][  2].a[ 18] =        26.440000000000;     BAS[ATNO][  2].d[ 18] =         0.236507259241;
  BAS[ATNO][  2].a[ 19] =         7.628000000000;     BAS[ATNO][  2].d[ 19] =        -0.884573914155;
  BAS[ATNO][  2].a[ 20] =         2.996000000000;     BAS[ATNO][  2].d[ 20] =        -1.068925330175;
  BAS[ATNO][  2].a[ 21] =         0.650400000000;     BAS[ATNO][  2].d[ 21] =        -0.077255875473;
  BAS[ATNO][  2].a[ 22] =    145700.000000000000;     BAS[ATNO][  2].d[ 22] =        -0.000029475927;
  BAS[ATNO][  2].a[ 23] =     21840.000000000000;     BAS[ATNO][  2].d[ 23] =        -0.000227683282;
  BAS[ATNO][  2].a[ 24] =      4972.000000000000;     BAS[ATNO][  2].d[ 24] =        -0.001198133811;
  BAS[ATNO][  2].a[ 25] =      1408.000000000000;     BAS[ATNO][  2].d[ 25] =        -0.004898415360;
  BAS[ATNO][  2].a[ 26] =       459.700000000000;     BAS[ATNO][  2].d[ 26] =        -0.016828660766;
  BAS[ATNO][  2].a[ 27] =       165.900000000000;     BAS[ATNO][  2].d[ 27] =        -0.045009762750;
  BAS[ATNO][  2].a[ 28] =        64.690000000000;     BAS[ATNO][  2].d[ 28] =        -0.091776257515;
  BAS[ATNO][  2].a[ 29] =        26.440000000000;     BAS[ATNO][  2].d[ 29] =        -0.069940147197;
  BAS[ATNO][  2].a[ 30] =         7.628000000000;     BAS[ATNO][  2].d[ 30] =         0.321807030486;
  BAS[ATNO][  2].a[ 31] =         2.996000000000;     BAS[ATNO][  2].d[ 31] =         0.589647387928;
  BAS[ATNO][  2].a[ 32] =         0.650400000000;     BAS[ATNO][  2].d[ 32] =        -0.899628025100;
  BAS[ATNO][  2].a[ 33] =         0.233700000000;     BAS[ATNO][  2].d[ 33] =         0.265929907530;
  BAS[ATNO][  2].a[ 34] =         9.548000000000;     BAS[ATNO][  2].d[ 34] =         1.482695078017;

  // Basis function   4 L = s
  InitBFNGauss(BAS[ATNO][  3]);
  BAS[ATNO][  3].l  = 0;
  BAS[ATNO][  3].ng = 35;
  BAS[ATNO][  3].a[  0] =    145700.000000000000;     BAS[ATNO][  3].d[  0] =        -0.000232231774;
  BAS[ATNO][  3].a[  1] =     21840.000000000000;     BAS[ATNO][  3].d[  1] =        -0.001800586053;
  BAS[ATNO][  3].a[  2] =      4972.000000000000;     BAS[ATNO][  3].d[  2] =        -0.009348727005;
  BAS[ATNO][  3].a[  3] =      1408.000000000000;     BAS[ATNO][  3].d[  3] =        -0.037899107041;
  BAS[ATNO][  3].a[  4] =       459.700000000000;     BAS[ATNO][  3].d[  4] =        -0.121738701955;
  BAS[ATNO][  3].a[  5] =       165.900000000000;     BAS[ATNO][  3].d[  5] =        -0.290874466738;
  BAS[ATNO][  3].a[  6] =        64.690000000000;     BAS[ATNO][  3].d[  6] =        -0.414100550905;
  BAS[ATNO][  3].a[  7] =        26.440000000000;     BAS[ATNO][  3].d[  7] =        -0.237148180530;
  BAS[ATNO][  3].a[  8] =         7.628000000000;     BAS[ATNO][  3].d[  8] =        -0.019672395766;
  BAS[ATNO][  3].a[  9] =         2.996000000000;     BAS[ATNO][  3].d[  9] =         0.003541853419;
  BAS[ATNO][  3].a[ 10] =         0.650400000000;     BAS[ATNO][  3].d[ 10] =        -0.000957190301;
  BAS[ATNO][  3].a[ 11] =    145700.000000000000;     BAS[ATNO][  3].d[ 11] =         0.000110769407;
  BAS[ATNO][  3].a[ 12] =     21840.000000000000;     BAS[ATNO][  3].d[ 12] =         0.000851022718;
  BAS[ATNO][  3].a[ 13] =      4972.000000000000;     BAS[ATNO][  3].d[ 13] =         0.004510557286;
  BAS[ATNO][  3].a[ 14] =      1408.000000000000;     BAS[ATNO][  3].d[ 14] =         0.018218991454;
  BAS[ATNO][  3].a[ 15] =       459.700000000000;     BAS[ATNO][  3].d[ 15] =         0.063158470109;
  BAS[ATNO][  3].a[ 16] =       165.900000000000;     BAS[ATNO][  3].d[ 16] =         0.163730644515;
  BAS[ATNO][  3].a[ 17] =        64.690000000000;     BAS[ATNO][  3].d[ 17] =         0.333317586858;
  BAS[ATNO][  3].a[ 18] =        26.440000000000;     BAS[ATNO][  3].d[ 18] =         0.222566233941;
  BAS[ATNO][  3].a[ 19] =         7.628000000000;     BAS[ATNO][  3].d[ 19] =        -0.832432312429;
  BAS[ATNO][  3].a[ 20] =         2.996000000000;     BAS[ATNO][  3].d[ 20] =        -1.005917052461;
  BAS[ATNO][  3].a[ 21] =         0.650400000000;     BAS[ATNO][  3].d[ 21] =        -0.072701993626;
  BAS[ATNO][  3].a[ 22] =    145700.000000000000;     BAS[ATNO][  3].d[ 22] =         0.000008025043;
  BAS[ATNO][  3].a[ 23] =     21840.000000000000;     BAS[ATNO][  3].d[ 23] =         0.000061988487;
  BAS[ATNO][  3].a[ 24] =      4972.000000000000;     BAS[ATNO][  3].d[ 24] =         0.000326200946;
  BAS[ATNO][  3].a[ 25] =      1408.000000000000;     BAS[ATNO][  3].d[ 25] =         0.001333630443;
  BAS[ATNO][  3].a[ 26] =       459.700000000000;     BAS[ATNO][  3].d[ 26] =         0.004581729533;
  BAS[ATNO][  3].a[ 27] =       165.900000000000;     BAS[ATNO][  3].d[ 27] =         0.012254246618;
  BAS[ATNO][  3].a[ 28] =        64.690000000000;     BAS[ATNO][  3].d[ 28] =         0.024986776747;
  BAS[ATNO][  3].a[ 29] =        26.440000000000;     BAS[ATNO][  3].d[ 29] =         0.019041731391;
  BAS[ATNO][  3].a[ 30] =         7.628000000000;     BAS[ATNO][  3].d[ 30] =        -0.087614385725;
  BAS[ATNO][  3].a[ 31] =         2.996000000000;     BAS[ATNO][  3].d[ 31] =        -0.160535938602;
  BAS[ATNO][  3].a[ 32] =         0.650400000000;     BAS[ATNO][  3].d[ 32] =         0.244930499750;
  BAS[ATNO][  3].a[ 33] =         0.233700000000;     BAS[ATNO][  3].d[ 33] =         0.900175575344;
  BAS[ATNO][  3].a[ 34] =         9.548000000000;     BAS[ATNO][  3].d[ 34] =         1.764280313499;

  // Basis function   5 L = s
  InitBFNGauss(BAS[ATNO][  4]);
  BAS[ATNO][  4].l  = 0;
  BAS[ATNO][  4].ng = 35;
  BAS[ATNO][  4].a[  0] =    145700.000000000000;     BAS[ATNO][  4].d[  0] =        -0.000209625224;
  BAS[ATNO][  4].a[  1] =     21840.000000000000;     BAS[ATNO][  4].d[  1] =        -0.001625308404;
  BAS[ATNO][  4].a[  2] =      4972.000000000000;     BAS[ATNO][  4].d[  2] =        -0.008438677255;
  BAS[ATNO][  4].a[  3] =      1408.000000000000;     BAS[ATNO][  4].d[  3] =        -0.034209826903;
  BAS[ATNO][  4].a[  4] =       459.700000000000;     BAS[ATNO][  4].d[  4] =        -0.109888075113;
  BAS[ATNO][  4].a[  5] =       165.900000000000;     BAS[ATNO][  4].d[  5] =        -0.262559356525;
  BAS[ATNO][  4].a[  6] =        64.690000000000;     BAS[ATNO][  4].d[  6] =        -0.373790024959;
  BAS[ATNO][  4].a[  7] =        26.440000000000;     BAS[ATNO][  4].d[  7] =        -0.214063043687;
  BAS[ATNO][  4].a[  8] =         7.628000000000;     BAS[ATNO][  4].d[  8] =        -0.017757390779;
  BAS[ATNO][  4].a[  9] =         2.996000000000;     BAS[ATNO][  4].d[  9] =         0.003197072486;
  BAS[ATNO][  4].a[ 10] =         0.650400000000;     BAS[ATNO][  4].d[ 10] =        -0.000864012825;
  BAS[ATNO][  4].a[ 11] =    145700.000000000000;     BAS[ATNO][  4].d[ 11] =         0.000015294652;
  BAS[ATNO][  4].a[ 12] =     21840.000000000000;     BAS[ATNO][  4].d[ 12] =         0.000117506241;
  BAS[ATNO][  4].a[ 13] =      4972.000000000000;     BAS[ATNO][  4].d[ 13] =         0.000622801975;
  BAS[ATNO][  4].a[ 14] =      1408.000000000000;     BAS[ATNO][  4].d[ 14] =         0.002515614624;
  BAS[ATNO][  4].a[ 15] =       459.700000000000;     BAS[ATNO][  4].d[ 15] =         0.008720700672;
  BAS[ATNO][  4].a[ 16] =       165.900000000000;     BAS[ATNO][  4].d[ 16] =         0.022607354787;
  BAS[ATNO][  4].a[ 17] =        64.690000000000;     BAS[ATNO][  4].d[ 17] =         0.046023326698;
  BAS[ATNO][  4].a[ 18] =        26.440000000000;     BAS[ATNO][  4].d[ 18] =         0.030731167212;
  BAS[ATNO][  4].a[ 19] =         7.628000000000;     BAS[ATNO][  4].d[ 19] =        -0.114939342475;
  BAS[ATNO][  4].a[ 20] =         2.996000000000;     BAS[ATNO][  4].d[ 20] =        -0.138893508658;
  BAS[ATNO][  4].a[ 21] =         0.650400000000;     BAS[ATNO][  4].d[ 21] =        -0.010038437023;
  BAS[ATNO][  4].a[ 22] =    145700.000000000000;     BAS[ATNO][  4].d[ 22] =         0.000081488749;
  BAS[ATNO][  4].a[ 23] =     21840.000000000000;     BAS[ATNO][  4].d[ 23] =         0.000629450128;
  BAS[ATNO][  4].a[ 24] =      4972.000000000000;     BAS[ATNO][  4].d[ 24] =         0.003312344568;
  BAS[ATNO][  4].a[ 25] =      1408.000000000000;     BAS[ATNO][  4].d[ 25] =         0.013542093006;
  BAS[ATNO][  4].a[ 26] =       459.700000000000;     BAS[ATNO][  4].d[ 26] =         0.046524288473;
  BAS[ATNO][  4].a[ 27] =       165.900000000000;     BAS[ATNO][  4].d[ 27] =         0.124433382751;
  BAS[ATNO][  4].a[ 28] =        64.690000000000;     BAS[ATNO][  4].d[ 28] =         0.253723403126;
  BAS[ATNO][  4].a[ 29] =        26.440000000000;     BAS[ATNO][  4].d[ 29] =         0.193355587191;
  BAS[ATNO][  4].a[ 30] =         7.628000000000;     BAS[ATNO][  4].d[ 30] =        -0.889663374119;
  BAS[ATNO][  4].a[ 31] =         2.996000000000;     BAS[ATNO][  4].d[ 31] =        -1.630131212149;
  BAS[ATNO][  4].a[ 32] =         0.650400000000;     BAS[ATNO][  4].d[ 32] =         2.487099498893;
  BAS[ATNO][  4].a[ 33] =         0.233700000000;     BAS[ATNO][  4].d[ 33] =        -1.805632015248;
  BAS[ATNO][  4].a[ 34] =         9.548000000000;     BAS[ATNO][  4].d[ 34] =         1.988652236162;

  // Basis function   6 L = p
  InitBFNGauss(BAS[ATNO][  5]);
  BAS[ATNO][  5].l  = 1;
  BAS[ATNO][  5].ng = 16;
  BAS[ATNO][  5].a[  0] =       453.700000000000;     BAS[ATNO][  5].d[  0] =         0.008394407340;
  BAS[ATNO][  5].a[  1] =       106.800000000000;     BAS[ATNO][  5].d[  1] =         0.063332309479;
  BAS[ATNO][  5].a[  2] =        33.730000000000;     BAS[ATNO][  5].d[  2] =         0.259813126964;
  BAS[ATNO][  5].a[  3] =        12.130000000000;     BAS[ATNO][  5].d[  3] =         0.598605525060;
  BAS[ATNO][  5].a[  4] =         4.594000000000;     BAS[ATNO][  5].d[  4] =         0.665821988631;
  BAS[ATNO][  5].a[  5] =         1.678000000000;     BAS[ATNO][  5].d[  5] =         0.180673487348;
  BAS[ATNO][  5].a[  6] =         0.590900000000;     BAS[ATNO][  5].d[  6] =        -0.006561807531;
  BAS[ATNO][  5].a[  7] =       453.700000000000;     BAS[ATNO][  5].d[  7] =         0.000234657398;
  BAS[ATNO][  5].a[  8] =       106.800000000000;     BAS[ATNO][  5].d[  8] =         0.001777790327;
  BAS[ATNO][  5].a[  9] =        33.730000000000;     BAS[ATNO][  5].d[  9] =         0.007606796645;
  BAS[ATNO][  5].a[ 10] =        12.130000000000;     BAS[ATNO][  5].d[ 10] =         0.018073388578;
  BAS[ATNO][  5].a[ 11] =         4.594000000000;     BAS[ATNO][  5].d[ 11] =         0.022145915149;
  BAS[ATNO][  5].a[ 12] =         1.678000000000;     BAS[ATNO][  5].d[ 12] =        -0.020803012585;
  BAS[ATNO][  5].a[ 13] =         0.590900000000;     BAS[ATNO][  5].d[ 13] =        -0.085373927743;
  BAS[ATNO][  5].a[ 14] =         0.185200000000;     BAS[ATNO][  5].d[ 14] =         0.031470709292;
  BAS[ATNO][  5].a[ 15] =         4.361000000000;     BAS[ATNO][  5].d[ 15] =        -0.577209497528;

  // Basis function   7 L = p
  InitBFNGauss(BAS[ATNO][  6]);
  BAS[ATNO][  6].l  = 1;
  BAS[ATNO][  6].ng = 16;
  BAS[ATNO][  6].a[  0] =       453.700000000000;     BAS[ATNO][  6].d[  0] =        -0.005273697176;
  BAS[ATNO][  6].a[  1] =       106.800000000000;     BAS[ATNO][  6].d[  1] =        -0.039787850184;
  BAS[ATNO][  6].a[  2] =        33.730000000000;     BAS[ATNO][  6].d[  2] =        -0.163224835103;
  BAS[ATNO][  6].a[  3] =        12.130000000000;     BAS[ATNO][  6].d[  3] =        -0.376067557715;
  BAS[ATNO][  6].a[  4] =         4.594000000000;     BAS[ATNO][  6].d[  4] =        -0.418295586417;
  BAS[ATNO][  6].a[  5] =         1.678000000000;     BAS[ATNO][  6].d[  5] =        -0.113506197799;
  BAS[ATNO][  6].a[  6] =         0.590900000000;     BAS[ATNO][  6].d[  6] =         0.004122385827;
  BAS[ATNO][  6].a[  7] =       453.700000000000;     BAS[ATNO][  6].d[  7] =        -0.001666927697;
  BAS[ATNO][  6].a[  8] =       106.800000000000;     BAS[ATNO][  6].d[  8] =        -0.012628828089;
  BAS[ATNO][  6].a[  9] =        33.730000000000;     BAS[ATNO][  6].d[  9] =        -0.054036140064;
  BAS[ATNO][  6].a[ 10] =        12.130000000000;     BAS[ATNO][  6].d[ 10] =        -0.128387309700;
  BAS[ATNO][  6].a[ 11] =         4.594000000000;     BAS[ATNO][  6].d[ 11] =        -0.157317176831;
  BAS[ATNO][  6].a[ 12] =         1.678000000000;     BAS[ATNO][  6].d[ 12] =         0.147777646008;
  BAS[ATNO][  6].a[ 13] =         0.590900000000;     BAS[ATNO][  6].d[ 13] =         0.606467838296;
  BAS[ATNO][  6].a[ 14] =         0.185200000000;     BAS[ATNO][  6].d[ 14] =        -0.197814796108;
  BAS[ATNO][  6].a[ 15] =         4.361000000000;     BAS[ATNO][  6].d[ 15] =         1.386930838239;

  // Basis function   8 L = p
  InitBFNGauss(BAS[ATNO][  7]);
  BAS[ATNO][  7].l  = 1;
  BAS[ATNO][  7].ng = 16;
  BAS[ATNO][  7].a[  0] =       453.700000000000;     BAS[ATNO][  7].d[  0] =        -0.008619434351;
  BAS[ATNO][  7].a[  1] =       106.800000000000;     BAS[ATNO][  7].d[  1] =        -0.065030044617;
  BAS[ATNO][  7].a[  2] =        33.730000000000;     BAS[ATNO][  7].d[  2] =        -0.266777879688;
  BAS[ATNO][  7].a[  3] =        12.130000000000;     BAS[ATNO][  7].d[  3] =        -0.614652210268;
  BAS[ATNO][  7].a[  4] =         4.594000000000;     BAS[ATNO][  7].d[  4] =        -0.683670530632;
  BAS[ATNO][  7].a[  5] =         1.678000000000;     BAS[ATNO][  7].d[  5] =        -0.185516761350;
  BAS[ATNO][  7].a[  6] =         0.590900000000;     BAS[ATNO][  7].d[  6] =         0.006737708447;
  BAS[ATNO][  7].a[  7] =       453.700000000000;     BAS[ATNO][  7].d[  7] =         0.001846678144;
  BAS[ATNO][  7].a[  8] =       106.800000000000;     BAS[ATNO][  7].d[  8] =         0.013990637306;
  BAS[ATNO][  7].a[  9] =        33.730000000000;     BAS[ATNO][  7].d[  9] =         0.059863039681;
  BAS[ATNO][  7].a[ 10] =        12.130000000000;     BAS[ATNO][  7].d[ 10] =         0.142231747234;
  BAS[ATNO][  7].a[ 11] =         4.594000000000;     BAS[ATNO][  7].d[ 11] =         0.174281219715;
  BAS[ATNO][  7].a[ 12] =         1.678000000000;     BAS[ATNO][  7].d[ 12] =        -0.163713009042;
  BAS[ATNO][  7].a[ 13] =         0.590900000000;     BAS[ATNO][  7].d[ 13] =        -0.671865315065;
  BAS[ATNO][  7].a[ 14] =         0.185200000000;     BAS[ATNO][  7].d[ 14] =        -0.164215896511;
  BAS[ATNO][  7].a[ 15] =         4.361000000000;     BAS[ATNO][  7].d[ 15] =         1.736177563277;

  // Basis function   9 L = p
  InitBFNGauss(BAS[ATNO][  8]);
  BAS[ATNO][  8].l  = 1;
  BAS[ATNO][  8].ng = 16;
  BAS[ATNO][  8].a[  0] =       453.700000000000;     BAS[ATNO][  8].d[  0] =        -0.005358952481;
  BAS[ATNO][  8].a[  1] =       106.800000000000;     BAS[ATNO][  8].d[  1] =        -0.040431065982;
  BAS[ATNO][  8].a[  2] =        33.730000000000;     BAS[ATNO][  8].d[  2] =        -0.165863549989;
  BAS[ATNO][  8].a[  3] =        12.130000000000;     BAS[ATNO][  8].d[  3] =        -0.382147117006;
  BAS[ATNO][  8].a[  4] =         4.594000000000;     BAS[ATNO][  8].d[  4] =        -0.425057809764;
  BAS[ATNO][  8].a[  5] =         1.678000000000;     BAS[ATNO][  8].d[  5] =        -0.115341154431;
  BAS[ATNO][  8].a[  6] =         0.590900000000;     BAS[ATNO][  8].d[  6] =         0.004189028877;
  BAS[ATNO][  8].a[  7] =       453.700000000000;     BAS[ATNO][  8].d[  7] =         0.002114349791;
  BAS[ATNO][  8].a[  8] =       106.800000000000;     BAS[ATNO][  8].d[  8] =         0.016018547223;
  BAS[ATNO][  8].a[  9] =        33.730000000000;     BAS[ATNO][  8].d[  9] =         0.068540046253;
  BAS[ATNO][  8].a[ 10] =        12.130000000000;     BAS[ATNO][  8].d[ 10] =         0.162847903916;
  BAS[ATNO][  8].a[ 11] =         4.594000000000;     BAS[ATNO][  8].d[ 11] =         0.199542871928;
  BAS[ATNO][  8].a[ 12] =         1.678000000000;     BAS[ATNO][  8].d[ 12] =        -0.187442824015;
  BAS[ATNO][  8].a[ 13] =         0.590900000000;     BAS[ATNO][  8].d[ 13] =        -0.769250609653;
  BAS[ATNO][  8].a[ 14] =         0.185200000000;     BAS[ATNO][  8].d[ 14] =         1.283459139826;
  BAS[ATNO][  8].a[ 15] =         4.361000000000;     BAS[ATNO][  8].d[ 15] =         0.892328846437;

  // Basis function  10 L = d
  InitBFNGauss(BAS[ATNO][  9]);
  BAS[ATNO][  9].l  = 2;
  BAS[ATNO][  9].ng = 2;
  BAS[ATNO][  9].a[  0] =         0.738000000000;     BAS[ATNO][  9].d[  0] =         0.856982451058;
  BAS[ATNO][  9].a[  1] =        11.459000000000;     BAS[ATNO][  9].d[  1] =         0.455159969890;

  // Basis function  11 L = d
  InitBFNGauss(BAS[ATNO][ 10]);
  BAS[ATNO][ 10].l  = 2;
  BAS[ATNO][ 10].ng = 2;
  BAS[ATNO][ 10].a[  0] =         0.738000000000;     BAS[ATNO][ 10].d[  0] =        -0.520786556296;
  BAS[ATNO][ 10].a[  1] =        11.459000000000;     BAS[ATNO][ 10].d[  1] =         0.893569784880;

-------
TIMINGS
-------

Total SCF time: 0 days 0 hours 0 min 1 sec 

Total time                  ....       1.328 sec
Sum of individual times     ....       1.149 sec  ( 86.5%)

Fock matrix formation       ....       0.704 sec  ( 53.0%)
  XC integration            ....       0.020 sec  (  2.8% of F)
    Basis function eval.    ....       0.003 sec  ( 15.9% of XC)
    Density eval.           ....       0.001 sec  (  3.4% of XC)
    XC-Functional eval.     ....       0.001 sec  (  6.5% of XC)
    XC-Potential eval.      ....       0.000 sec  (  2.0% of XC)
Diagonalization             ....       0.000 sec  (  0.0%)
Density matrix formation    ....       0.000 sec  (  0.0%)
Population analysis         ....       0.001 sec  (  0.0%)
Initial guess               ....       0.070 sec  (  5.3%)
Orbital Transformation      ....       0.000 sec  (  0.0%)
Orbital Orthonormalization  ....       0.000 sec  (  0.0%)
DIIS solution               ....       0.000 sec  (  0.0%)
SOSCF solution              ....       0.000 sec  (  0.0%)
Grid generation             ....       0.373 sec  ( 28.1%)

-------------------------   --------------------
FINAL SINGLE POINT ENERGY      -349.611357134054
-------------------------   --------------------


                            ***************************************
                            *     ORCA property calculations      *
                            ***************************************

                                    ---------------------
                                    Active property flags
                                    ---------------------
   (+) Dipole Moment


------------------------------------------------------------------------------
                       ORCA ELECTRIC PROPERTIES CALCULATION
------------------------------------------------------------------------------

Dipole Moment Calculation                       ... on
Quadrupole Moment Calculation                   ... off
Polarizability Calculation                      ... off
GBWName                                         ... Ar_cc-pcvdz_34.25899725_.gbw
Electron density file                           ... Ar_cc-pcvdz_34.25899725_.scfp
The origin for moment calculation is the CENTER OF MASS  = ( 0.000000,  0.000000  0.000000)

-------------
DIPOLE MOMENT
-------------
                                X             Y             Z
Electronic contribution:      0.00000      -0.00000       0.00000
Nuclear contribution   :      0.00000       0.00000       0.00000
                        -----------------------------------------
Total Dipole Moment    :      0.00000      -0.00000       0.00000
                        -----------------------------------------
Magnitude (a.u.)       :      0.00000
Magnitude (Debye)      :      0.00000



--------------------
Rotational spectrum 
--------------------
 
Rotational constants in cm-1:     0.000000     0.000000     0.000000 
Rotational constants in MHz :     0.000000     0.000000     0.000000 

 Dipole components along the rotational axes: 
x,y,z [a.u.] :     0.000000    -0.000000     0.000000 
x,y,z [Debye]:     0.000000    -0.000000     0.000000 

 

Timings for individual modules:

Sum of individual times         ...        2.469 sec (=   0.041 min)
GTO integral calculation        ...        0.510 sec (=   0.008 min)  20.6 %
Relativistic integrals          ...        0.376 sec (=   0.006 min)  15.2 %
SCF iterations                  ...        1.583 sec (=   0.026 min)  64.1 %
                             ****ORCA TERMINATED NORMALLY****
TOTAL RUN TIME: 0 days 0 hours 0 minutes 2 seconds 800 msec
