
                                 *****************
                                 * O   R   C   A *
                                 *****************

           --- An Ab Initio, DFT and Semiempirical electronic structure package ---

                  #######################################################
                  #                        -***-                        #
                  #          Department of theory and spectroscopy      #
                  #               Directorship: Frank Neese             #
                  #        Max Planck Institute fuer Kohlenforschung    #
                  #                Kaiser Wilhelm Platz 1               #
                  #                 D-45470 Muelheim/Ruhr               #
                  #                      Germany                        #
                  #                                                     #
                  #                  All rights reserved                #
                  #                        -***-                        #
                  #######################################################


                         Program Version 4.2.1 -  RELEASE  -


 With contributions from (in alphabetic order):
   Daniel Aravena         : Magnetic Suceptibility
   Michael Atanasov       : Ab Initio Ligand Field Theory (pilot matlab implementation)
   Alexander A. Auer      : GIAO ZORA, VPT2
   Ute Becker             : Parallelization
   Giovanni Bistoni       : ED, misc. LED, open-shell LED, HFLD
   Martin Brehm           : Molecular dynamics
   Dmytro Bykov           : SCF Hessian
   Vijay G. Chilkuri      : MRCI spin determinant printing, contributions to CSF-ICE
   Dipayan Datta          : RHF DLPNO-CCSD density
   Achintya Kumar Dutta   : EOM-CC, STEOM-CC
   Dmitry Ganyushin       : Spin-Orbit,Spin-Spin,Magnetic field MRCI
   Miquel Garcia          : C-PCM Hessian, Gaussian charge scheme
   Yang Guo               : DLPNO-NEVPT2, CIM, IAO-localization
   Andreas Hansen         : Spin unrestricted coupled pair/coupled cluster methods
   Benjamin Helmich-Paris : CASSCF linear response (MC-RPA)
   Lee Huntington         : MR-EOM, pCC
   Robert Izsak           : Overlap fitted RIJCOSX, COSX-SCS-MP3, EOM
   Christian Kollmar      : KDIIS, OOCD, Brueckner-CCSD(T), CCSD density
   Simone Kossmann        : Meta GGA functionals, TD-DFT gradient, OOMP2, MP2 Hessian
   Martin Krupicka        : AUTO-CI
   Lucas Lang             : DCDCAS
   Dagmar Lenk            : GEPOL surface, SMD
   Dimitrios Liakos       : Extrapolation schemes; Compound Job, initial MDCI parallelization
   Dimitrios Manganas     : Further ROCIS development; embedding schemes
   Dimitrios Pantazis     : SARC Basis sets
   Taras Petrenko         : DFT Hessian,TD-DFT gradient, ASA, ECA, R-Raman, ABS, FL, XAS/XES, NRVS
   Peter Pinski           : DLPNO-MP2, DLPNO-MP2 Gradient
   Christoph Reimann      : Effective Core Potentials
   Marius Retegan         : Local ZFS, SOC
   Christoph Riplinger    : Optimizer, TS searches, QM/MM, DLPNO-CCSD(T), (RO)-DLPNO pert. Triples
   Tobias Risthaus        : Range-separated hybrids, TD-DFT gradient, RPA, STAB
   Michael Roemelt        : Original ROCIS implementation
   Masaaki Saitow         : Open-shell DLPNO-CCSD energy and density
   Barbara Sandhoefer     : DKH picture change effects
   Avijit Sen             : IP-ROCIS
   Kantharuban Sivalingam : CASSCF convergence, NEVPT2, FIC-MRCI
   Bernardo de Souza      : ESD, SOC TD-DFT
   Georgi Stoychev        : AutoAux, RI-MP2 NMR
   Willem Van den Heuvel  : Paramagnetic NMR
   Boris Wezisla          : Elementary symmetry handling
   Frank Wennmohs         : Technical directorship


 We gratefully acknowledge several colleagues who have allowed us to
 interface, adapt or use parts of their codes:
   Stefan Grimme, W. Hujo, H. Kruse,             : VdW corrections, initial TS optimization,
                  C. Bannwarth                     DFT functionals, gCP, sTDA/sTD-DF
   Ed Valeev, F. Pavosevic, A. Kumar             : LibInt (2-el integral package), F12 methods
   Garnet Chan, S. Sharma, J. Yang, R. Olivares  : DMRG
   Ulf Ekstrom                                   : XCFun DFT Library
   Mihaly Kallay                                 : mrcc  (arbitrary order and MRCC methods)
   Andreas Klamt, Michael Diedenhofen            : otool_cosmo (COSMO solvation model)
   Jiri Pittner, Ondrej Demel                    : Mk-CCSD
   Frank Weinhold                                : gennbo (NPA and NBO analysis)
   Christopher J. Cramer and Donald G. Truhlar   : smd solvation model
   Lars Goerigk                                  : TD-DFT with DH, B97 family of functionals
   V. Asgeirsson, H. Jonsson                     : NEB implementation
   FAccTs GmbH                                   : IRC, NEB, NEB-TS, Multilevel, MM, QM/MM, CI optimization
   S Lehtola, MJT Oliveira, MAL Marques          : LibXC Library


 Your calculation uses the libint2 library for the computation of 2-el integrals
 For citations please refer to: http://libint.valeyev.net

 Your ORCA version has been built with support for libXC version: 4.2.3
 For citations please refer to: https://tddft.org/programs/libxc/

 This ORCA versions uses:
   CBLAS   interface :  Fast vector & matrix operations
   LAPACKE interface :  Fast linear algebra routines
   SCALAPACK package :  Parallel linear algebra routines


----- Orbital basis set information -----
Your calculation utilizes the basis: cc-pCV5Z 
             H : cc-pV5Z. Obtained from the ccRepo (grant-hill.group.shef.ac.uk/ccrepo) Feb. 2017
                 T. H. Dunning, Jr., J. Chem. Phys. 90, 1007 (1989)
            He : cc-pV5Z. Obtained from the ccRepo (grant-hill.group.shef.ac.uk/ccrepo) Feb. 2017
                 D. E. Woon, T. H. Dunning, Jr., J. Chem. Phys. 100, 2975 (1994)
  Li-Be, Na-Mg : Obtained from the ccRepo (grant-hill.group.shef.ac.uk/ccrepo) Feb. 2017
                 B. P. Prascher, D. E. Woon, K. A. Peterson, T. H. Dunning, Jr., A. K. Wilson, Theor. Chem. Acc. 128, 69 (2011)
          B-Ne : Obtained from the ccRepo (grant-hill.group.shef.ac.uk/ccrepo) Feb. 2017
                 D. E. Woon, T. H. Dunning, Jr., J. Chem. Phys. 103, 4572 (1995)
                  K. A. Peterson, T. H. Dunning, Jr., J. Chem. Phys. 117, 10548 (2002)
         Al-Ar : Obtained from the EMSL Basis Set Exchange (bse.pnl.gov) Feb. 2017
                 K. A. Peterson, T. H. Dunning, Jr., J. Chem. Phys. 117, 10548 (2002)
            Ca : Obtained from the Peterson Research Group Website (tyr0.chem.wsu.edu/~kipeters) Feb. 2017
                 J. Koput, K. A. Peterson, J. Phys. Chem. A 106, 9595 (2002)
         Ga-Kr : Obtained from the Peterson Research Group Website (tyr0.chem.wsu.edu/~kipeters) Feb. 2017
                 N. J. DeYonker, K. A. Peterson, A. K. Wilson, J. Phys. Chem. A 111, 11383 (2007)

================================================================================
                                        WARNINGS
                       Please study these warnings very carefully!
================================================================================


INFO   : the flag for use of LIBINT has been found!

================================================================================
                                       INPUT FILE
================================================================================
NAME = Ar_cc-pcv5z_548.143956_.inp
|  1> ! LDA cc-pcv5z nori grid5 finalgrid6 verytightscf
|  2> %Pal NProcs 18 End
|  3> 
|  4> % REL
|  5>   Method ZORA
|  6>   ModelPot 1, 0, 0, 0
|  7>   velit 548.143956
|  8> END
|  9> 
| 10> *xyz 16 1
| 11> Ar 0.0 0.0 0.0
| 12> **                         ****END OF INPUT****
================================================================================

                       ****************************
                       * Single Point Calculation *
                       ****************************

---------------------------------
CARTESIAN COORDINATES (ANGSTROEM)
---------------------------------
  Ar     0.000000    0.000000    0.000000

----------------------------
CARTESIAN COORDINATES (A.U.)
----------------------------
  NO LB      ZA    FRAG     MASS         X           Y           Z
   0 Ar   18.0000    0    39.948    0.000000    0.000000    0.000000

--------------------------------
INTERNAL COORDINATES (ANGSTROEM)
--------------------------------
 Ar     0   0   0     0.000000000000     0.00000000     0.00000000

---------------------------
INTERNAL COORDINATES (A.U.)
---------------------------
 Ar     0   0   0     0.000000000000     0.00000000     0.00000000

---------------------
BASIS SET INFORMATION
---------------------
There are 1 groups of distinct atoms

 Group   1 Type Ar  : 31s12p8d6f4g2h contracted to 11s10p8d6f4g2h pattern {1111111111111/3111111111/11111111/111111/1111/11}

Atom   0Ar   basis set group =>   1


           ************************************************************
           *        Program running with 18 parallel MPI-processes    *
           *              working on a common directory               *
           ************************************************************
------------------------------------------------------------------------------
                           ORCA GTO INTEGRAL CALCULATION
------------------------------------------------------------------------------

                         BASIS SET STATISTICS AND STARTUP INFO

 # of primitive gaussian shells          ...   63
 # of primitive gaussian functions       ...  207
 # of contracted shells                  ...   41
 # of contracted basis functions         ...  181
 Highest angular momentum                ...    5
 Maximum contraction depth               ...   11
 Integral package used                   ... LIBINT
 Integral threshhold            Thresh   ...  1.000e-12
 Primitive cut-off              TCut     ...  1.000e-14


------------------------------ INTEGRAL EVALUATION ----------------------------


 * One electron integrals 
 Pre-screening matrix                    ... done
 Shell pair data                         ... done (   0.000 sec)



           ************************************************************
           *        Program running with 18 parallel MPI-processes    *
           *              working on a common directory               *
           ************************************************************
------------------------------------------------------------------------------
                          ORCA RELATIVISTIC HAMILTONIAN
------------------------------------------------------------------------------

Relativistic Method            ... ZORA(MP)
Treatment of potential         ... Van Wuellen
Nucleus model                  ... Point Nucleus
Speed of light used            ... 548.14395600000000


            *************************************************
            *         ZERO ORDER REGULAR APPROXIMATION      *
            *                     ZORA(MP)                  *
            *            Programmed by FN according to      *
            *                   C. van Wuellen              *
            *       J. Chem. Phys. (1998) vol 109, 392-399  *
            *************************************************

Terms included in model potential: +V(e,N)
Basis function cutoff value   ... 1.000000e-12
Loading the fitted atomic densities  (DKH4)  ... done
Calculating the cutoffs                      ... done
Number of fit functions                      ... 15
Setting up the integration grid ... done


           ************************************************************
           *        Program running with 18 parallel MPI-processes    *
           *              working on a common directory               *
           ************************************************************
-------------------------------------------------------------------------------
                                 ORCA SCF
-------------------------------------------------------------------------------

------------
SCF SETTINGS
------------
Hamiltonian:
 Density Functional     Method          .... DFT(GTOs)
 Exchange Functional    Exchange        .... Slater
   X-Alpha parameter    XAlpha          ....  0.666667
 Correlation Functional Correlation     .... VWN-5
 Gradients option       PostSCFGGA      .... off
   Density functional embedding theory  .... OFF

Relativistic Settings:
 Scalar relativistic method             .... ZORA
 Speed of light used       Velit        ....       548.143956
Orbital energies will be scaled


General Settings:
 Integral files         IntName         .... Ar_cc-pcv5z_548.143956_
 Hartree-Fock type      HFTyp           .... RHF
 Total Charge           Charge          ....   16
 Multiplicity           Mult            ....    1
 Number of Electrons    NEL             ....    2
 Basis Dimension        Dim             ....  181
 Nuclear Repulsion      ENuc            ....      0.0000000000 Eh

Convergence Acceleration:
 DIIS                   CNVDIIS         .... on
   Start iteration      DIISMaxIt       ....    12
   Startup error        DIISStart       ....  0.200000
   # of expansion vecs  DIISMaxEq       ....     5
   Bias factor          DIISBfac        ....   1.050
   Max. coefficient     DIISMaxC        ....  10.000
 Newton-Raphson         CNVNR           .... off
 SOSCF                  CNVSOSCF        .... on
   Start iteration      SOSCFMaxIt      ....   150
   Startup grad/error   SOSCFStart      ....  0.003300
 Level Shifting         CNVShift        .... on
   Level shift para.    LevelShift      ....    0.2500
   Turn off err/grad.   ShiftErr        ....    0.0010
 Zerner damping         CNVZerner       .... off
 Static damping         CNVDamp         .... on
   Fraction old density DampFac         ....    0.7000
   Max. Damping (<1)    DampMax         ....    0.9800
   Min. Damping (>=0)   DampMin         ....    0.0000
   Turn off err/grad.   DampErr         ....    0.1000
 Fernandez-Rico         CNVRico         .... off

SCF Procedure:
 Maximum # iterations   MaxIter         ....   125
 SCF integral mode      SCFMode         .... Direct
   Integral package                     .... LIBINT
 Reset frequency        DirectResetFreq ....    20
 Integral Threshold     Thresh          ....  1.000e-12 Eh
 Primitive CutOff       TCut            ....  1.000e-14 Eh

Convergence Tolerance:
 Convergence Check Mode ConvCheckMode   .... Total+1el-Energy
 Convergence forced     ConvForced      .... 0
 Energy Change          TolE            ....  1.000e-09 Eh
 1-El. energy change                    ....  1.000e-06 Eh
 Orbital Gradient       TolG            ....  2.000e-06
 Orbital Rotation angle TolX            ....  2.000e-06
 DIIS Error             TolErr          ....  1.000e-08


Diagonalization of the overlap matrix:
Smallest eigenvalue                        ... 8.204e-05
Time for diagonalization                   ...    0.006 sec
Threshold for overlap eigenvalues          ... 1.000e-08
Number of eigenvalues below threshold      ... 0
Time for construction of square roots      ...    0.004 sec
Total time needed                          ...    0.010 sec

-------------------
DFT GRID GENERATION
-------------------

General Integration Accuracy     IntAcc      ...  5.010
Radial Grid Type                 RadialGrid  ... Gauss-Chebyshev
Angular Grid (max. acc.)         AngularGrid ... Lebedev-434
Angular grid pruning method      GridPruning ... 3 (G Style)
Weight generation scheme         WeightScheme... Becke
Basis function cutoff            BFCut       ...    1.0000e-12
Integration weight cutoff        WCut        ...    1.0000e-14
Grids for H and He will be reduced by one unit

# of grid points (after initial pruning)     ...  11992 (   0.0 sec)
# of grid points (after weights+screening)   ...  11992 (   0.0 sec)
Grid point division into batches done        ...    0.1 sec
Reduced shell lists constructed in    0.1 sec

Total number of grid points                  ...    11992
Total number of batches                      ...      188
Average number of points per batch           ...       63
Average number of grid points per atom       ...    11992
Average number of shells per batch           ...     0.42 ( 1.02%)
Average number of basis functions per batch  ...     1.25 ( 0.69%)
Average number of large shells per batch     ...     0.42 (100.00%)
Average number of large basis fcns per batch ...     1.25 (100.00%)
Maximum spatial batch extension              ...  18.71, 18.71, 18.71 au
Average spatial batch extension              ...   0.97,  0.98,  0.97 au

Time for grid setup =    0.152 sec

------------------------------
INITIAL GUESS: MODEL POTENTIAL
------------------------------
Loading ZORA relativistic densities                ... done
Calculating cut-offs                               ... done
Setting up the integral package                    ... done
Initializing the effective Hamiltonian             ... done
Starting the Coulomb interaction                   ... done (   0.0 sec)
Reading the grid                                   ... done
Mapping shells                                     ... done
Starting the XC term evaluation                    ... done (   0.0 sec)
  promolecular density results
     # of electrons  =     18.000000116
     EX              =    -28.047870263
     EC              =     -1.433252902
     EX+EC           =    -29.481123164
Transforming the Hamiltonian                       ... done (   0.0 sec)
Diagonalizing the Hamiltonian                      ... done (   0.0 sec)
Back transforming the eigenvectors                 ... done (   0.0 sec)
Now organizing SCF variables                       ... done
                      ------------------
                      INITIAL GUESS DONE (   0.2 sec)
                      ------------------
--------------
SCF ITERATIONS
--------------
ITER       Energy         Delta-E        Max-DP      RMS-DP      [F,P]     Damp
               ***  Starting incremental Fock matrix formation  ***
  0   -311.6668181269   0.000000000000 0.00341580  0.00004046  2.7988846 0.7000
  1   -311.6775468986  -0.010728771613 0.00237852  0.00002796  1.9384478 0.7000
  2   -311.6849674883  -0.007420589716 0.00165080  0.00001928  1.3414831 0.7000
  3   -311.6901191772  -0.005151688916 0.00114579  0.00001329  0.9284063 0.7000
                      *** Initiating the SOSCF procedure ***
                      *** Re-Reading the Fockian *** 
                      *** Removing any level shift *** 
ITER      Energy       Delta-E        Grad      Rot      Max-DP    RMS-DP
  4   -311.69370498  -0.0035858021  0.003206  0.003206  0.002651  0.000031
               *** Restarting incremental Fock matrix formation ***
  5   -311.70200856  -0.0083035758  0.007391  0.000040  0.000169  0.000002
  6   -311.70200984  -0.0000012830  0.000215  0.000001  0.000004  0.000000
                  ***Gradient check signals convergence***
              ***Rediagonalizing the Fockian in SOSCF/NRSCF***

               *****************************************************
               *                     SUCCESS                       *
               *           SCF CONVERGED AFTER   7 CYCLES          *
               *****************************************************

Setting up the final grid:

General Integration Accuracy     IntAcc      ...  5.340
Radial Grid Type                 RadialGrid  ... Gauss-Chebyshev
Angular Grid (max. acc.)         AngularGrid ... Lebedev-590
Angular grid pruning method      GridPruning ... 3 (G Style)
Weight generation scheme         WeightScheme... Becke
Basis function cutoff            BFCut       ...    1.0000e-12
Integration weight cutoff        WCut        ...    1.0000e-14
Grids for H and He will be reduced by one unit

# of grid points (after initial pruning)     ...  18110 (   0.0 sec)
# of grid points (after weights+screening)   ...  18110 (   0.0 sec)
Grid point division into batches done        ...    0.2 sec
Reduced shell lists constructed in    0.2 sec

Total number of grid points                  ...    18110
Total number of batches                      ...      283
Average number of points per batch           ...       63
Average number of grid points per atom       ...    18110
Average number of shells per batch           ...     0.00 ( 0.00%)
Average number of basis functions per batch  ...     0.00 ( 0.00%)
Average number of large shells per batch     ...     0.00 ( -nan%)
Average number of large basis fcns per batch ...     0.00 ( -nan%)
Maximum spatial batch extension              ...  19.03, 19.03, 19.03 au
Average spatial batch extension              ...   0.84,  0.84,  0.80 au

Final grid set up in    0.3 sec
Final integration                            ... done (   0.0 sec)
Change in XC energy                          ...     0.000016064
Integrated number of electrons               ...     2.000000072
Previous integrated no of electrons          ...     2.000001294

----------------
TOTAL SCF ENERGY
----------------

Total Energy       :         -311.70199378 Eh           -8481.84246 eV

Components:
Nuclear Repulsion  :            0.00000000 Eh               0.00000 eV
Electronic Energy  :         -311.70199378 Eh           -8481.84246 eV
One Electron Energy:         -324.02667290 Eh           -8817.21403 eV
Two Electron Energy:           12.32467912 Eh             335.37157 eV

Virial components:
Potential Energy   :         -623.39075191 Eh          -16963.32476 eV
Kinetic Energy     :          311.68875814 Eh            8481.48230 eV
Virial Ratio       :            2.00004246


DFT components:
N(Alpha)           :        1.000000035865 electrons
N(Beta)            :        1.000000035865 electrons
N(Total)           :        2.000000071730 electrons
E(X)               :       -9.440481953731 Eh       
E(C)               :       -0.236939000507 Eh       
E(XC)              :       -9.677420954237 Eh       
DFET-embed. en.    :        0.000000000000 Eh       

---------------
SCF CONVERGENCE
---------------

  Last Energy change         ...   -1.1265e-09  Tolerance :   1.0000e-09
  Last MAX-Density change    ...    1.9851e-09  Tolerance :   1.0000e-08
  Last RMS-Density change    ...    1.4615e-11  Tolerance :   1.0000e-09
  Last Orbital Gradient      ...    1.8423e-08  Tolerance :   2.0000e-06
  Last Orbital Rotation      ...    3.5942e-11  Tolerance :   2.0000e-06

================================================================================
                                        WARNING
Number of found core electrons (2) does not match given number of chemical core electrons (10)
================================================================================
             **** THE GBW FILE WAS UPDATED (Ar_cc-pcv5z_548.143956_.gbw) ****
             **** DENSITY FILE WAS UPDATED (Ar_cc-pcv5z_548.143956_.scfp) ****
             **** ENERGY FILE WAS UPDATED (Ar_cc-pcv5z_548.143956_.en.tmp) ****
             **** THE GBW FILE WAS UPDATED (Ar_cc-pcv5z_548.143956_.gbw) ****
             **** DENSITY FILE WAS UPDATED (Ar_cc-pcv5z_548.143956_.scfp) ****
----------------
ORBITAL ENERGIES
----------------

  NO   OCC          E(Eh)            E(eV) 
   0   2.0000    -146.432922     -3984.6424 
   1   0.0000     -34.126251      -928.6225 
   2   0.0000     -33.275746      -905.4791 
   3   0.0000     -33.275746      -905.4791 
   4   0.0000     -33.275746      -905.4791 
   5   0.0000     -14.800142      -402.7323 
   6   0.0000     -14.534909      -395.5150 
   7   0.0000     -14.534909      -395.5150 
   8   0.0000     -14.534909      -395.5150 
   9   0.0000     -14.325428      -389.8147 
  10   0.0000     -14.325428      -389.8147 
  11   0.0000     -14.325428      -389.8147 
  12   0.0000     -14.325428      -389.8147 
  13   0.0000     -14.325428      -389.8147 
  14   0.0000      -8.235595      -224.1019 
  15   0.0000      -8.122669      -221.0291 
  16   0.0000      -8.122669      -221.0291 
  17   0.0000      -8.122669      -221.0291 
  18   0.0000      -8.033081      -218.5913 
  19   0.0000      -8.033081      -218.5913 
  20   0.0000      -8.033081      -218.5913 
  21   0.0000      -8.033081      -218.5913 
  22   0.0000      -8.033081      -218.5913 
  23   0.0000      -7.952914      -216.4098 
  24   0.0000      -7.952914      -216.4098 
  25   0.0000      -7.952914      -216.4098 
  26   0.0000      -7.952914      -216.4098 
  27   0.0000      -7.952914      -216.4098 
  28   0.0000      -7.952914      -216.4098 
  29   0.0000      -7.952914      -216.4098 
  30   0.0000      -5.221581      -142.0864 
  31   0.0000      -5.158969      -140.3827 
  32   0.0000      -5.158969      -140.3827 
  33   0.0000      -5.158969      -140.3827 
  34   0.0000      -5.093651      -138.6053 
  35   0.0000      -5.093651      -138.6053 
  36   0.0000      -5.093651      -138.6053 
  37   0.0000      -5.093651      -138.6053 
  38   0.0000      -5.093651      -138.6053 
  39   0.0000      -5.093651      -138.6053 
  40   0.0000      -5.093651      -138.6053 
  41   0.0000      -5.093651      -138.6053 
  42   0.0000      -5.093651      -138.6053 
  43   0.0000      -5.083716      -138.3349 
  44   0.0000      -5.083716      -138.3349 
  45   0.0000      -5.083716      -138.3349 
  46   0.0000      -5.083716      -138.3349 
  47   0.0000      -5.083716      -138.3349 
  48   0.0000      -5.082062      -138.2899 
  49   0.0000      -5.082062      -138.2899 
  50   0.0000      -5.082062      -138.2899 
  51   0.0000      -5.082062      -138.2899 
  52   0.0000      -5.082062      -138.2899 
  53   0.0000      -5.082062      -138.2899 
  54   0.0000      -5.082062      -138.2899 
  55   0.0000      -3.603721       -98.0622 
  56   0.0000      -3.449787       -93.8735 
  57   0.0000      -3.449787       -93.8735 
  58   0.0000      -3.449787       -93.8735 
  59   0.0000      -3.178002       -86.4778 
  60   0.0000      -3.178002       -86.4778 
  61   0.0000      -3.178002       -86.4778 
  62   0.0000      -3.178002       -86.4778 
  63   0.0000      -3.178002       -86.4778 
  64   0.0000      -3.178002       -86.4778 
  65   0.0000      -3.178002       -86.4778 
  66   0.0000      -2.629277       -71.5463 
  67   0.0000      -2.629277       -71.5463 
  68   0.0000      -2.629277       -71.5463 
  69   0.0000      -2.629277       -71.5463 
  70   0.0000      -2.629277       -71.5463 
  71   0.0000      -2.629277       -71.5463 
  72   0.0000      -2.629277       -71.5463 
  73   0.0000      -2.629277       -71.5463 
  74   0.0000      -2.629277       -71.5463 
  75   0.0000      -2.504018       -68.1378 
  76   0.0000      -2.504018       -68.1378 
  77   0.0000      -2.504018       -68.1378 
  78   0.0000      -2.504018       -68.1378 
  79   0.0000      -2.504018       -68.1378 
  80   0.0000      -2.388720       -65.0004 
  81   0.0000      -2.388720       -65.0004 
  82   0.0000      -2.388720       -65.0004 
  83   0.0000      -2.388720       -65.0004 
  84   0.0000      -2.388720       -65.0004 
  85   0.0000      -2.388720       -65.0004 
  86   0.0000      -2.388720       -65.0004 
  87   0.0000      -2.388720       -65.0004 
  88   0.0000      -2.388720       -65.0004 
  89   0.0000      -2.388720       -65.0004 
  90   0.0000      -2.388720       -65.0004 
  91   0.0000      -1.560402       -42.4607 
  92   0.0000      -1.560402       -42.4607 
  93   0.0000      -1.560402       -42.4607 
  94   0.0000       2.712383        73.8077 
  95   0.0000       4.204938       114.4222 
  96   0.0000       4.204938       114.4222 
  97   0.0000       4.204938       114.4222 
  98   0.0000       4.204938       114.4222 
  99   0.0000       4.204938       114.4222 
 100   0.0000       4.204938       114.4222 
 101   0.0000       4.204938       114.4222 
 102   0.0000      11.321355       308.0697 
 103   0.0000      11.321355       308.0697 
 104   0.0000      11.321355       308.0697 
 105   0.0000      11.321355       308.0697 
 106   0.0000      11.321355       308.0697 
 107   0.0000      14.714653       400.4061 
 108   0.0000      14.714653       400.4061 
 109   0.0000      14.714653       400.4061 
 110   0.0000      23.169016       630.4610 
 111   0.0000      23.169016       630.4610 
 112   0.0000      23.169016       630.4610 
 113   0.0000      23.169016       630.4610 
 114   0.0000      23.169016       630.4610 
 115   0.0000      23.169016       630.4610 
 116   0.0000      23.169016       630.4610 
 117   0.0000      23.169016       630.4610 
 118   0.0000      23.169016       630.4610 
 119   0.0000      29.194870       794.4328 
 120   0.0000      38.696926      1052.9969 
 121   0.0000      38.696926      1052.9969 
 122   0.0000      38.696926      1052.9969 
 123   0.0000      38.696926      1052.9969 
 124   0.0000      38.696926      1052.9969 
 125   0.0000      38.696926      1052.9969 
 126   0.0000      38.696926      1052.9969 
 127   0.0000      48.996533      1333.2635 
 128   0.0000      48.996533      1333.2635 
 129   0.0000      48.996533      1333.2635 
 130   0.0000      48.996533      1333.2635 
 131   0.0000      48.996533      1333.2635 
 132   0.0000      68.660217      1868.3395 
 133   0.0000      68.660217      1868.3395 
 134   0.0000      68.660217      1868.3395 
 135   0.0000      93.554192      2545.7390 
 136   0.0000      93.554192      2545.7390 
 137   0.0000      93.554192      2545.7390 
 138   0.0000      93.554192      2545.7390 
 139   0.0000      93.554192      2545.7390 
 140   0.0000      93.554192      2545.7390 
 141   0.0000      93.554192      2545.7390 
 142   0.0000      93.554192      2545.7390 
 143   0.0000      93.554192      2545.7390 
 144   0.0000      93.554192      2545.7390 
 145   0.0000      93.554192      2545.7390 
 146   0.0000     107.045453      2912.8549 
 147   0.0000     111.573622      3036.0726 
 148   0.0000     111.573622      3036.0726 
 149   0.0000     111.573622      3036.0726 
 150   0.0000     111.573622      3036.0726 
 151   0.0000     111.573622      3036.0726 
 152   0.0000     111.573622      3036.0726 
 153   0.0000     111.573622      3036.0726 
 154   0.0000     111.573622      3036.0726 
 155   0.0000     111.573622      3036.0726 
 156   0.0000     136.717679      3720.2772 
 157   0.0000     136.717679      3720.2772 
 158   0.0000     136.717679      3720.2772 
 159   0.0000     136.717679      3720.2772 
 160   0.0000     136.717679      3720.2772 
 161   0.0000     137.552483      3742.9934 
 162   0.0000     137.552483      3742.9934 
 163   0.0000     137.552483      3742.9934 
 164   0.0000     137.552483      3742.9934 
 165   0.0000     137.552483      3742.9934 
 166   0.0000     137.552483      3742.9934 
 167   0.0000     137.552483      3742.9934 
 168   0.0000     225.700472      6141.6221 
 169   0.0000     225.700472      6141.6221 
 170   0.0000     225.700472      6141.6221 
 171   0.0000     334.307772      9096.9770 
 172   0.0000     334.307772      9096.9770 
 173   0.0000     334.307772      9096.9770 
 174   0.0000     334.307772      9096.9770 
 175   0.0000     334.307772      9096.9770 
 176   0.0000     335.586179      9131.7642 
 177   0.0000     792.281486     21559.0753 
 178   0.0000     792.281486     21559.0753 
 179   0.0000     792.281486     21559.0753 
 180   0.0000    1567.717254     42659.7553 

                    ********************************
                    * MULLIKEN POPULATION ANALYSIS *
                    ********************************

-----------------------
MULLIKEN ATOMIC CHARGES
-----------------------
   0 Ar:   16.000000
Sum of atomic charges:   16.0000000

--------------------------------
MULLIKEN REDUCED ORBITAL CHARGES
--------------------------------
  0 Ars       :     2.000000  s :     2.000000
      pz      :     0.000000  p :     0.000000
      px      :     0.000000
      py      :     0.000000
      dz2     :     0.000000  d :     0.000000
      dxz     :     0.000000
      dyz     :     0.000000
      dx2y2   :     0.000000
      dxy     :     0.000000
      f0      :     0.000000  f :     0.000000
      f+1     :     0.000000
      f-1     :     0.000000
      f+2     :     0.000000
      f-2     :     0.000000
      f+3     :     0.000000
      f-3     :     0.000000
      g0      :     0.000000  g :     0.000000
      g+1     :     0.000000
      g-1     :     0.000000
      g+2     :     0.000000
      g-2     :     0.000000
      g+3     :     0.000000
      g-3     :     0.000000
      g+4     :     0.000000
      g-4     :     0.000000
      h0      :     0.000000  h :     0.000000
      h+1     :     0.000000
      h-1     :     0.000000
      h+2     :     0.000000
      h-2     :     0.000000
      h+3     :     0.000000
      h-3     :     0.000000
      h+4     :     0.000000
      h-4     :     0.000000
      h+5     :     0.000000
      h-5     :     0.000000


                     *******************************
                     * LOEWDIN POPULATION ANALYSIS *
                     *******************************

----------------------
LOEWDIN ATOMIC CHARGES
----------------------
   0 Ar:   16.000000

-------------------------------
LOEWDIN REDUCED ORBITAL CHARGES
-------------------------------
  0 Ars       :     2.000000  s :     2.000000
      pz      :     0.000000  p :     0.000000
      px      :     0.000000
      py      :     0.000000
      dz2     :     0.000000  d :     0.000000
      dxz     :     0.000000
      dyz     :     0.000000
      dx2y2   :     0.000000
      dxy     :     0.000000
      f0      :     0.000000  f :     0.000000
      f+1     :     0.000000
      f-1     :     0.000000
      f+2     :     0.000000
      f-2     :     0.000000
      f+3     :     0.000000
      f-3     :     0.000000
      g0      :     0.000000  g :     0.000000
      g+1     :     0.000000
      g-1     :     0.000000
      g+2     :     0.000000
      g-2     :     0.000000
      g+3     :     0.000000
      g-3     :     0.000000
      g+4     :     0.000000
      g-4     :     0.000000
      h0      :     0.000000  h :     0.000000
      h+1     :     0.000000
      h-1     :     0.000000
      h+2     :     0.000000
      h-2     :     0.000000
      h+3     :     0.000000
      h-3     :     0.000000
      h+4     :     0.000000
      h-4     :     0.000000
      h+5     :     0.000000
      h-5     :     0.000000


                      *****************************
                      * MAYER POPULATION ANALYSIS *
                      *****************************

  NA   - Mulliken gross atomic population
  ZA   - Total nuclear charge
  QA   - Mulliken gross atomic charge
  VA   - Mayer's total valence
  BVA  - Mayer's bonded valence
  FA   - Mayer's free valence

  ATOM       NA         ZA         QA         VA         BVA        FA
  0 Ar     2.0000    18.0000    16.0000    -0.0000     0.0000    -0.0000

  Mayer bond orders larger than 0.100000


--------------------------
ATOM BASIS FOR ELEMENT Ar
--------------------------
 NewGTO Ar
 S 31
    1    7401000.000000000000         0.000001864015
    2    1108000.000000000000         0.000014083671
    3     252100.000000000000         0.000074146385
    4      71380.000000000000         0.000313775902
    5      23260.000000000000         0.001145437375
    6       8390.000000000000         0.003734968793
    7       3271.000000000000         0.011094204583
    8       1357.000000000000         0.030141955155
    9        592.000000000000         0.074208622061
   10        269.100000000000         0.159622357613
   11        126.500000000000         0.280034222291
   12    7401000.000000000000        -0.000000044331
   13    1108000.000000000000        -0.000000345779
   14     252100.000000000000        -0.000001799825
   15      71380.000000000000        -0.000007633740
   16      23260.000000000000        -0.000027875121
   17       8390.000000000000        -0.000091179309
   18       3271.000000000000        -0.000272429660
   19       1357.000000000000        -0.000751431345
   20        592.000000000000        -0.001908000625
   21        269.100000000000        -0.004384240561
   22        126.500000000000        -0.008757602377
   23         61.030000000000         0.339583393525
   24         29.860000000000         0.223775907178
   25         14.170000000000         0.042411533911
   26          7.022000000000        -0.002536584602
   27          3.511000000000         0.001452605081
   28          1.758000000000        -0.000686137756
   29          0.784100000000         0.000285228148
   30          0.348000000000        -0.000113851561
   31          0.149100000000         0.000028412370
 S 31
    1    7401000.000000000000        -0.000000063718
    2    1108000.000000000000        -0.000000481428
    3     252100.000000000000        -0.000002534578
    4      71380.000000000000        -0.000010725940
    5      23260.000000000000        -0.000039154989
    6       8390.000000000000        -0.000127674081
    7       3271.000000000000        -0.000379238073
    8       1357.000000000000        -0.001030355707
    9        592.000000000000        -0.002536705958
   10        269.100000000000        -0.005456441237
   11        126.500000000000        -0.009572532953
   12    7401000.000000000000         0.000000664633
   13    1108000.000000000000         0.000005184136
   14     252100.000000000000         0.000026984094
   15      71380.000000000000         0.000114449779
   16      23260.000000000000         0.000417921144
   17       8390.000000000000         0.001367016871
   18       3271.000000000000         0.004084434793
   19       1357.000000000000         0.011265925798
   20        592.000000000000         0.028605931325
   21        269.100000000000         0.065731259608
   22        126.500000000000         0.131299418311
   23         61.030000000000         0.200574217798
   24         29.860000000000         0.185731009492
   25         14.170000000000        -0.181712582579
   26          7.022000000000        -0.662367362302
   27          3.511000000000        -0.343603326926
   28          1.758000000000        -0.009129355588
   29          0.784100000000        -0.002663528759
   30          0.348000000000         0.001083065588
   31          0.149100000000        -0.000268047014
 S 31
    1    7401000.000000000000         0.000000110500
    2    1108000.000000000000         0.000000834891
    3     252100.000000000000         0.000004395455
    4      71380.000000000000         0.000018600876
    5      23260.000000000000         0.000067902406
    6       8390.000000000000         0.000221411814
    7       3271.000000000000         0.000657672954
    8       1357.000000000000         0.001786838212
    9        592.000000000000         0.004399144013
   10        269.100000000000         0.009462535744
   11        126.500000000000         0.016600643404
   12    7401000.000000000000        -0.000000428423
   13    1108000.000000000000        -0.000003341700
   14     252100.000000000000        -0.000017393975
   15      71380.000000000000        -0.000073774445
   16      23260.000000000000        -0.000269392398
   17       8390.000000000000        -0.000881180476
   18       3271.000000000000        -0.002632830853
   19       1357.000000000000        -0.007262027315
   20        592.000000000000        -0.018439412648
   21        269.100000000000        -0.042370437305
   22        126.500000000000        -0.084635739599
   23         61.030000000000        -0.118584640544
   24         29.860000000000        -0.120627395174
   25         14.170000000000         0.155115933335
   26          7.022000000000         0.806476238090
   27          3.511000000000         0.406668149525
   28          1.758000000000        -1.278835485491
   29          0.784100000000        -0.332941727587
   30          0.348000000000         0.039386860375
   31          0.149100000000        -0.007972474383
 S 31
    1    7401000.000000000000        -0.000000105810
    2    1108000.000000000000        -0.000000799457
    3     252100.000000000000        -0.000004208905
    4      71380.000000000000        -0.000017811430
    5      23260.000000000000        -0.000065020535
    6       8390.000000000000        -0.000212014795
    7       3271.000000000000        -0.000629760420
    8       1357.000000000000        -0.001711002370
    9        592.000000000000        -0.004212438362
   10        269.100000000000        -0.009060932867
   11        126.500000000000        -0.015896089537
   12    7401000.000000000000         0.000000309176
   13    1108000.000000000000         0.000002411575
   14     252100.000000000000         0.000012552559
   15      71380.000000000000         0.000053240165
   16      23260.000000000000         0.000194410079
   17       8390.000000000000         0.000635913884
   18       3271.000000000000         0.001900012245
   19       1357.000000000000         0.005240724372
   20        592.000000000000         0.013307011263
   21        269.100000000000         0.030577106614
   22        126.500000000000         0.061078341355
   23         61.030000000000         0.075855632919
   24         29.860000000000         0.095193936547
   25         14.170000000000        -0.148855815141
   26          7.022000000000        -0.625271137012
   27          3.511000000000        -0.539530576459
   28          1.758000000000         2.716287484107
   29          0.784100000000        -1.332750854588
   30          0.348000000000        -0.846402722505
   31          0.149100000000         0.091210307383
 S 31
    1    7401000.000000000000        -0.000000114418
    2    1108000.000000000000        -0.000000864495
    3     252100.000000000000        -0.000004551314
    4      71380.000000000000        -0.000019260447
    5      23260.000000000000        -0.000070310167
    6       8390.000000000000        -0.000229262886
    7       3271.000000000000        -0.000680993470
    8       1357.000000000000        -0.001850197954
    9        592.000000000000        -0.004555133867
   10        269.100000000000        -0.009798069104
   11        126.500000000000        -0.017189287907
   12    7401000.000000000000         0.000000261374
   13    1108000.000000000000         0.000002038718
   14     252100.000000000000         0.000010611787
   15      71380.000000000000         0.000045008613
   16      23260.000000000000         0.000164352008
   17       8390.000000000000         0.000537594163
   18       3271.000000000000         0.001606248137
   19       1357.000000000000         0.004430447112
   20        592.000000000000         0.011249591741
   21        269.100000000000         0.025849528436
   22        126.500000000000         0.051634915678
   23         61.030000000000         0.050419407147
   24         29.860000000000         0.093516290594
   25         14.170000000000        -0.176739015050
   26          7.022000000000        -0.384681438707
   27          3.511000000000        -0.803034680150
   28          1.758000000000         3.873963587355
   29          0.784100000000        -4.694628179740
   30          0.348000000000         1.665136380876
   31          0.149100000000         0.763589235505
 S 31
    1    7401000.000000000000        -0.000000106901
    2    1108000.000000000000        -0.000000807700
    3     252100.000000000000        -0.000004252303
    4      71380.000000000000        -0.000017995079
    5      23260.000000000000        -0.000065690949
    6       8390.000000000000        -0.000214200835
    7       3271.000000000000        -0.000636253747
    8       1357.000000000000        -0.001728644155
    9        592.000000000000        -0.004255871928
   10        269.100000000000        -0.009154358240
   11        126.500000000000        -0.016059990773
   12    7401000.000000000000         0.000000228578
   13    1108000.000000000000         0.000001782910
   14     252100.000000000000         0.000009280277
   15      71380.000000000000         0.000039361175
   16      23260.000000000000         0.000143730003
   17       8390.000000000000         0.000470139744
   18       3271.000000000000         0.001404704775
   19       1357.000000000000         0.003874538477
   20        592.000000000000         0.009838053576
   21        269.100000000000         0.022606068870
   22        126.500000000000         0.045156044638
   23         61.030000000000         0.040586818903
   24         29.860000000000         0.085374729275
   25         14.170000000000        -0.169639113287
   26          7.022000000000        -0.306419529038
   27          3.511000000000        -0.845001449473
   28          1.758000000000         4.397821063115
   29          0.784100000000        -7.555398756550
   30          0.348000000000         7.271915051434
   31          0.149100000000        -3.299872906241
 S 31
    1    7401000.000000000000         0.000000914979
    2    1108000.000000000000         0.000006913178
    3     252100.000000000000         0.000036395851
    4      71380.000000000000         0.000154021548
    5      23260.000000000000         0.000562254900
    6       8390.000000000000         0.001833364748
    7       3271.000000000000         0.005445754629
    8       1357.000000000000         0.014795625102
    9        592.000000000000         0.036426401197
   10        269.100000000000         0.078352998303
   11        126.500000000000         0.137458945425
   12    7401000.000000000000        -0.000000452556
   13    1108000.000000000000        -0.000003529935
   14     252100.000000000000        -0.000018373764
   15      71380.000000000000        -0.000077930104
   16      23260.000000000000        -0.000284567071
   17       8390.000000000000        -0.000930816716
   18       3271.000000000000        -0.002781136254
   19       1357.000000000000        -0.007671091905
   20        592.000000000000        -0.019478091029
   21        269.100000000000        -0.044757132482
   22        126.500000000000        -0.089403207777
   23         61.030000000000         0.392591158445
   24         29.860000000000        -0.654759919046
   25         14.170000000000         2.206915587091
   26          7.022000000000        -8.951008376044
   27          3.511000000000        16.364977814932
   28          1.758000000000       -15.776215897740
   29          0.784100000000         9.833741577189
   30          0.348000000000        -4.687870749567
   31          0.149100000000         1.268730483532
 S 31
    1    7401000.000000000000         0.000004946846
    2    1108000.000000000000         0.000037376167
    3     252100.000000000000         0.000196774528
    4      71380.000000000000         0.000832719022
    5      23260.000000000000         0.003039836666
    6       8390.000000000000         0.009912104606
    7       3271.000000000000         0.029442526149
    8       1357.000000000000         0.079992693137
    9        592.000000000000         0.196939697579
   10        269.100000000000         0.423616258624
   11        126.500000000000         0.743173145085
   12    7401000.000000000000        -0.000005233472
   13    1108000.000000000000        -0.000040821083
   14     252100.000000000000        -0.000212478972
   15      71380.000000000000        -0.000901203916
   16      23260.000000000000        -0.003290807331
   17       8390.000000000000        -0.010764205660
   18       3271.000000000000        -0.032161780176
   19       1357.000000000000        -0.088710494198
   20        592.000000000000        -0.225249691007
   21        269.100000000000        -0.517583075614
   22        126.500000000000        -1.033881857146
   23         61.030000000000         0.653146340141
   24         29.860000000000        -3.936167515560
   25         14.170000000000        12.492003563886
   26          7.022000000000       -19.006997850871
   27          3.511000000000        17.515609515387
   28          1.758000000000       -10.812995955844
   29          0.784100000000         4.990638936605
   30          0.348000000000        -2.048868009690
   31          0.149100000000         0.515679042653
 S 31
    1    7401000.000000000000        -0.000011897563
    2    1108000.000000000000        -0.000089892701
    3     252100.000000000000        -0.000473258634
    4      71380.000000000000        -0.002002756508
    5      23260.000000000000        -0.007311052718
    6       8390.000000000000        -0.023839412204
    7       3271.000000000000        -0.070811653540
    8       1357.000000000000        -0.192388888218
    9        592.000000000000        -0.473655880020
   10        269.100000000000        -1.018831318604
   11        126.500000000000        -1.787391442003
   12    7401000.000000000000         0.000009656422
   13    1108000.000000000000         0.000075320090
   14     252100.000000000000         0.000392050723
   15      71380.000000000000         0.001662835826
   16      23260.000000000000         0.006071958000
   17       8390.000000000000         0.019861328267
   18       3271.000000000000         0.059342574259
   19       1357.000000000000         0.163682142615
   20        592.000000000000         0.415614323657
   21        269.100000000000         0.955006592665
   22        126.500000000000         1.907643499431
   23         61.030000000000        -4.463304191157
   24         29.860000000000        12.326885552352
   25         14.170000000000       -16.693796342718
   26          7.022000000000        15.452889467359
   27          3.511000000000       -10.849878294491
   28          1.758000000000         5.907004662915
   29          0.784100000000        -2.590690673186
   30          0.348000000000         1.050106118794
   31          0.149100000000        -0.263455127039
 S 31
    1    7401000.000000000000        -0.000070890127
    2    1108000.000000000000        -0.000535614294
    3     252100.000000000000        -0.002819851726
    4      71380.000000000000        -0.011933171408
    5      23260.000000000000        -0.043561983151
    6       8390.000000000000        -0.142044123162
    7       3271.000000000000        -0.421922283599
    8       1357.000000000000        -1.146324863184
    9        592.000000000000        -2.822218668085
   10        269.100000000000        -6.070577582337
   11        126.500000000000       -10.649945894431
   12    7401000.000000000000         0.000068022614
   13    1108000.000000000000         0.000530576391
   14     252100.000000000000         0.002761718138
   15      71380.000000000000         0.011713494170
   16      23260.000000000000         0.042772619827
   17       8390.000000000000         0.139908912945
   18       3271.000000000000         0.418026173479
   19       1357.000000000000         1.153024124740
   20        592.000000000000         2.927706920914
   21        269.100000000000         6.727341315531
   22        126.500000000000        13.437989881530
   23         61.030000000000        -9.871825208293
   24         29.860000000000        12.953431521788
   25         14.170000000000       -11.730197617042
   26          7.022000000000         9.143102771501
   27          3.511000000000        -6.045242777486
   28          1.758000000000         3.249783983623
   29          0.784100000000        -1.429027168678
   30          0.348000000000         0.581801323123
   31          0.149100000000        -0.146345172299
 S 31
    1    7401000.000000000000        -0.000259148626
    2    1108000.000000000000        -0.001958011837
    3     252100.000000000000        -0.010308356437
    4      71380.000000000000        -0.043623351963
    5      23260.000000000000        -0.159246830383
    6       8390.000000000000        -0.519261859815
    7       3271.000000000000        -1.542395030519
    8       1357.000000000000        -4.190548451846
    9        592.000000000000       -10.317009122065
   10        269.100000000000       -22.191832617867
   11        126.500000000000       -38.932344323581
   12    7401000.000000000000         0.000222038482
   13    1108000.000000000000         0.001731900159
   14     252100.000000000000         0.009014762368
   15      71380.000000000000         0.038235026596
   16      23260.000000000000         0.139617797467
   17       8390.000000000000         0.456688749731
   18       3271.000000000000         1.364515287143
   19       1357.000000000000         3.763685492602
   20        592.000000000000         9.556580671994
   21        269.100000000000        21.959295013668
   22        126.500000000000        43.864101783860
   23         61.030000000000        -8.407102533459
   24         29.860000000000         8.472382865828
   25         14.170000000000        -7.020222845646
   26          7.022000000000         5.414301633501
   27          3.511000000000        -3.617042413212
   28          1.758000000000         1.968080618169
   29          0.784100000000        -0.873982611474
   30          0.348000000000         0.357728132738
   31          0.149100000000        -0.090211796425
 P 12
    1       2927.000000000000         0.000313116211
    2        693.500000000000         0.002730724266
    3        224.700000000000         0.014891914968
    4         85.170000000000         0.061057751403
    5         35.530000000000         0.187412578716
    6         15.730000000000         0.392929925919
    7          7.165000000000         0.403376380540
    8          3.322000000000         0.103524518710
    9          1.478000000000        -0.000955059907
   10          0.655200000000         0.000802925245
   11          0.275100000000        -0.000278006884
   12          0.109700000000         0.000072187133
 P 12
    1       2927.000000000000         0.000185494539
    2        693.500000000000         0.001617720262
    3        224.700000000000         0.008822184241
    4         85.170000000000         0.036594389936
    5         35.530000000000         0.123590608408
    6         15.730000000000         0.272303995610
    7          7.165000000000         0.278189073568
    8          3.322000000000        -0.547133619895
    9          1.478000000000        -0.656306259499
   10          0.655200000000         0.008933665508
   11          0.275100000000        -0.014263406884
   12          0.109700000000         0.004183708923
 P 12
    1       2927.000000000000         0.000126042588
    2        693.500000000000         0.001099232618
    3        224.700000000000         0.005994628926
    4         85.170000000000         0.023566483135
    5         35.530000000000         0.089490427708
    6         15.730000000000         0.179655707781
    7          7.165000000000         0.232150434595
    8          3.322000000000        -0.819913677829
    9          1.478000000000        -0.381118755389
   10          0.655200000000         1.310149151827
   11          0.275100000000        -0.004638959846
   12          0.109700000000         0.013592928057
 P 12
    1       2927.000000000000         0.000093182322
    2        693.500000000000         0.000812654277
    3        224.700000000000         0.004431783372
    4         85.170000000000         0.015313881842
    5         35.530000000000         0.070839215868
    6         15.730000000000         0.110800664680
    7          7.165000000000         0.229518241503
    8          3.322000000000        -0.926813056288
    9          1.478000000000         0.241410736802
   10          0.655200000000         1.545774526549
   11          0.275100000000        -1.806378924114
   12          0.109700000000         0.099845474369
 P 12
    1       2927.000000000000         0.000069497805
    2        693.500000000000         0.000606098748
    3        224.700000000000         0.003305339585
    4         85.170000000000         0.009024817819
    5         35.530000000000         0.057320975323
    6         15.730000000000         0.054702948941
    7          7.165000000000         0.235387952348
    8          3.322000000000        -0.941426015887
    9          1.478000000000         0.861681016207
   10          0.655200000000         0.427418635453
   11          0.275100000000        -1.873950407949
   12          0.109700000000         1.753135416611
 P 12
    1       2927.000000000000        -0.000189720583
    2        693.500000000000        -0.001654576105
    3        224.700000000000        -0.009023176367
    4         85.170000000000        -0.018365719473
    5         35.530000000000        -0.168586079014
    6         15.730000000000        -0.073751750718
    7          7.165000000000        -0.830585590641
    8          3.322000000000         3.397611065879
    9          1.478000000000        -5.213440313105
   10          0.655200000000         4.798638450521
   11          0.275100000000        -2.975084664219
   12          0.109700000000         1.112782577385
 P 12
    1       2927.000000000000         0.000133342875
    2        693.500000000000         0.001162899304
    3        224.700000000000         0.006341833105
    4         85.170000000000         0.171285084197
    5         35.530000000000        -0.142326420763
    6         15.730000000000         2.343311563687
    7          7.165000000000        -5.283165051118
    8          3.322000000000         5.564294546792
    9          1.478000000000        -3.873047395040
   10          0.655200000000         2.143800721901
   11          0.275100000000        -0.931720892256
   12          0.109700000000         0.270623464536
 P 12
    1       2927.000000000000         0.001617514620
    2        693.500000000000         0.014106540220
    3        224.700000000000         0.076929553100
    4         85.170000000000        -0.199834537331
    5         35.530000000000         2.732250994508
    6         15.730000000000        -5.028563061311
    7          7.165000000000         4.871639822511
    8          3.322000000000        -3.336577116843
    9          1.478000000000         1.885484331990
   10          0.655200000000        -0.965230017510
   11          0.275100000000         0.407533230883
   12          0.109700000000        -0.116719892756
 P 12
    1       2927.000000000000        -0.001233112781
    2        693.500000000000        -0.010754125386
    3        224.700000000000        -0.058647269071
    4         85.170000000000         2.383241240869
    5         35.530000000000        -4.021543655572
    6         15.730000000000         3.787882878895
    7          7.165000000000        -2.755061828784
    8          3.322000000000         1.708300196105
    9          1.478000000000        -0.942930129896
   10          0.655200000000         0.482516490780
   11          0.275100000000        -0.204129594689
   12          0.109700000000         0.058478006585
 P 12
    1       2927.000000000000         0.032399430284
    2        693.500000000000         0.282559341779
    3        224.700000000000         1.540928076506
    4         85.170000000000        -2.604304260138
    5         35.530000000000         2.504790020949
    6         15.730000000000        -1.962224998749
    7          7.165000000000         1.370604420355
    8          3.322000000000        -0.852774303604
    9          1.478000000000         0.475684466706
   10          0.655200000000        -0.245177876261
   11          0.275100000000         0.104094198766
   12          0.109700000000        -0.029855349734
 D 8
    1          0.309000000000         0.006187741749
    2          0.770000000000         0.000856271065
    3          1.917000000000         0.433622010579
    4          4.776000000000         0.507796648701
    5         76.808000000000         0.006831362974
    6         38.737000000000         0.006419268109
    7         19.537000000000         0.072346939253
    8          9.853000000000         0.138908794247
 D 8
    1          0.309000000000         0.002958477262
    2          0.770000000000        -0.889720400282
    3          1.917000000000        -0.170439619357
    4          4.776000000000         0.473552123239
    5         76.808000000000         0.006297376289
    6         38.737000000000         0.001017960183
    7         19.537000000000         0.069587163743
    8          9.853000000000         0.093842673506
 D 8
    1          0.309000000000         1.176738741225
    2          0.770000000000        -0.440031868723
    3          1.917000000000        -0.551209959875
    4          4.776000000000         0.429553883055
    5         76.808000000000         0.005931420881
    6         38.737000000000        -0.004265144066
    7         19.537000000000         0.067215705469
    8          9.853000000000         0.043495683910
 D 8
    1          0.309000000000        -1.094856564348
    2          0.770000000000         2.135350978020
    3          1.917000000000        -2.140513336727
    4          4.776000000000         0.977493681512
    5         76.808000000000         0.013955583355
    6         38.737000000000        -0.021261180062
    7         19.537000000000         0.161651939704
    8          9.853000000000         0.000003373033
 D 8
    1          0.309000000000         0.331326318813
    2          0.770000000000        -0.973124722420
    3          1.917000000000         1.926343037822
    4          4.776000000000        -3.081205756189
    5         76.808000000000        -0.040155004174
    6         38.737000000000         0.282311921872
    7         19.537000000000        -0.539202272785
    8          9.853000000000         2.509515823072
 D 8
    1          0.309000000000        -0.153059197311
    2          0.770000000000         0.469604853751
    3          1.917000000000        -1.067158620397
    4          4.776000000000         2.531545385590
    5         76.808000000000         0.213231137197
    6         38.737000000000        -0.707857221447
    7         19.537000000000         3.245535691030
    8          9.853000000000        -4.114160869691
 D 8
    1          0.309000000000         0.083932952220
    2          0.770000000000        -0.257957675312
    3          1.917000000000         0.595647786346
    4          4.776000000000        -1.556245411406
    5         76.808000000000        -0.405619415180
    6         38.737000000000         3.166268535894
    7         19.537000000000        -4.442331545989
    8          9.853000000000         3.258798341318
 D 8
    1          0.309000000000        -0.048720311216
    2          0.770000000000         0.149356704270
    3          1.917000000000        -0.343426620827
    4          4.776000000000         0.905503604462
    5         76.808000000000         2.547461180102
    6         38.737000000000        -4.047819025154
    7         19.537000000000         3.388116307186
    8          9.853000000000        -2.024175151246
 F 6
    1          0.408000000000         0.074396510447
    2          0.825000000000         0.165697586035
    3          1.668000000000         0.754304781877
    4         35.873000000000         0.007682307442
    5         15.140000000000        -0.014681914291
    6          6.390000000000         0.187600381244
 F 6
    1          0.408000000000        -0.685219486128
    2          0.825000000000        -0.549539134245
    3          1.668000000000         0.705374434996
    4         35.873000000000         0.006892497263
    5         15.140000000000        -0.012534031161
    6          6.390000000000         0.178243779918
 F 6
    1          0.408000000000         1.618630094728
    2          0.825000000000        -2.307537395621
    3          1.668000000000         1.040681247161
    4         35.873000000000         0.007446074038
    5         15.140000000000        -0.010138775838
    6          6.390000000000         0.216457279008
 F 6
    1          0.408000000000        -0.576310806845
    2          0.825000000000         1.402083134200
    3          1.668000000000        -1.470011725270
    4         35.873000000000         0.043221434745
    5         15.140000000000        -0.097719693919
    6          6.390000000000         1.164661437071
 F 6
    1          0.408000000000         0.179064726224
    2          0.825000000000        -0.465420095386
    3          1.668000000000         0.577592449666
    4         35.873000000000        -0.150497428747
    5         15.140000000000         1.542475831089
    6          6.390000000000        -1.128484705405
 F 6
    1          0.408000000000        -0.077467790267
    2          0.825000000000         0.201388287912
    3          1.668000000000        -0.253152299507
    4         35.873000000000         1.473437877908
    5         15.140000000000        -1.297206461957
    6          6.390000000000         0.587016104009
 G 4
    1          0.665000000000        -0.673750297802
    2          1.562000000000        -0.431671164434
    3         26.560000000000         0.002557171894
    4         10.306000000000        -0.016465992067
 G 4
    1          0.665000000000         1.071411713261
    2          1.562000000000        -1.184231375243
    3         26.560000000000         0.005095719716
    4         10.306000000000        -0.035006061919
 G 4
    1          0.665000000000        -0.116522981952
    2          1.562000000000         0.224128240473
    3         26.560000000000         0.118827656172
    4         10.306000000000        -1.070201184248
 G 4
    1          0.665000000000        -0.037326479094
    2          1.562000000000         0.073948184213
    3         26.560000000000         1.196257540525
    4         10.306000000000        -0.569936331083
 H 2
    1          1.264000000000         0.999993335487
    2         21.104000000000         0.000943551560
 H 2
    1          1.264000000000        -0.007535136924
    2         21.104000000000         1.000021279282
 end
  // -----------------------------------------------
  // The basis set
  // -----------------------------------------------
  BAS[ATNO] = new BFNGauss[NSH];
  // Basis function   1 L = s
  InitBFNGauss(BAS[ATNO][  0]);
  BAS[ATNO][  0].l  = 0;
  BAS[ATNO][  0].ng = 31;
  BAS[ATNO][  0].a[  0] =   7401000.000000000000;     BAS[ATNO][  0].d[  0] =         0.000001864015;
  BAS[ATNO][  0].a[  1] =   1108000.000000000000;     BAS[ATNO][  0].d[  1] =         0.000014083671;
  BAS[ATNO][  0].a[  2] =    252100.000000000000;     BAS[ATNO][  0].d[  2] =         0.000074146385;
  BAS[ATNO][  0].a[  3] =     71380.000000000000;     BAS[ATNO][  0].d[  3] =         0.000313775902;
  BAS[ATNO][  0].a[  4] =     23260.000000000000;     BAS[ATNO][  0].d[  4] =         0.001145437375;
  BAS[ATNO][  0].a[  5] =      8390.000000000000;     BAS[ATNO][  0].d[  5] =         0.003734968793;
  BAS[ATNO][  0].a[  6] =      3271.000000000000;     BAS[ATNO][  0].d[  6] =         0.011094204583;
  BAS[ATNO][  0].a[  7] =      1357.000000000000;     BAS[ATNO][  0].d[  7] =         0.030141955155;
  BAS[ATNO][  0].a[  8] =       592.000000000000;     BAS[ATNO][  0].d[  8] =         0.074208622061;
  BAS[ATNO][  0].a[  9] =       269.100000000000;     BAS[ATNO][  0].d[  9] =         0.159622357613;
  BAS[ATNO][  0].a[ 10] =       126.500000000000;     BAS[ATNO][  0].d[ 10] =         0.280034222291;
  BAS[ATNO][  0].a[ 11] =   7401000.000000000000;     BAS[ATNO][  0].d[ 11] =        -0.000000044331;
  BAS[ATNO][  0].a[ 12] =   1108000.000000000000;     BAS[ATNO][  0].d[ 12] =        -0.000000345779;
  BAS[ATNO][  0].a[ 13] =    252100.000000000000;     BAS[ATNO][  0].d[ 13] =        -0.000001799825;
  BAS[ATNO][  0].a[ 14] =     71380.000000000000;     BAS[ATNO][  0].d[ 14] =        -0.000007633740;
  BAS[ATNO][  0].a[ 15] =     23260.000000000000;     BAS[ATNO][  0].d[ 15] =        -0.000027875121;
  BAS[ATNO][  0].a[ 16] =      8390.000000000000;     BAS[ATNO][  0].d[ 16] =        -0.000091179309;
  BAS[ATNO][  0].a[ 17] =      3271.000000000000;     BAS[ATNO][  0].d[ 17] =        -0.000272429660;
  BAS[ATNO][  0].a[ 18] =      1357.000000000000;     BAS[ATNO][  0].d[ 18] =        -0.000751431345;
  BAS[ATNO][  0].a[ 19] =       592.000000000000;     BAS[ATNO][  0].d[ 19] =        -0.001908000625;
  BAS[ATNO][  0].a[ 20] =       269.100000000000;     BAS[ATNO][  0].d[ 20] =        -0.004384240561;
  BAS[ATNO][  0].a[ 21] =       126.500000000000;     BAS[ATNO][  0].d[ 21] =        -0.008757602377;
  BAS[ATNO][  0].a[ 22] =        61.030000000000;     BAS[ATNO][  0].d[ 22] =         0.339583393525;
  BAS[ATNO][  0].a[ 23] =        29.860000000000;     BAS[ATNO][  0].d[ 23] =         0.223775907178;
  BAS[ATNO][  0].a[ 24] =        14.170000000000;     BAS[ATNO][  0].d[ 24] =         0.042411533911;
  BAS[ATNO][  0].a[ 25] =         7.022000000000;     BAS[ATNO][  0].d[ 25] =        -0.002536584602;
  BAS[ATNO][  0].a[ 26] =         3.511000000000;     BAS[ATNO][  0].d[ 26] =         0.001452605081;
  BAS[ATNO][  0].a[ 27] =         1.758000000000;     BAS[ATNO][  0].d[ 27] =        -0.000686137756;
  BAS[ATNO][  0].a[ 28] =         0.784100000000;     BAS[ATNO][  0].d[ 28] =         0.000285228148;
  BAS[ATNO][  0].a[ 29] =         0.348000000000;     BAS[ATNO][  0].d[ 29] =        -0.000113851561;
  BAS[ATNO][  0].a[ 30] =         0.149100000000;     BAS[ATNO][  0].d[ 30] =         0.000028412370;

  // Basis function   2 L = s
  InitBFNGauss(BAS[ATNO][  1]);
  BAS[ATNO][  1].l  = 0;
  BAS[ATNO][  1].ng = 31;
  BAS[ATNO][  1].a[  0] =   7401000.000000000000;     BAS[ATNO][  1].d[  0] =         0.000000063718;
  BAS[ATNO][  1].a[  1] =   1108000.000000000000;     BAS[ATNO][  1].d[  1] =         0.000000481428;
  BAS[ATNO][  1].a[  2] =    252100.000000000000;     BAS[ATNO][  1].d[  2] =         0.000002534578;
  BAS[ATNO][  1].a[  3] =     71380.000000000000;     BAS[ATNO][  1].d[  3] =         0.000010725940;
  BAS[ATNO][  1].a[  4] =     23260.000000000000;     BAS[ATNO][  1].d[  4] =         0.000039154989;
  BAS[ATNO][  1].a[  5] =      8390.000000000000;     BAS[ATNO][  1].d[  5] =         0.000127674081;
  BAS[ATNO][  1].a[  6] =      3271.000000000000;     BAS[ATNO][  1].d[  6] =         0.000379238073;
  BAS[ATNO][  1].a[  7] =      1357.000000000000;     BAS[ATNO][  1].d[  7] =         0.001030355707;
  BAS[ATNO][  1].a[  8] =       592.000000000000;     BAS[ATNO][  1].d[  8] =         0.002536705958;
  BAS[ATNO][  1].a[  9] =       269.100000000000;     BAS[ATNO][  1].d[  9] =         0.005456441237;
  BAS[ATNO][  1].a[ 10] =       126.500000000000;     BAS[ATNO][  1].d[ 10] =         0.009572532953;
  BAS[ATNO][  1].a[ 11] =   7401000.000000000000;     BAS[ATNO][  1].d[ 11] =        -0.000000664633;
  BAS[ATNO][  1].a[ 12] =   1108000.000000000000;     BAS[ATNO][  1].d[ 12] =        -0.000005184136;
  BAS[ATNO][  1].a[ 13] =    252100.000000000000;     BAS[ATNO][  1].d[ 13] =        -0.000026984094;
  BAS[ATNO][  1].a[ 14] =     71380.000000000000;     BAS[ATNO][  1].d[ 14] =        -0.000114449779;
  BAS[ATNO][  1].a[ 15] =     23260.000000000000;     BAS[ATNO][  1].d[ 15] =        -0.000417921144;
  BAS[ATNO][  1].a[ 16] =      8390.000000000000;     BAS[ATNO][  1].d[ 16] =        -0.001367016871;
  BAS[ATNO][  1].a[ 17] =      3271.000000000000;     BAS[ATNO][  1].d[ 17] =        -0.004084434793;
  BAS[ATNO][  1].a[ 18] =      1357.000000000000;     BAS[ATNO][  1].d[ 18] =        -0.011265925798;
  BAS[ATNO][  1].a[ 19] =       592.000000000000;     BAS[ATNO][  1].d[ 19] =        -0.028605931325;
  BAS[ATNO][  1].a[ 20] =       269.100000000000;     BAS[ATNO][  1].d[ 20] =        -0.065731259608;
  BAS[ATNO][  1].a[ 21] =       126.500000000000;     BAS[ATNO][  1].d[ 21] =        -0.131299418311;
  BAS[ATNO][  1].a[ 22] =        61.030000000000;     BAS[ATNO][  1].d[ 22] =        -0.200574217798;
  BAS[ATNO][  1].a[ 23] =        29.860000000000;     BAS[ATNO][  1].d[ 23] =        -0.185731009492;
  BAS[ATNO][  1].a[ 24] =        14.170000000000;     BAS[ATNO][  1].d[ 24] =         0.181712582579;
  BAS[ATNO][  1].a[ 25] =         7.022000000000;     BAS[ATNO][  1].d[ 25] =         0.662367362302;
  BAS[ATNO][  1].a[ 26] =         3.511000000000;     BAS[ATNO][  1].d[ 26] =         0.343603326926;
  BAS[ATNO][  1].a[ 27] =         1.758000000000;     BAS[ATNO][  1].d[ 27] =         0.009129355588;
  BAS[ATNO][  1].a[ 28] =         0.784100000000;     BAS[ATNO][  1].d[ 28] =         0.002663528759;
  BAS[ATNO][  1].a[ 29] =         0.348000000000;     BAS[ATNO][  1].d[ 29] =        -0.001083065588;
  BAS[ATNO][  1].a[ 30] =         0.149100000000;     BAS[ATNO][  1].d[ 30] =         0.000268047014;

  // Basis function   3 L = s
  InitBFNGauss(BAS[ATNO][  2]);
  BAS[ATNO][  2].l  = 0;
  BAS[ATNO][  2].ng = 31;
  BAS[ATNO][  2].a[  0] =   7401000.000000000000;     BAS[ATNO][  2].d[  0] =        -0.000000110500;
  BAS[ATNO][  2].a[  1] =   1108000.000000000000;     BAS[ATNO][  2].d[  1] =        -0.000000834891;
  BAS[ATNO][  2].a[  2] =    252100.000000000000;     BAS[ATNO][  2].d[  2] =        -0.000004395455;
  BAS[ATNO][  2].a[  3] =     71380.000000000000;     BAS[ATNO][  2].d[  3] =        -0.000018600876;
  BAS[ATNO][  2].a[  4] =     23260.000000000000;     BAS[ATNO][  2].d[  4] =        -0.000067902406;
  BAS[ATNO][  2].a[  5] =      8390.000000000000;     BAS[ATNO][  2].d[  5] =        -0.000221411814;
  BAS[ATNO][  2].a[  6] =      3271.000000000000;     BAS[ATNO][  2].d[  6] =        -0.000657672954;
  BAS[ATNO][  2].a[  7] =      1357.000000000000;     BAS[ATNO][  2].d[  7] =        -0.001786838212;
  BAS[ATNO][  2].a[  8] =       592.000000000000;     BAS[ATNO][  2].d[  8] =        -0.004399144013;
  BAS[ATNO][  2].a[  9] =       269.100000000000;     BAS[ATNO][  2].d[  9] =        -0.009462535744;
  BAS[ATNO][  2].a[ 10] =       126.500000000000;     BAS[ATNO][  2].d[ 10] =        -0.016600643404;
  BAS[ATNO][  2].a[ 11] =   7401000.000000000000;     BAS[ATNO][  2].d[ 11] =         0.000000428423;
  BAS[ATNO][  2].a[ 12] =   1108000.000000000000;     BAS[ATNO][  2].d[ 12] =         0.000003341700;
  BAS[ATNO][  2].a[ 13] =    252100.000000000000;     BAS[ATNO][  2].d[ 13] =         0.000017393975;
  BAS[ATNO][  2].a[ 14] =     71380.000000000000;     BAS[ATNO][  2].d[ 14] =         0.000073774445;
  BAS[ATNO][  2].a[ 15] =     23260.000000000000;     BAS[ATNO][  2].d[ 15] =         0.000269392398;
  BAS[ATNO][  2].a[ 16] =      8390.000000000000;     BAS[ATNO][  2].d[ 16] =         0.000881180476;
  BAS[ATNO][  2].a[ 17] =      3271.000000000000;     BAS[ATNO][  2].d[ 17] =         0.002632830853;
  BAS[ATNO][  2].a[ 18] =      1357.000000000000;     BAS[ATNO][  2].d[ 18] =         0.007262027315;
  BAS[ATNO][  2].a[ 19] =       592.000000000000;     BAS[ATNO][  2].d[ 19] =         0.018439412648;
  BAS[ATNO][  2].a[ 20] =       269.100000000000;     BAS[ATNO][  2].d[ 20] =         0.042370437305;
  BAS[ATNO][  2].a[ 21] =       126.500000000000;     BAS[ATNO][  2].d[ 21] =         0.084635739599;
  BAS[ATNO][  2].a[ 22] =        61.030000000000;     BAS[ATNO][  2].d[ 22] =         0.118584640544;
  BAS[ATNO][  2].a[ 23] =        29.860000000000;     BAS[ATNO][  2].d[ 23] =         0.120627395174;
  BAS[ATNO][  2].a[ 24] =        14.170000000000;     BAS[ATNO][  2].d[ 24] =        -0.155115933335;
  BAS[ATNO][  2].a[ 25] =         7.022000000000;     BAS[ATNO][  2].d[ 25] =        -0.806476238090;
  BAS[ATNO][  2].a[ 26] =         3.511000000000;     BAS[ATNO][  2].d[ 26] =        -0.406668149525;
  BAS[ATNO][  2].a[ 27] =         1.758000000000;     BAS[ATNO][  2].d[ 27] =         1.278835485491;
  BAS[ATNO][  2].a[ 28] =         0.784100000000;     BAS[ATNO][  2].d[ 28] =         0.332941727587;
  BAS[ATNO][  2].a[ 29] =         0.348000000000;     BAS[ATNO][  2].d[ 29] =        -0.039386860375;
  BAS[ATNO][  2].a[ 30] =         0.149100000000;     BAS[ATNO][  2].d[ 30] =         0.007972474383;

  // Basis function   4 L = s
  InitBFNGauss(BAS[ATNO][  3]);
  BAS[ATNO][  3].l  = 0;
  BAS[ATNO][  3].ng = 31;
  BAS[ATNO][  3].a[  0] =   7401000.000000000000;     BAS[ATNO][  3].d[  0] =        -0.000000105810;
  BAS[ATNO][  3].a[  1] =   1108000.000000000000;     BAS[ATNO][  3].d[  1] =        -0.000000799457;
  BAS[ATNO][  3].a[  2] =    252100.000000000000;     BAS[ATNO][  3].d[  2] =        -0.000004208905;
  BAS[ATNO][  3].a[  3] =     71380.000000000000;     BAS[ATNO][  3].d[  3] =        -0.000017811430;
  BAS[ATNO][  3].a[  4] =     23260.000000000000;     BAS[ATNO][  3].d[  4] =        -0.000065020535;
  BAS[ATNO][  3].a[  5] =      8390.000000000000;     BAS[ATNO][  3].d[  5] =        -0.000212014795;
  BAS[ATNO][  3].a[  6] =      3271.000000000000;     BAS[ATNO][  3].d[  6] =        -0.000629760420;
  BAS[ATNO][  3].a[  7] =      1357.000000000000;     BAS[ATNO][  3].d[  7] =        -0.001711002370;
  BAS[ATNO][  3].a[  8] =       592.000000000000;     BAS[ATNO][  3].d[  8] =        -0.004212438362;
  BAS[ATNO][  3].a[  9] =       269.100000000000;     BAS[ATNO][  3].d[  9] =        -0.009060932867;
  BAS[ATNO][  3].a[ 10] =       126.500000000000;     BAS[ATNO][  3].d[ 10] =        -0.015896089537;
  BAS[ATNO][  3].a[ 11] =   7401000.000000000000;     BAS[ATNO][  3].d[ 11] =         0.000000309176;
  BAS[ATNO][  3].a[ 12] =   1108000.000000000000;     BAS[ATNO][  3].d[ 12] =         0.000002411575;
  BAS[ATNO][  3].a[ 13] =    252100.000000000000;     BAS[ATNO][  3].d[ 13] =         0.000012552559;
  BAS[ATNO][  3].a[ 14] =     71380.000000000000;     BAS[ATNO][  3].d[ 14] =         0.000053240165;
  BAS[ATNO][  3].a[ 15] =     23260.000000000000;     BAS[ATNO][  3].d[ 15] =         0.000194410079;
  BAS[ATNO][  3].a[ 16] =      8390.000000000000;     BAS[ATNO][  3].d[ 16] =         0.000635913884;
  BAS[ATNO][  3].a[ 17] =      3271.000000000000;     BAS[ATNO][  3].d[ 17] =         0.001900012245;
  BAS[ATNO][  3].a[ 18] =      1357.000000000000;     BAS[ATNO][  3].d[ 18] =         0.005240724372;
  BAS[ATNO][  3].a[ 19] =       592.000000000000;     BAS[ATNO][  3].d[ 19] =         0.013307011263;
  BAS[ATNO][  3].a[ 20] =       269.100000000000;     BAS[ATNO][  3].d[ 20] =         0.030577106614;
  BAS[ATNO][  3].a[ 21] =       126.500000000000;     BAS[ATNO][  3].d[ 21] =         0.061078341355;
  BAS[ATNO][  3].a[ 22] =        61.030000000000;     BAS[ATNO][  3].d[ 22] =         0.075855632919;
  BAS[ATNO][  3].a[ 23] =        29.860000000000;     BAS[ATNO][  3].d[ 23] =         0.095193936547;
  BAS[ATNO][  3].a[ 24] =        14.170000000000;     BAS[ATNO][  3].d[ 24] =        -0.148855815141;
  BAS[ATNO][  3].a[ 25] =         7.022000000000;     BAS[ATNO][  3].d[ 25] =        -0.625271137012;
  BAS[ATNO][  3].a[ 26] =         3.511000000000;     BAS[ATNO][  3].d[ 26] =        -0.539530576459;
  BAS[ATNO][  3].a[ 27] =         1.758000000000;     BAS[ATNO][  3].d[ 27] =         2.716287484107;
  BAS[ATNO][  3].a[ 28] =         0.784100000000;     BAS[ATNO][  3].d[ 28] =        -1.332750854588;
  BAS[ATNO][  3].a[ 29] =         0.348000000000;     BAS[ATNO][  3].d[ 29] =        -0.846402722505;
  BAS[ATNO][  3].a[ 30] =         0.149100000000;     BAS[ATNO][  3].d[ 30] =         0.091210307383;

  // Basis function   5 L = s
  InitBFNGauss(BAS[ATNO][  4]);
  BAS[ATNO][  4].l  = 0;
  BAS[ATNO][  4].ng = 31;
  BAS[ATNO][  4].a[  0] =   7401000.000000000000;     BAS[ATNO][  4].d[  0] =         0.000000114418;
  BAS[ATNO][  4].a[  1] =   1108000.000000000000;     BAS[ATNO][  4].d[  1] =         0.000000864495;
  BAS[ATNO][  4].a[  2] =    252100.000000000000;     BAS[ATNO][  4].d[  2] =         0.000004551314;
  BAS[ATNO][  4].a[  3] =     71380.000000000000;     BAS[ATNO][  4].d[  3] =         0.000019260447;
[...]
  BAS[ATNO][ 19].a[  7] =         3.322000000000;     BAS[ATNO][ 19].d[  7] =        -1.708300196105;
  BAS[ATNO][ 19].a[  8] =         1.478000000000;     BAS[ATNO][ 19].d[  8] =         0.942930129896;
  BAS[ATNO][ 19].a[  9] =         0.655200000000;     BAS[ATNO][ 19].d[  9] =        -0.482516490780;
  BAS[ATNO][ 19].a[ 10] =         0.275100000000;     BAS[ATNO][ 19].d[ 10] =         0.204129594689;
  BAS[ATNO][ 19].a[ 11] =         0.109700000000;     BAS[ATNO][ 19].d[ 11] =        -0.058478006585;

  // Basis function  21 L = p
  InitBFNGauss(BAS[ATNO][ 20]);
  BAS[ATNO][ 20].l  = 1;
  BAS[ATNO][ 20].ng = 12;
  BAS[ATNO][ 20].a[  0] =      2927.000000000000;     BAS[ATNO][ 20].d[  0] =        -0.032399430284;
  BAS[ATNO][ 20].a[  1] =       693.500000000000;     BAS[ATNO][ 20].d[  1] =        -0.282559341779;
  BAS[ATNO][ 20].a[  2] =       224.700000000000;     BAS[ATNO][ 20].d[  2] =        -1.540928076506;
  BAS[ATNO][ 20].a[  3] =        85.170000000000;     BAS[ATNO][ 20].d[  3] =         2.604304260138;
  BAS[ATNO][ 20].a[  4] =        35.530000000000;     BAS[ATNO][ 20].d[  4] =        -2.504790020949;
  BAS[ATNO][ 20].a[  5] =        15.730000000000;     BAS[ATNO][ 20].d[  5] =         1.962224998749;
  BAS[ATNO][ 20].a[  6] =         7.165000000000;     BAS[ATNO][ 20].d[  6] =        -1.370604420355;
  BAS[ATNO][ 20].a[  7] =         3.322000000000;     BAS[ATNO][ 20].d[  7] =         0.852774303604;
  BAS[ATNO][ 20].a[  8] =         1.478000000000;     BAS[ATNO][ 20].d[  8] =        -0.475684466706;
  BAS[ATNO][ 20].a[  9] =         0.655200000000;     BAS[ATNO][ 20].d[  9] =         0.245177876261;
  BAS[ATNO][ 20].a[ 10] =         0.275100000000;     BAS[ATNO][ 20].d[ 10] =        -0.104094198766;
  BAS[ATNO][ 20].a[ 11] =         0.109700000000;     BAS[ATNO][ 20].d[ 11] =         0.029855349734;

  // Basis function  22 L = d
  InitBFNGauss(BAS[ATNO][ 21]);
  BAS[ATNO][ 21].l  = 2;
  BAS[ATNO][ 21].ng = 8;
  BAS[ATNO][ 21].a[  0] =         0.309000000000;     BAS[ATNO][ 21].d[  0] =         0.006187741749;
  BAS[ATNO][ 21].a[  1] =         0.770000000000;     BAS[ATNO][ 21].d[  1] =         0.000856271065;
  BAS[ATNO][ 21].a[  2] =         1.917000000000;     BAS[ATNO][ 21].d[  2] =         0.433622010579;
  BAS[ATNO][ 21].a[  3] =         4.776000000000;     BAS[ATNO][ 21].d[  3] =         0.507796648701;
  BAS[ATNO][ 21].a[  4] =        76.808000000000;     BAS[ATNO][ 21].d[  4] =         0.006831362974;
  BAS[ATNO][ 21].a[  5] =        38.737000000000;     BAS[ATNO][ 21].d[  5] =         0.006419268109;
  BAS[ATNO][ 21].a[  6] =        19.537000000000;     BAS[ATNO][ 21].d[  6] =         0.072346939253;
  BAS[ATNO][ 21].a[  7] =         9.853000000000;     BAS[ATNO][ 21].d[  7] =         0.138908794247;

  // Basis function  23 L = d
  InitBFNGauss(BAS[ATNO][ 22]);
  BAS[ATNO][ 22].l  = 2;
  BAS[ATNO][ 22].ng = 8;
  BAS[ATNO][ 22].a[  0] =         0.309000000000;     BAS[ATNO][ 22].d[  0] =        -0.002958477262;
  BAS[ATNO][ 22].a[  1] =         0.770000000000;     BAS[ATNO][ 22].d[  1] =         0.889720400282;
  BAS[ATNO][ 22].a[  2] =         1.917000000000;     BAS[ATNO][ 22].d[  2] =         0.170439619357;
  BAS[ATNO][ 22].a[  3] =         4.776000000000;     BAS[ATNO][ 22].d[  3] =        -0.473552123239;
  BAS[ATNO][ 22].a[  4] =        76.808000000000;     BAS[ATNO][ 22].d[  4] =        -0.006297376289;
  BAS[ATNO][ 22].a[  5] =        38.737000000000;     BAS[ATNO][ 22].d[  5] =        -0.001017960183;
  BAS[ATNO][ 22].a[  6] =        19.537000000000;     BAS[ATNO][ 22].d[  6] =        -0.069587163743;
  BAS[ATNO][ 22].a[  7] =         9.853000000000;     BAS[ATNO][ 22].d[  7] =        -0.093842673506;

  // Basis function  24 L = d
  InitBFNGauss(BAS[ATNO][ 23]);
  BAS[ATNO][ 23].l  = 2;
  BAS[ATNO][ 23].ng = 8;
  BAS[ATNO][ 23].a[  0] =         0.309000000000;     BAS[ATNO][ 23].d[  0] =         1.176738741225;
  BAS[ATNO][ 23].a[  1] =         0.770000000000;     BAS[ATNO][ 23].d[  1] =        -0.440031868723;
  BAS[ATNO][ 23].a[  2] =         1.917000000000;     BAS[ATNO][ 23].d[  2] =        -0.551209959875;
  BAS[ATNO][ 23].a[  3] =         4.776000000000;     BAS[ATNO][ 23].d[  3] =         0.429553883055;
  BAS[ATNO][ 23].a[  4] =        76.808000000000;     BAS[ATNO][ 23].d[  4] =         0.005931420881;
  BAS[ATNO][ 23].a[  5] =        38.737000000000;     BAS[ATNO][ 23].d[  5] =        -0.004265144066;
  BAS[ATNO][ 23].a[  6] =        19.537000000000;     BAS[ATNO][ 23].d[  6] =         0.067215705469;
  BAS[ATNO][ 23].a[  7] =         9.853000000000;     BAS[ATNO][ 23].d[  7] =         0.043495683910;

  // Basis function  25 L = d
  InitBFNGauss(BAS[ATNO][ 24]);
  BAS[ATNO][ 24].l  = 2;
  BAS[ATNO][ 24].ng = 8;
  BAS[ATNO][ 24].a[  0] =         0.309000000000;     BAS[ATNO][ 24].d[  0] =         1.094856564348;
  BAS[ATNO][ 24].a[  1] =         0.770000000000;     BAS[ATNO][ 24].d[  1] =        -2.135350978020;
  BAS[ATNO][ 24].a[  2] =         1.917000000000;     BAS[ATNO][ 24].d[  2] =         2.140513336727;
  BAS[ATNO][ 24].a[  3] =         4.776000000000;     BAS[ATNO][ 24].d[  3] =        -0.977493681512;
  BAS[ATNO][ 24].a[  4] =        76.808000000000;     BAS[ATNO][ 24].d[  4] =        -0.013955583355;
  BAS[ATNO][ 24].a[  5] =        38.737000000000;     BAS[ATNO][ 24].d[  5] =         0.021261180062;
  BAS[ATNO][ 24].a[  6] =        19.537000000000;     BAS[ATNO][ 24].d[  6] =        -0.161651939704;
  BAS[ATNO][ 24].a[  7] =         9.853000000000;     BAS[ATNO][ 24].d[  7] =        -0.000003373033;

  // Basis function  26 L = d
  InitBFNGauss(BAS[ATNO][ 25]);
  BAS[ATNO][ 25].l  = 2;
  BAS[ATNO][ 25].ng = 8;
  BAS[ATNO][ 25].a[  0] =         0.309000000000;     BAS[ATNO][ 25].d[  0] =        -0.331326318813;
  BAS[ATNO][ 25].a[  1] =         0.770000000000;     BAS[ATNO][ 25].d[  1] =         0.973124722420;
  BAS[ATNO][ 25].a[  2] =         1.917000000000;     BAS[ATNO][ 25].d[  2] =        -1.926343037822;
  BAS[ATNO][ 25].a[  3] =         4.776000000000;     BAS[ATNO][ 25].d[  3] =         3.081205756189;
  BAS[ATNO][ 25].a[  4] =        76.808000000000;     BAS[ATNO][ 25].d[  4] =         0.040155004174;
  BAS[ATNO][ 25].a[  5] =        38.737000000000;     BAS[ATNO][ 25].d[  5] =        -0.282311921872;
  BAS[ATNO][ 25].a[  6] =        19.537000000000;     BAS[ATNO][ 25].d[  6] =         0.539202272785;
  BAS[ATNO][ 25].a[  7] =         9.853000000000;     BAS[ATNO][ 25].d[  7] =        -2.509515823072;

  // Basis function  27 L = d
  InitBFNGauss(BAS[ATNO][ 26]);
  BAS[ATNO][ 26].l  = 2;
  BAS[ATNO][ 26].ng = 8;
  BAS[ATNO][ 26].a[  0] =         0.309000000000;     BAS[ATNO][ 26].d[  0] =         0.153059197311;
  BAS[ATNO][ 26].a[  1] =         0.770000000000;     BAS[ATNO][ 26].d[  1] =        -0.469604853751;
  BAS[ATNO][ 26].a[  2] =         1.917000000000;     BAS[ATNO][ 26].d[  2] =         1.067158620397;
  BAS[ATNO][ 26].a[  3] =         4.776000000000;     BAS[ATNO][ 26].d[  3] =        -2.531545385590;
  BAS[ATNO][ 26].a[  4] =        76.808000000000;     BAS[ATNO][ 26].d[  4] =        -0.213231137197;
  BAS[ATNO][ 26].a[  5] =        38.737000000000;     BAS[ATNO][ 26].d[  5] =         0.707857221447;
  BAS[ATNO][ 26].a[  6] =        19.537000000000;     BAS[ATNO][ 26].d[  6] =        -3.245535691030;
  BAS[ATNO][ 26].a[  7] =         9.853000000000;     BAS[ATNO][ 26].d[  7] =         4.114160869691;

  // Basis function  28 L = d
  InitBFNGauss(BAS[ATNO][ 27]);
  BAS[ATNO][ 27].l  = 2;
  BAS[ATNO][ 27].ng = 8;
  BAS[ATNO][ 27].a[  0] =         0.309000000000;     BAS[ATNO][ 27].d[  0] =        -0.083932952220;
  BAS[ATNO][ 27].a[  1] =         0.770000000000;     BAS[ATNO][ 27].d[  1] =         0.257957675312;
  BAS[ATNO][ 27].a[  2] =         1.917000000000;     BAS[ATNO][ 27].d[  2] =        -0.595647786346;
  BAS[ATNO][ 27].a[  3] =         4.776000000000;     BAS[ATNO][ 27].d[  3] =         1.556245411406;
  BAS[ATNO][ 27].a[  4] =        76.808000000000;     BAS[ATNO][ 27].d[  4] =         0.405619415180;
  BAS[ATNO][ 27].a[  5] =        38.737000000000;     BAS[ATNO][ 27].d[  5] =        -3.166268535894;
  BAS[ATNO][ 27].a[  6] =        19.537000000000;     BAS[ATNO][ 27].d[  6] =         4.442331545989;
  BAS[ATNO][ 27].a[  7] =         9.853000000000;     BAS[ATNO][ 27].d[  7] =        -3.258798341318;

  // Basis function  29 L = d
  InitBFNGauss(BAS[ATNO][ 28]);
  BAS[ATNO][ 28].l  = 2;
  BAS[ATNO][ 28].ng = 8;
  BAS[ATNO][ 28].a[  0] =         0.309000000000;     BAS[ATNO][ 28].d[  0] =         0.048720311216;
  BAS[ATNO][ 28].a[  1] =         0.770000000000;     BAS[ATNO][ 28].d[  1] =        -0.149356704270;
  BAS[ATNO][ 28].a[  2] =         1.917000000000;     BAS[ATNO][ 28].d[  2] =         0.343426620827;
  BAS[ATNO][ 28].a[  3] =         4.776000000000;     BAS[ATNO][ 28].d[  3] =        -0.905503604462;
  BAS[ATNO][ 28].a[  4] =        76.808000000000;     BAS[ATNO][ 28].d[  4] =        -2.547461180102;
  BAS[ATNO][ 28].a[  5] =        38.737000000000;     BAS[ATNO][ 28].d[  5] =         4.047819025154;
  BAS[ATNO][ 28].a[  6] =        19.537000000000;     BAS[ATNO][ 28].d[  6] =        -3.388116307186;
  BAS[ATNO][ 28].a[  7] =         9.853000000000;     BAS[ATNO][ 28].d[  7] =         2.024175151246;

  // Basis function  30 L = f
  InitBFNGauss(BAS[ATNO][ 29]);
  BAS[ATNO][ 29].l  = 3;
  BAS[ATNO][ 29].ng = 6;
  BAS[ATNO][ 29].a[  0] =         0.408000000000;     BAS[ATNO][ 29].d[  0] =         0.074396510447;
  BAS[ATNO][ 29].a[  1] =         0.825000000000;     BAS[ATNO][ 29].d[  1] =         0.165697586035;
  BAS[ATNO][ 29].a[  2] =         1.668000000000;     BAS[ATNO][ 29].d[  2] =         0.754304781877;
  BAS[ATNO][ 29].a[  3] =        35.873000000000;     BAS[ATNO][ 29].d[  3] =         0.007682307442;
  BAS[ATNO][ 29].a[  4] =        15.140000000000;     BAS[ATNO][ 29].d[  4] =        -0.014681914291;
  BAS[ATNO][ 29].a[  5] =         6.390000000000;     BAS[ATNO][ 29].d[  5] =         0.187600381244;

  // Basis function  31 L = f
  InitBFNGauss(BAS[ATNO][ 30]);
  BAS[ATNO][ 30].l  = 3;
  BAS[ATNO][ 30].ng = 6;
  BAS[ATNO][ 30].a[  0] =         0.408000000000;     BAS[ATNO][ 30].d[  0] =        -0.685219486128;
  BAS[ATNO][ 30].a[  1] =         0.825000000000;     BAS[ATNO][ 30].d[  1] =        -0.549539134245;
  BAS[ATNO][ 30].a[  2] =         1.668000000000;     BAS[ATNO][ 30].d[  2] =         0.705374434996;
  BAS[ATNO][ 30].a[  3] =        35.873000000000;     BAS[ATNO][ 30].d[  3] =         0.006892497263;
  BAS[ATNO][ 30].a[  4] =        15.140000000000;     BAS[ATNO][ 30].d[  4] =        -0.012534031161;
  BAS[ATNO][ 30].a[  5] =         6.390000000000;     BAS[ATNO][ 30].d[  5] =         0.178243779918;

  // Basis function  32 L = f
  InitBFNGauss(BAS[ATNO][ 31]);
  BAS[ATNO][ 31].l  = 3;
  BAS[ATNO][ 31].ng = 6;
  BAS[ATNO][ 31].a[  0] =         0.408000000000;     BAS[ATNO][ 31].d[  0] =        -1.618630094728;
  BAS[ATNO][ 31].a[  1] =         0.825000000000;     BAS[ATNO][ 31].d[  1] =         2.307537395621;
  BAS[ATNO][ 31].a[  2] =         1.668000000000;     BAS[ATNO][ 31].d[  2] =        -1.040681247161;
  BAS[ATNO][ 31].a[  3] =        35.873000000000;     BAS[ATNO][ 31].d[  3] =        -0.007446074038;
  BAS[ATNO][ 31].a[  4] =        15.140000000000;     BAS[ATNO][ 31].d[  4] =         0.010138775838;
  BAS[ATNO][ 31].a[  5] =         6.390000000000;     BAS[ATNO][ 31].d[  5] =        -0.216457279008;

  // Basis function  33 L = f
  InitBFNGauss(BAS[ATNO][ 32]);
  BAS[ATNO][ 32].l  = 3;
  BAS[ATNO][ 32].ng = 6;
  BAS[ATNO][ 32].a[  0] =         0.408000000000;     BAS[ATNO][ 32].d[  0] =         0.576310806845;
  BAS[ATNO][ 32].a[  1] =         0.825000000000;     BAS[ATNO][ 32].d[  1] =        -1.402083134200;
  BAS[ATNO][ 32].a[  2] =         1.668000000000;     BAS[ATNO][ 32].d[  2] =         1.470011725270;
  BAS[ATNO][ 32].a[  3] =        35.873000000000;     BAS[ATNO][ 32].d[  3] =        -0.043221434745;
  BAS[ATNO][ 32].a[  4] =        15.140000000000;     BAS[ATNO][ 32].d[  4] =         0.097719693919;
  BAS[ATNO][ 32].a[  5] =         6.390000000000;     BAS[ATNO][ 32].d[  5] =        -1.164661437071;

  // Basis function  34 L = f
  InitBFNGauss(BAS[ATNO][ 33]);
  BAS[ATNO][ 33].l  = 3;
  BAS[ATNO][ 33].ng = 6;
  BAS[ATNO][ 33].a[  0] =         0.408000000000;     BAS[ATNO][ 33].d[  0] =         0.179064726224;
  BAS[ATNO][ 33].a[  1] =         0.825000000000;     BAS[ATNO][ 33].d[  1] =        -0.465420095386;
  BAS[ATNO][ 33].a[  2] =         1.668000000000;     BAS[ATNO][ 33].d[  2] =         0.577592449666;
  BAS[ATNO][ 33].a[  3] =        35.873000000000;     BAS[ATNO][ 33].d[  3] =        -0.150497428747;
  BAS[ATNO][ 33].a[  4] =        15.140000000000;     BAS[ATNO][ 33].d[  4] =         1.542475831089;
  BAS[ATNO][ 33].a[  5] =         6.390000000000;     BAS[ATNO][ 33].d[  5] =        -1.128484705405;

  // Basis function  35 L = f
  InitBFNGauss(BAS[ATNO][ 34]);
  BAS[ATNO][ 34].l  = 3;
  BAS[ATNO][ 34].ng = 6;
  BAS[ATNO][ 34].a[  0] =         0.408000000000;     BAS[ATNO][ 34].d[  0] =        -0.077467790267;
  BAS[ATNO][ 34].a[  1] =         0.825000000000;     BAS[ATNO][ 34].d[  1] =         0.201388287912;
  BAS[ATNO][ 34].a[  2] =         1.668000000000;     BAS[ATNO][ 34].d[  2] =        -0.253152299507;
  BAS[ATNO][ 34].a[  3] =        35.873000000000;     BAS[ATNO][ 34].d[  3] =         1.473437877908;
  BAS[ATNO][ 34].a[  4] =        15.140000000000;     BAS[ATNO][ 34].d[  4] =        -1.297206461957;
  BAS[ATNO][ 34].a[  5] =         6.390000000000;     BAS[ATNO][ 34].d[  5] =         0.587016104009;

  // Basis function  36 L = g
  InitBFNGauss(BAS[ATNO][ 35]);
  BAS[ATNO][ 35].l  = 4;
  BAS[ATNO][ 35].ng = 4;
  BAS[ATNO][ 35].a[  0] =         0.665000000000;     BAS[ATNO][ 35].d[  0] =         0.673750297802;
  BAS[ATNO][ 35].a[  1] =         1.562000000000;     BAS[ATNO][ 35].d[  1] =         0.431671164434;
  BAS[ATNO][ 35].a[  2] =        26.560000000000;     BAS[ATNO][ 35].d[  2] =        -0.002557171894;
  BAS[ATNO][ 35].a[  3] =        10.306000000000;     BAS[ATNO][ 35].d[  3] =         0.016465992067;

  // Basis function  37 L = g
  InitBFNGauss(BAS[ATNO][ 36]);
  BAS[ATNO][ 36].l  = 4;
  BAS[ATNO][ 36].ng = 4;
  BAS[ATNO][ 36].a[  0] =         0.665000000000;     BAS[ATNO][ 36].d[  0] =        -1.071411713261;
  BAS[ATNO][ 36].a[  1] =         1.562000000000;     BAS[ATNO][ 36].d[  1] =         1.184231375243;
  BAS[ATNO][ 36].a[  2] =        26.560000000000;     BAS[ATNO][ 36].d[  2] =        -0.005095719716;
  BAS[ATNO][ 36].a[  3] =        10.306000000000;     BAS[ATNO][ 36].d[  3] =         0.035006061919;

  // Basis function  38 L = g
  InitBFNGauss(BAS[ATNO][ 37]);
  BAS[ATNO][ 37].l  = 4;
  BAS[ATNO][ 37].ng = 4;
  BAS[ATNO][ 37].a[  0] =         0.665000000000;     BAS[ATNO][ 37].d[  0] =         0.116522981952;
  BAS[ATNO][ 37].a[  1] =         1.562000000000;     BAS[ATNO][ 37].d[  1] =        -0.224128240473;
  BAS[ATNO][ 37].a[  2] =        26.560000000000;     BAS[ATNO][ 37].d[  2] =        -0.118827656172;
  BAS[ATNO][ 37].a[  3] =        10.306000000000;     BAS[ATNO][ 37].d[  3] =         1.070201184248;

  // Basis function  39 L = g
  InitBFNGauss(BAS[ATNO][ 38]);
  BAS[ATNO][ 38].l  = 4;
  BAS[ATNO][ 38].ng = 4;
  BAS[ATNO][ 38].a[  0] =         0.665000000000;     BAS[ATNO][ 38].d[  0] =        -0.037326479094;
  BAS[ATNO][ 38].a[  1] =         1.562000000000;     BAS[ATNO][ 38].d[  1] =         0.073948184213;
  BAS[ATNO][ 38].a[  2] =        26.560000000000;     BAS[ATNO][ 38].d[  2] =         1.196257540525;
  BAS[ATNO][ 38].a[  3] =        10.306000000000;     BAS[ATNO][ 38].d[  3] =        -0.569936331083;

  // Basis function  40 L = h
  InitBFNGauss(BAS[ATNO][ 39]);
  BAS[ATNO][ 39].l  = 5;
  BAS[ATNO][ 39].ng = 2;
  BAS[ATNO][ 39].a[  0] =         1.264000000000;     BAS[ATNO][ 39].d[  0] =         0.999993335487;
  BAS[ATNO][ 39].a[  1] =        21.104000000000;     BAS[ATNO][ 39].d[  1] =         0.000943551560;

  // Basis function  41 L = h
  InitBFNGauss(BAS[ATNO][ 40]);
  BAS[ATNO][ 40].l  = 5;
  BAS[ATNO][ 40].ng = 2;
  BAS[ATNO][ 40].a[  0] =         1.264000000000;     BAS[ATNO][ 40].d[  0] =        -0.007535136924;
  BAS[ATNO][ 40].a[  1] =        21.104000000000;     BAS[ATNO][ 40].d[  1] =         1.000021279282;

-------
TIMINGS
-------

Total SCF time: 0 days 0 hours 0 min 2 sec 

Total time                  ....       2.139 sec
Sum of individual times     ....       1.900 sec  ( 88.8%)

Fock matrix formation       ....       1.344 sec  ( 62.8%)
  XC integration            ....       0.064 sec  (  4.7% of F)
    Basis function eval.    ....       0.007 sec  ( 10.4% of XC)
    Density eval.           ....       0.006 sec  (  9.9% of XC)
    XC-Functional eval.     ....       0.002 sec  (  2.6% of XC)
    XC-Potential eval.      ....       0.015 sec  ( 24.0% of XC)
Diagonalization             ....       0.019 sec  (  0.9%)
Density matrix formation    ....       0.007 sec  (  0.3%)
Population analysis         ....       0.003 sec  (  0.1%)
Initial guess               ....       0.092 sec  (  4.3%)
Orbital Transformation      ....       0.000 sec  (  0.0%)
Orbital Orthonormalization  ....       0.000 sec  (  0.0%)
DIIS solution               ....       0.003 sec  (  0.2%)
SOSCF solution              ....       0.008 sec  (  0.4%)
Grid generation             ....       0.424 sec  ( 19.8%)

-------------------------   --------------------
FINAL SINGLE POINT ENERGY      -311.701993775424
-------------------------   --------------------


                            ***************************************
                            *     ORCA property calculations      *
                            ***************************************

                                    ---------------------
                                    Active property flags
                                    ---------------------
   (+) Dipole Moment


------------------------------------------------------------------------------
                       ORCA ELECTRIC PROPERTIES CALCULATION
------------------------------------------------------------------------------

Dipole Moment Calculation                       ... on
Quadrupole Moment Calculation                   ... off
Polarizability Calculation                      ... off
GBWName                                         ... Ar_cc-pcv5z_548.143956_.gbw
Electron density file                           ... Ar_cc-pcv5z_548.143956_.scfp
The origin for moment calculation is the CENTER OF MASS  = ( 0.000000,  0.000000  0.000000)

-------------
DIPOLE MOMENT
-------------
                                X             Y             Z
Electronic contribution:     -0.00000      -0.00000       0.00000
Nuclear contribution   :      0.00000       0.00000       0.00000
                        -----------------------------------------
Total Dipole Moment    :     -0.00000      -0.00000       0.00000
                        -----------------------------------------
Magnitude (a.u.)       :      0.00000
Magnitude (Debye)      :      0.00000



--------------------
Rotational spectrum 
--------------------
 
Rotational constants in cm-1:     0.000000     0.000000     0.000000 
Rotational constants in MHz :     0.000000     0.000000     0.000000 

 Dipole components along the rotational axes: 
x,y,z [a.u.] :    -0.000000    -0.000000     0.000000 
x,y,z [Debye]:    -0.000000    -0.000000     0.000000 

 

Timings for individual modules:

Sum of individual times         ...        3.490 sec (=   0.058 min)
GTO integral calculation        ...        0.686 sec (=   0.011 min)  19.7 %
Relativistic integrals          ...        0.411 sec (=   0.007 min)  11.8 %
SCF iterations                  ...        2.392 sec (=   0.040 min)  68.5 %
                             ****ORCA TERMINATED NORMALLY****
TOTAL RUN TIME: 0 days 0 hours 0 minutes 3 seconds 828 msec
