
                                 *****************
                                 * O   R   C   A *
                                 *****************

           --- An Ab Initio, DFT and Semiempirical electronic structure package ---

                  #######################################################
                  #                        -***-                        #
                  #          Department of theory and spectroscopy      #
                  #               Directorship: Frank Neese             #
                  #        Max Planck Institute fuer Kohlenforschung    #
                  #                Kaiser Wilhelm Platz 1               #
                  #                 D-45470 Muelheim/Ruhr               #
                  #                      Germany                        #
                  #                                                     #
                  #                  All rights reserved                #
                  #                        -***-                        #
                  #######################################################


                         Program Version 4.2.1 -  RELEASE  -


 With contributions from (in alphabetic order):
   Daniel Aravena         : Magnetic Suceptibility
   Michael Atanasov       : Ab Initio Ligand Field Theory (pilot matlab implementation)
   Alexander A. Auer      : GIAO ZORA, VPT2
   Ute Becker             : Parallelization
   Giovanni Bistoni       : ED, misc. LED, open-shell LED, HFLD
   Martin Brehm           : Molecular dynamics
   Dmytro Bykov           : SCF Hessian
   Vijay G. Chilkuri      : MRCI spin determinant printing, contributions to CSF-ICE
   Dipayan Datta          : RHF DLPNO-CCSD density
   Achintya Kumar Dutta   : EOM-CC, STEOM-CC
   Dmitry Ganyushin       : Spin-Orbit,Spin-Spin,Magnetic field MRCI
   Miquel Garcia          : C-PCM Hessian, Gaussian charge scheme
   Yang Guo               : DLPNO-NEVPT2, CIM, IAO-localization
   Andreas Hansen         : Spin unrestricted coupled pair/coupled cluster methods
   Benjamin Helmich-Paris : CASSCF linear response (MC-RPA)
   Lee Huntington         : MR-EOM, pCC
   Robert Izsak           : Overlap fitted RIJCOSX, COSX-SCS-MP3, EOM
   Christian Kollmar      : KDIIS, OOCD, Brueckner-CCSD(T), CCSD density
   Simone Kossmann        : Meta GGA functionals, TD-DFT gradient, OOMP2, MP2 Hessian
   Martin Krupicka        : AUTO-CI
   Lucas Lang             : DCDCAS
   Dagmar Lenk            : GEPOL surface, SMD
   Dimitrios Liakos       : Extrapolation schemes; Compound Job, initial MDCI parallelization
   Dimitrios Manganas     : Further ROCIS development; embedding schemes
   Dimitrios Pantazis     : SARC Basis sets
   Taras Petrenko         : DFT Hessian,TD-DFT gradient, ASA, ECA, R-Raman, ABS, FL, XAS/XES, NRVS
   Peter Pinski           : DLPNO-MP2, DLPNO-MP2 Gradient
   Christoph Reimann      : Effective Core Potentials
   Marius Retegan         : Local ZFS, SOC
   Christoph Riplinger    : Optimizer, TS searches, QM/MM, DLPNO-CCSD(T), (RO)-DLPNO pert. Triples
   Tobias Risthaus        : Range-separated hybrids, TD-DFT gradient, RPA, STAB
   Michael Roemelt        : Original ROCIS implementation
   Masaaki Saitow         : Open-shell DLPNO-CCSD energy and density
   Barbara Sandhoefer     : DKH picture change effects
   Avijit Sen             : IP-ROCIS
   Kantharuban Sivalingam : CASSCF convergence, NEVPT2, FIC-MRCI
   Bernardo de Souza      : ESD, SOC TD-DFT
   Georgi Stoychev        : AutoAux, RI-MP2 NMR
   Willem Van den Heuvel  : Paramagnetic NMR
   Boris Wezisla          : Elementary symmetry handling
   Frank Wennmohs         : Technical directorship


 We gratefully acknowledge several colleagues who have allowed us to
 interface, adapt or use parts of their codes:
   Stefan Grimme, W. Hujo, H. Kruse,             : VdW corrections, initial TS optimization,
                  C. Bannwarth                     DFT functionals, gCP, sTDA/sTD-DF
   Ed Valeev, F. Pavosevic, A. Kumar             : LibInt (2-el integral package), F12 methods
   Garnet Chan, S. Sharma, J. Yang, R. Olivares  : DMRG
   Ulf Ekstrom                                   : XCFun DFT Library
   Mihaly Kallay                                 : mrcc  (arbitrary order and MRCC methods)
   Andreas Klamt, Michael Diedenhofen            : otool_cosmo (COSMO solvation model)
   Jiri Pittner, Ondrej Demel                    : Mk-CCSD
   Frank Weinhold                                : gennbo (NPA and NBO analysis)
   Christopher J. Cramer and Donald G. Truhlar   : smd solvation model
   Lars Goerigk                                  : TD-DFT with DH, B97 family of functionals
   V. Asgeirsson, H. Jonsson                     : NEB implementation
   FAccTs GmbH                                   : IRC, NEB, NEB-TS, Multilevel, MM, QM/MM, CI optimization
   S Lehtola, MJT Oliveira, MAL Marques          : LibXC Library


 Your calculation uses the libint2 library for the computation of 2-el integrals
 For citations please refer to: http://libint.valeyev.net

 Your ORCA version has been built with support for libXC version: 4.2.3
 For citations please refer to: https://tddft.org/programs/libxc/

 This ORCA versions uses:
   CBLAS   interface :  Fast vector & matrix operations
   LAPACKE interface :  Fast linear algebra routines
   SCALAPACK package :  Parallel linear algebra routines


----- Orbital basis set information -----
Your calculation utilizes the basis: cc-pCVQZ 
             H : cc-pVQZ. Obtained from the ccRepo (grant-hill.group.shef.ac.uk/ccrepo) Feb. 2017
                 T. H. Dunning, Jr., J. Chem. Phys. 90, 1007 (1989)
            He : cc-pVQZ. Obtained from the ccRepo (grant-hill.group.shef.ac.uk/ccrepo) Feb. 2017
                 D. E. Woon, T. H. Dunning, Jr., J. Chem. Phys. 100, 2975 (1994)
  Li-Be, Na-Mg : Obtained from the ccRepo (grant-hill.group.shef.ac.uk/ccrepo) Feb. 2017
                 B. P. Prascher, D. E. Woon, K. A. Peterson, T. H. Dunning, Jr., A. K. Wilson, Theor. Chem. Acc. 128, 69 (2011)
          B-Ne : Obtained from the ccRepo (grant-hill.group.shef.ac.uk/ccrepo) Feb. 2017
                 D. E. Woon, T. H. Dunning, Jr., J. Chem. Phys. 103, 4572 (1995)
                  K. A. Peterson, T. H. Dunning, Jr., J. Chem. Phys. 117, 10548 (2002)
         Al-Ar : Obtained from the EMSL Basis Set Exchange (bse.pnl.gov) Feb. 2017
                 K. A. Peterson, T. H. Dunning, Jr., J. Chem. Phys. 117, 10548 (2002)
            Ca : Obtained from the Peterson Research Group Website (tyr0.chem.wsu.edu/~kipeters) Feb. 2017
                 J. Koput, K. A. Peterson, J. Phys. Chem. A 106, 9595 (2002)
         Ga-Kr : Obtained from the Peterson Research Group Website (tyr0.chem.wsu.edu/~kipeters) Feb. 2017
                 N. J. DeYonker, K. A. Peterson, A. K. Wilson, J. Phys. Chem. A 111, 11383 (2007)

================================================================================
                                        WARNINGS
                       Please study these warnings very carefully!
================================================================================


INFO   : the flag for use of LIBINT has been found!

================================================================================
                                       INPUT FILE
================================================================================
NAME = Ar_cc-pcvqz_548.143956_.inp
|  1> ! LDA cc-pcvqz nori grid5 finalgrid6 verytightscf
|  2> %Pal NProcs 18 End
|  3> 
|  4> % REL
|  5>   Method ZORA
|  6>   ModelPot 1, 0, 0, 0
|  7>   velit 548.143956
|  8> END
|  9> 
| 10> *xyz 16 1
| 11> Ar 0.0 0.0 0.0
| 12> **                         ****END OF INPUT****
================================================================================

                       ****************************
                       * Single Point Calculation *
                       ****************************

---------------------------------
CARTESIAN COORDINATES (ANGSTROEM)
---------------------------------
  Ar     0.000000    0.000000    0.000000

----------------------------
CARTESIAN COORDINATES (A.U.)
----------------------------
  NO LB      ZA    FRAG     MASS         X           Y           Z
   0 Ar   18.0000    0    39.948    0.000000    0.000000    0.000000

--------------------------------
INTERNAL COORDINATES (ANGSTROEM)
--------------------------------
 Ar     0   0   0     0.000000000000     0.00000000     0.00000000

---------------------------
INTERNAL COORDINATES (A.U.)
---------------------------
 Ar     0   0   0     0.000000000000     0.00000000     0.00000000

---------------------
BASIS SET INFORMATION
---------------------
There are 1 groups of distinct atoms

 Group   1 Type Ar  : 45s22p6d4f2g contracted to 9s8p6d4f2g pattern {131313111111/88111111/111111/1111/11}

Atom   0Ar   basis set group =>   1


           ************************************************************
           *        Program running with 18 parallel MPI-processes    *
           *              working on a common directory               *
           ************************************************************
------------------------------------------------------------------------------
                           ORCA GTO INTEGRAL CALCULATION
------------------------------------------------------------------------------

                         BASIS SET STATISTICS AND STARTUP INFO

 # of primitive gaussian shells          ...   79
 # of primitive gaussian functions       ...  187
 # of contracted shells                  ...   29
 # of contracted basis functions         ...  109
 Highest angular momentum                ...    4
 Maximum contraction depth               ...   13
 Integral package used                   ... LIBINT
 Integral threshhold            Thresh   ...  1.000e-12
 Primitive cut-off              TCut     ...  1.000e-14


------------------------------ INTEGRAL EVALUATION ----------------------------


 * One electron integrals 
 Pre-screening matrix                    ... done
 Shell pair data                         ... done (   0.000 sec)



           ************************************************************
           *        Program running with 18 parallel MPI-processes    *
           *              working on a common directory               *
           ************************************************************
------------------------------------------------------------------------------
                          ORCA RELATIVISTIC HAMILTONIAN
------------------------------------------------------------------------------

Relativistic Method            ... ZORA(MP)
Treatment of potential         ... Van Wuellen
Nucleus model                  ... Point Nucleus
Speed of light used            ... 548.14395600000000


            *************************************************
            *         ZERO ORDER REGULAR APPROXIMATION      *
            *                     ZORA(MP)                  *
            *            Programmed by FN according to      *
            *                   C. van Wuellen              *
            *       J. Chem. Phys. (1998) vol 109, 392-399  *
            *************************************************

Terms included in model potential: +V(e,N)
Basis function cutoff value   ... 1.000000e-12
Loading the fitted atomic densities  (DKH4)  ... done
Calculating the cutoffs                      ... done
Number of fit functions                      ... 15
Setting up the integration grid ... done


           ************************************************************
           *        Program running with 18 parallel MPI-processes    *
           *              working on a common directory               *
           ************************************************************
-------------------------------------------------------------------------------
                                 ORCA SCF
-------------------------------------------------------------------------------

------------
SCF SETTINGS
------------
Hamiltonian:
 Density Functional     Method          .... DFT(GTOs)
 Exchange Functional    Exchange        .... Slater
   X-Alpha parameter    XAlpha          ....  0.666667
 Correlation Functional Correlation     .... VWN-5
 Gradients option       PostSCFGGA      .... off
   Density functional embedding theory  .... OFF

Relativistic Settings:
 Scalar relativistic method             .... ZORA
 Speed of light used       Velit        ....       548.143956
Orbital energies will be scaled


General Settings:
 Integral files         IntName         .... Ar_cc-pcvqz_548.143956_
 Hartree-Fock type      HFTyp           .... RHF
 Total Charge           Charge          ....   16
 Multiplicity           Mult            ....    1
 Number of Electrons    NEL             ....    2
 Basis Dimension        Dim             ....  109
 Nuclear Repulsion      ENuc            ....      0.0000000000 Eh

Convergence Acceleration:
 DIIS                   CNVDIIS         .... on
   Start iteration      DIISMaxIt       ....    12
   Startup error        DIISStart       ....  0.200000
   # of expansion vecs  DIISMaxEq       ....     5
   Bias factor          DIISBfac        ....   1.050
   Max. coefficient     DIISMaxC        ....  10.000
 Newton-Raphson         CNVNR           .... off
 SOSCF                  CNVSOSCF        .... on
   Start iteration      SOSCFMaxIt      ....   150
   Startup grad/error   SOSCFStart      ....  0.003300
 Level Shifting         CNVShift        .... on
   Level shift para.    LevelShift      ....    0.2500
   Turn off err/grad.   ShiftErr        ....    0.0010
 Zerner damping         CNVZerner       .... off
 Static damping         CNVDamp         .... on
   Fraction old density DampFac         ....    0.7000
   Max. Damping (<1)    DampMax         ....    0.9800
   Min. Damping (>=0)   DampMin         ....    0.0000
   Turn off err/grad.   DampErr         ....    0.1000
 Fernandez-Rico         CNVRico         .... off

SCF Procedure:
 Maximum # iterations   MaxIter         ....   125
 SCF integral mode      SCFMode         .... Direct
   Integral package                     .... LIBINT
 Reset frequency        DirectResetFreq ....    20
 Integral Threshold     Thresh          ....  1.000e-12 Eh
 Primitive CutOff       TCut            ....  1.000e-14 Eh

Convergence Tolerance:
 Convergence Check Mode ConvCheckMode   .... Total+1el-Energy
 Convergence forced     ConvForced      .... 0
 Energy Change          TolE            ....  1.000e-09 Eh
 1-El. energy change                    ....  1.000e-06 Eh
 Orbital Gradient       TolG            ....  2.000e-06
 Orbital Rotation angle TolX            ....  2.000e-06
 DIIS Error             TolErr          ....  1.000e-08


Diagonalization of the overlap matrix:
Smallest eigenvalue                        ... 2.338e-05
Time for diagonalization                   ...    0.002 sec
Threshold for overlap eigenvalues          ... 1.000e-08
Number of eigenvalues below threshold      ... 0
Time for construction of square roots      ...    0.002 sec
Total time needed                          ...    0.003 sec

-------------------
DFT GRID GENERATION
-------------------

General Integration Accuracy     IntAcc      ...  5.010
Radial Grid Type                 RadialGrid  ... Gauss-Chebyshev
Angular Grid (max. acc.)         AngularGrid ... Lebedev-434
Angular grid pruning method      GridPruning ... 3 (G Style)
Weight generation scheme         WeightScheme... Becke
Basis function cutoff            BFCut       ...    1.0000e-12
Integration weight cutoff        WCut        ...    1.0000e-14
Grids for H and He will be reduced by one unit

# of grid points (after initial pruning)     ...  11992 (   0.0 sec)
# of grid points (after weights+screening)   ...  11992 (   0.0 sec)
Grid point division into batches done        ...    0.1 sec
Reduced shell lists constructed in    0.1 sec

Total number of grid points                  ...    11992
Total number of batches                      ...      188
Average number of points per batch           ...       63
Average number of grid points per atom       ...    11992
Average number of shells per batch           ...     0.00 ( 0.00%)
Average number of basis functions per batch  ...     0.00 ( 0.00%)
Average number of large shells per batch     ...     0.00 ( -nan%)
Average number of large basis fcns per batch ...     0.00 ( -nan%)
Maximum spatial batch extension              ...  18.71, 18.71, 18.71 au
Average spatial batch extension              ...   0.97,  0.98,  0.97 au

Time for grid setup =    0.154 sec

------------------------------
INITIAL GUESS: MODEL POTENTIAL
------------------------------
Loading ZORA relativistic densities                ... done
Calculating cut-offs                               ... done
Setting up the integral package                    ... done
Initializing the effective Hamiltonian             ... done
Starting the Coulomb interaction                   ... done (   0.0 sec)
Reading the grid                                   ... done
Mapping shells                                     ... done
Starting the XC term evaluation                    ... done (   0.0 sec)
  promolecular density results
     # of electrons  =     18.000000116
     EX              =    -28.047870263
     EC              =     -1.433252902
     EX+EC           =    -29.481123164
Transforming the Hamiltonian                       ... done (   0.0 sec)
Diagonalizing the Hamiltonian                      ... done (   0.0 sec)
Back transforming the eigenvectors                 ... done (   0.0 sec)
Now organizing SCF variables                       ... done
                      ------------------
                      INITIAL GUESS DONE (   0.2 sec)
                      ------------------
--------------
SCF ITERATIONS
--------------
ITER       Energy         Delta-E        Max-DP      RMS-DP      [F,P]     Damp
               ***  Starting incremental Fock matrix formation  ***
  0   -311.6665092184   0.000000000000 0.04445000  0.00054574  2.1996846 0.7000
  1   -311.6772301823  -0.010720963859 0.03168088  0.00038873  1.5265807 0.7000
  2   -311.6846457422  -0.007415559907 0.02250440  0.00027601  1.0585902 0.7000
  3   -311.6897941005  -0.005148358281 0.01597998  0.00019592  0.7341189 0.7000
  4   -311.6933776533  -0.003583552817 0.01134299  0.00013903  0.5091330 0.7000
                      *** Initiating the SOSCF procedure ***
                      *** Re-Reading the Fockian *** 
                      *** Removing any level shift *** 
ITER      Energy       Delta-E        Grad      Rot      Max-DP    RMS-DP
  5   -311.69587645  -0.0024987977  0.002488  0.002488  0.026829  0.000329
               *** Restarting incremental Fock matrix formation ***
  6   -311.70167686  -0.0058004112  0.005735  0.000027  0.000835  0.000012
  7   -311.70167746  -0.0000006006  0.000168  0.000001  0.000025  0.000000
                 **** Energy Check signals convergence ****
              ***Rediagonalizing the Fockian in SOSCF/NRSCF***

               *****************************************************
               *                     SUCCESS                       *
               *           SCF CONVERGED AFTER   8 CYCLES          *
               *****************************************************

Setting up the final grid:

General Integration Accuracy     IntAcc      ...  5.340
Radial Grid Type                 RadialGrid  ... Gauss-Chebyshev
Angular Grid (max. acc.)         AngularGrid ... Lebedev-590
Angular grid pruning method      GridPruning ... 3 (G Style)
Weight generation scheme         WeightScheme... Becke
Basis function cutoff            BFCut       ...    1.0000e-12
Integration weight cutoff        WCut        ...    1.0000e-14
Grids for H and He will be reduced by one unit

# of grid points (after initial pruning)     ...  18110 (   0.0 sec)
# of grid points (after weights+screening)   ...  18110 (   0.0 sec)
Grid point division into batches done        ...    0.2 sec
Reduced shell lists constructed in    0.2 sec

Total number of grid points                  ...    18110
Total number of batches                      ...      283
Average number of points per batch           ...       63
Average number of grid points per atom       ...    18110
Average number of shells per batch           ...     0.00 ( 0.00%)
Average number of basis functions per batch  ...     0.00 ( 0.00%)
Average number of large shells per batch     ...     0.00 ( -nan%)
Average number of large basis fcns per batch ...     0.00 ( -nan%)
Maximum spatial batch extension              ...  19.03, 19.03, 19.03 au
Average spatial batch extension              ...   0.84,  0.84,  0.80 au

Final grid set up in    0.2 sec
Final integration                            ... done (   0.0 sec)
Change in XC energy                          ...     0.000000365
Integrated number of electrons               ...     1.999999988
Previous integrated no of electrons          ...     2.000000041

----------------
TOTAL SCF ENERGY
----------------

Total Energy       :         -311.70167710 Eh           -8481.83384 eV

Components:
Nuclear Repulsion  :            0.00000000 Eh               0.00000 eV
Electronic Energy  :         -311.70167710 Eh           -8481.83384 eV
One Electron Energy:         -324.02708854 Eh           -8817.22534 eV
Two Electron Energy:           12.32541145 Eh             335.39150 eV

Virial components:
Potential Energy   :         -623.38269209 Eh          -16963.10544 eV
Kinetic Energy     :          311.68101499 Eh            8481.27160 eV
Virial Ratio       :            2.00006629


DFT components:
N(Alpha)           :        0.999999994088 electrons
N(Beta)            :        0.999999994088 electrons
N(Total)           :        1.999999988176 electrons
E(X)               :       -9.440965860300 Eh       
E(C)               :       -0.236940672411 Eh       
E(XC)              :       -9.677906532712 Eh       
DFET-embed. en.    :        0.000000000000 Eh       

---------------
SCF CONVERGENCE
---------------

  Last Energy change         ...   -5.1250e-10  Tolerance :   1.0000e-09
  Last MAX-Density change    ...    2.3248e-09  Tolerance :   1.0000e-08
  Last RMS-Density change    ...    3.0814e-11  Tolerance :   1.0000e-09
  Last Orbital Gradient      ...    4.2152e-09  Tolerance :   2.0000e-06
  Last Orbital Rotation      ...    1.8094e-11  Tolerance :   2.0000e-06

================================================================================
                                        WARNING
Number of found core electrons (2) does not match given number of chemical core electrons (10)
================================================================================
             **** THE GBW FILE WAS UPDATED (Ar_cc-pcvqz_548.143956_.gbw) ****
             **** DENSITY FILE WAS UPDATED (Ar_cc-pcvqz_548.143956_.scfp) ****
             **** ENERGY FILE WAS UPDATED (Ar_cc-pcvqz_548.143956_.en.tmp) ****
             **** THE GBW FILE WAS UPDATED (Ar_cc-pcvqz_548.143956_.gbw) ****
             **** DENSITY FILE WAS UPDATED (Ar_cc-pcvqz_548.143956_.scfp) ****
----------------
ORBITAL ENERGIES
----------------

  NO   OCC          E(Eh)            E(eV) 
   0   2.0000    -146.432225     -3984.6234 
   1   0.0000     -34.126142      -928.6195 
   2   0.0000     -33.275052      -905.4602 
   3   0.0000     -33.275052      -905.4602 
   4   0.0000     -33.275052      -905.4602 
   5   0.0000     -14.784985      -402.3199 
   6   0.0000     -14.532198      -395.4412 
   7   0.0000     -14.532198      -395.4412 
   8   0.0000     -14.532198      -395.4412 
   9   0.0000     -14.285712      -388.7340 
  10   0.0000     -14.285712      -388.7340 
  11   0.0000     -14.285712      -388.7340 
  12   0.0000     -14.285712      -388.7340 
  13   0.0000     -14.285712      -388.7340 
  14   0.0000      -8.182930      -222.6688 
  15   0.0000      -8.122592      -221.0270 
  16   0.0000      -8.122592      -221.0270 
  17   0.0000      -8.122592      -221.0270 
  18   0.0000      -7.999043      -217.6650 
  19   0.0000      -7.999043      -217.6650 
  20   0.0000      -7.999043      -217.6650 
  21   0.0000      -7.999043      -217.6650 
  22   0.0000      -7.999043      -217.6650 
  23   0.0000      -7.695964      -209.4178 
  24   0.0000      -7.695964      -209.4178 
  25   0.0000      -7.695964      -209.4178 
  26   0.0000      -7.695964      -209.4178 
  27   0.0000      -7.695964      -209.4178 
  28   0.0000      -7.695964      -209.4178 
  29   0.0000      -7.695964      -209.4178 
  30   0.0000      -5.177999      -140.9005 
  31   0.0000      -5.177999      -140.9005 
  32   0.0000      -5.177999      -140.9005 
  33   0.0000      -5.077589      -138.1682 
  34   0.0000      -5.055952      -137.5794 
  35   0.0000      -5.055952      -137.5794 
  36   0.0000      -5.055952      -137.5794 
  37   0.0000      -5.055952      -137.5794 
  38   0.0000      -5.055952      -137.5794 
  39   0.0000      -4.874077      -132.6304 
  40   0.0000      -4.874077      -132.6304 
  41   0.0000      -4.874077      -132.6304 
  42   0.0000      -4.874077      -132.6304 
  43   0.0000      -4.874077      -132.6304 
  44   0.0000      -4.874077      -132.6304 
  45   0.0000      -4.874077      -132.6304 
  46   0.0000      -4.874077      -132.6304 
  47   0.0000      -4.874076      -132.6304 
  48   0.0000      -4.833945      -131.5383 
  49   0.0000      -4.833945      -131.5383 
  50   0.0000      -4.833945      -131.5383 
  51   0.0000      -4.833945      -131.5383 
  52   0.0000      -4.833945      -131.5383 
  53   0.0000      -4.833945      -131.5383 
  54   0.0000      -4.833945      -131.5383 
  55   0.0000      -3.527381       -95.9849 
  56   0.0000      -3.527381       -95.9849 
  57   0.0000      -3.527381       -95.9849 
  58   0.0000      -2.941959       -80.0548 
  59   0.0000      -2.354453       -64.0679 
  60   0.0000      -2.354453       -64.0679 
  61   0.0000      -2.354453       -64.0679 
  62   0.0000      -2.354453       -64.0679 
  63   0.0000      -2.354453       -64.0679 
  64   0.0000       1.685892        45.8754 
  65   0.0000       1.685892        45.8754 
  66   0.0000       1.685892        45.8754 
  67   0.0000       4.454230       121.2058 
  68   0.0000       4.454230       121.2058 
  69   0.0000       4.454230       121.2058 
  70   0.0000       4.454230       121.2058 
  71   0.0000       4.454230       121.2058 
  72   0.0000       4.454230       121.2058 
  73   0.0000       4.454230       121.2058 
  74   0.0000      17.525580       476.8953 
  75   0.0000      20.321277       552.9701 
  76   0.0000      20.321277       552.9701 
  77   0.0000      20.321277       552.9701 
  78   0.0000      20.321277       552.9701 
  79   0.0000      20.321277       552.9701 
  80   0.0000      33.166449       902.5049 
  81   0.0000      33.166449       902.5049 
  82   0.0000      33.166449       902.5049 
  83   0.0000      51.474324      1400.6876 
  84   0.0000      51.474324      1400.6876 
  85   0.0000      51.474324      1400.6876 
  86   0.0000      51.474324      1400.6876 
  87   0.0000      51.474324      1400.6876 
  88   0.0000      51.474324      1400.6876 
  89   0.0000      51.474324      1400.6876 
  90   0.0000      51.474324      1400.6876 
  91   0.0000      51.474324      1400.6876 
  92   0.0000      60.047686      1633.9806 
  93   0.0000      60.047686      1633.9806 
  94   0.0000      60.047686      1633.9806 
  95   0.0000      60.047686      1633.9806 
  96   0.0000      60.047686      1633.9806 
  97   0.0000      60.047686      1633.9806 
  98   0.0000      60.047686      1633.9806 
  99   0.0000      86.256649      2347.1627 
 100   0.0000      99.256662      2700.9111 
 101   0.0000      99.256662      2700.9111 
 102   0.0000      99.256662      2700.9111 
 103   0.0000      99.256662      2700.9111 
 104   0.0000      99.256662      2700.9111 
 105   0.0000     156.611761      4261.6227 
 106   0.0000     156.611761      4261.6227 
 107   0.0000     156.611761      4261.6227 
 108   0.0000     491.856073     13384.0842 

                    ********************************
                    * MULLIKEN POPULATION ANALYSIS *
                    ********************************

-----------------------
MULLIKEN ATOMIC CHARGES
-----------------------
   0 Ar:   16.000000
Sum of atomic charges:   16.0000000

--------------------------------
MULLIKEN REDUCED ORBITAL CHARGES
--------------------------------
  0 Ars       :     2.000000  s :     2.000000
      pz      :     0.000000  p :     0.000000
      px      :     0.000000
      py      :     0.000000
      dz2     :     0.000000  d :     0.000000
      dxz     :     0.000000
      dyz     :     0.000000
      dx2y2   :     0.000000
      dxy     :     0.000000
      f0      :     0.000000  f :     0.000000
      f+1     :     0.000000
      f-1     :     0.000000
      f+2     :     0.000000
      f-2     :     0.000000
      f+3     :     0.000000
      f-3     :     0.000000
      g0      :     0.000000  g :     0.000000
      g+1     :     0.000000
      g-1     :     0.000000
      g+2     :     0.000000
      g-2     :     0.000000
      g+3     :     0.000000
      g-3     :     0.000000
      g+4     :     0.000000
      g-4     :     0.000000


                     *******************************
                     * LOEWDIN POPULATION ANALYSIS *
                     *******************************

----------------------
LOEWDIN ATOMIC CHARGES
----------------------
   0 Ar:   16.000000

-------------------------------
LOEWDIN REDUCED ORBITAL CHARGES
-------------------------------
  0 Ars       :     2.000000  s :     2.000000
      pz      :     0.000000  p :     0.000000
      px      :     0.000000
      py      :     0.000000
      dz2     :     0.000000  d :     0.000000
      dxz     :     0.000000
      dyz     :     0.000000
      dx2y2   :     0.000000
      dxy     :     0.000000
      f0      :     0.000000  f :     0.000000
      f+1     :     0.000000
      f-1     :     0.000000
      f+2     :     0.000000
      f-2     :     0.000000
      f+3     :     0.000000
      f-3     :     0.000000
      g0      :     0.000000  g :     0.000000
      g+1     :     0.000000
      g-1     :     0.000000
      g+2     :     0.000000
      g-2     :     0.000000
      g+3     :     0.000000
      g-3     :     0.000000
      g+4     :     0.000000
      g-4     :     0.000000


                      *****************************
                      * MAYER POPULATION ANALYSIS *
                      *****************************

  NA   - Mulliken gross atomic population
  ZA   - Total nuclear charge
  QA   - Mulliken gross atomic charge
  VA   - Mayer's total valence
  BVA  - Mayer's bonded valence
  FA   - Mayer's free valence

  ATOM       NA         ZA         QA         VA         BVA        FA
  0 Ar     2.0000    18.0000    16.0000    -0.0000     0.0000    -0.0000

  Mayer bond orders larger than 0.100000


--------------------------
ATOM BASIS FOR ELEMENT Ar
--------------------------
 NewGTO Ar
 S 45
    1     950600.000000000000         0.000023011732
    2     142300.000000000000         0.000178945303
    3      32360.000000000000         0.000941809827
    4       9145.000000000000         0.003973011490
    5       2970.000000000000         0.014366998532
    6       1064.000000000000         0.045317977673
    7        410.800000000000         0.122368875252
    8        168.000000000000         0.263524757186
    9         71.990000000000         0.385675190631
   10         31.670000000000         0.279178742029
   11         12.890000000000         0.051088987720
   12          5.929000000000        -0.003639341630
   13          2.678000000000         0.002212714372
   14     950600.000000000000        -0.000000137621
   15     142300.000000000000        -0.000001069846
   16      32360.000000000000        -0.000005639529
   17       9145.000000000000        -0.000023830270
   18       2970.000000000000        -0.000086950512
   19       1064.000000000000        -0.000279450625
   20        410.800000000000        -0.000794069036
   21        168.000000000000        -0.001905461140
   22         71.990000000000        -0.003579044878
   23         31.670000000000        -0.003824812179
   24         12.890000000000         0.002192589331
   25          5.929000000000         0.011982327228
   26          2.678000000000         0.009591207328
   27     950600.000000000000         0.000000064311
   28     142300.000000000000         0.000000499220
   29      32360.000000000000         0.000002637294
   30       9145.000000000000         0.000011116256
   31       2970.000000000000         0.000040731768
   32       1064.000000000000         0.000130609583
   33        410.800000000000         0.000374894841
   34        168.000000000000         0.000903485459
   35         71.990000000000         0.001758179114
   36         31.670000000000         0.001933504969
   37         12.890000000000        -0.001152199537
   38          5.929000000000        -0.008765274301
   39          2.678000000000        -0.011548507809
   40          0.941600000000         0.000019647245
   41          0.423900000000        -0.000033100715
   42          0.171400000000         0.000011578889
   43         24.024000000000         0.001375308430
   44         12.706000000000        -0.013031451453
   45          6.720000000000        -0.002147125986
 S 45
    1     950600.000000000000        -0.000001497133
    2     142300.000000000000        -0.000011642100
    3      32360.000000000000        -0.000061273721
    4       9145.000000000000        -0.000258482327
    5       2970.000000000000        -0.000934710413
    6       1064.000000000000        -0.002948367090
    7        410.800000000000        -0.007961263567
    8        168.000000000000        -0.017144801275
    9         71.990000000000        -0.025091853117
   10         31.670000000000        -0.018163242434
   11         12.890000000000        -0.003323826388
   12          5.929000000000         0.000236773917
   13          2.678000000000        -0.000143958194
   14     950600.000000000000         0.000013317197
   15     142300.000000000000         0.000103525850
   16      32360.000000000000         0.000545720660
   17       9145.000000000000         0.002305985306
   18       2970.000000000000         0.008413945725
   19       1064.000000000000         0.027041616511
   20        410.800000000000         0.076839729332
   21        168.000000000000         0.184385880278
   22         71.990000000000         0.346333665183
   23         31.670000000000         0.370115845293
   24         12.890000000000        -0.212170432311
   25          5.929000000000        -1.159494626975
   26          2.678000000000        -0.928112974302
   27     950600.000000000000        -0.000004060959
   28     142300.000000000000        -0.000031523579
   29      32360.000000000000        -0.000166533673
   30       9145.000000000000        -0.000701943320
   31       2970.000000000000        -0.002572034288
   32       1064.000000000000        -0.008247428037
   33        410.800000000000        -0.023672981396
   34        168.000000000000        -0.057051183752
   35         71.990000000000        -0.111021376879
   36         31.670000000000        -0.122092443389
   37         12.890000000000         0.072756397806
   38          5.929000000000         0.553489012605
   39          2.678000000000         0.729238123656
   40          0.941600000000         0.013321396123
   41          0.423900000000        -0.006385556052
   42          0.171400000000         0.001573459562
   43         24.024000000000        -0.015400202743
   44         12.706000000000        -0.111155047311
   45          6.720000000000        -0.140900998151
 S 45
    1     950600.000000000000        -0.000004112592
    2     142300.000000000000        -0.000031980600
    3      32360.000000000000        -0.000168317598
    4       9145.000000000000        -0.000710045415
    5       2970.000000000000        -0.002567629481
    6       1064.000000000000        -0.008099101230
    7        410.800000000000        -0.021869420459
    8        168.000000000000        -0.047096401796
    9         71.990000000000        -0.068926782950
   10         31.670000000000        -0.049894037842
   11         12.890000000000        -0.009130479879
   12          5.929000000000         0.000650412878
   13          2.678000000000        -0.000395450075
   14     950600.000000000000         0.000018828394
   15     142300.000000000000         0.000146369058
   16      32360.000000000000         0.000771562074
   17       9145.000000000000         0.003260295851
   18       2970.000000000000         0.011895978810
   19       1064.000000000000         0.038232537685
   20        410.800000000000         0.108639135764
   21        168.000000000000         0.260692259780
   22         71.990000000000         0.489660627367
   23         31.670000000000         0.523284841250
   24         12.890000000000        -0.299975189935
   25          5.929000000000        -1.639340680827
   26          2.678000000000        -1.312203885882
   27     950600.000000000000        -0.000010755272
   28     142300.000000000000        -0.000083488826
   29      32360.000000000000        -0.000441057187
   30       9145.000000000000        -0.001859066342
   31       2970.000000000000        -0.006811920903
   32       1064.000000000000        -0.021842954313
   33        410.800000000000        -0.062696861224
   34        168.000000000000        -0.151097577889
   35         71.990000000000        -0.294035286159
   36         31.670000000000        -0.323356524113
   37         12.890000000000         0.192692153983
   38          5.929000000000         1.465891567752
   39          2.678000000000         1.931355441583
   40          0.941600000000         1.080490170484
   41          0.423900000000        -0.259373206722
   42          0.171400000000         0.061083338062
   43         24.024000000000        -0.074307119901
   44         12.706000000000         0.115615918970
   45          6.720000000000        -1.049685888533
 S 45
    1     950600.000000000000        -0.000005502586
    2     142300.000000000000        -0.000042789564
    3      32360.000000000000        -0.000225206422
    4       9145.000000000000        -0.000950030118
    5       2970.000000000000        -0.003435449745
    6       1064.000000000000        -0.010836476004
    7        410.800000000000        -0.029260956653
    8        168.000000000000        -0.063014279416
    9         71.990000000000        -0.092223002065
   10         31.670000000000        -0.066757474497
   11         12.890000000000        -0.012216445171
   12          5.929000000000         0.000870242678
   13          2.678000000000        -0.000529106271
   14     950600.000000000000         0.000026370155
   15     142300.000000000000         0.000204997554
   16      32360.000000000000         0.001080613208
   17       9145.000000000000         0.004566215574
   18       2970.000000000000         0.016660943114
   19       1064.000000000000         0.053546677042
   20        410.800000000000         0.152154815485
   21        168.000000000000         0.365113201667
   22         71.990000000000         0.685795426144
   23         31.670000000000         0.732887903668
   24         12.890000000000        -0.420131008532
   25          5.929000000000        -2.295982723479
   26          2.678000000000        -1.837810460573
   27     950600.000000000000        -0.000018465473
   28     142300.000000000000        -0.000143339993
   29      32360.000000000000        -0.000757240663
   30       9145.000000000000        -0.003191787073
   31       2970.000000000000        -0.011695226033
   32       1064.000000000000        -0.037501652115
   33        410.800000000000        -0.107642759517
   34        168.000000000000        -0.259415861062
   35         71.990000000000        -0.504822234791
   36         31.670000000000        -0.555163175378
   37         12.890000000000         0.330828605883
   38          5.929000000000         2.516754593849
   39          2.678000000000         3.315898519979
   40          0.941600000000         0.861293763461
   41          0.423900000000        -1.974400522581
   42          0.171400000000         0.222454029385
   43         24.024000000000        -0.125101003110
   44         12.706000000000         0.330062856488
   45          6.720000000000        -1.607318359026
 S 45
    1     950600.000000000000        -0.000006499984
    2     142300.000000000000        -0.000050545589
    3      32360.000000000000        -0.000266027283
    4       9145.000000000000        -0.001122232346
    5       2970.000000000000        -0.004058158531
    6       1064.000000000000        -0.012800693011
    7        410.800000000000        -0.034564790544
    8        168.000000000000        -0.074436232388
    9         71.990000000000        -0.108939321005
   10         31.670000000000        -0.078857918100
   11         12.890000000000        -0.014430795053
   12          5.929000000000         0.001027982654
   13          2.678000000000        -0.000625011945
   14     950600.000000000000         0.000032419415
   15     142300.000000000000         0.000252023579
   16      32360.000000000000         0.001328503696
   17       9145.000000000000         0.005613696209
   18       2970.000000000000         0.020482929832
   19       1064.000000000000         0.065830176666
   20        410.800000000000         0.187058823014
   21        168.000000000000         0.448869433105
   22         71.990000000000         0.843115512540
   23         31.670000000000         0.901010909346
   24         12.890000000000        -0.516508213804
   25          5.929000000000        -2.822676525525
   26          2.678000000000        -2.259400470386
   27     950600.000000000000        -0.000024288138
   28     142300.000000000000        -0.000188538984
   29      32360.000000000000        -0.000996019201
   30       9145.000000000000        -0.004198244185
   31       2970.000000000000        -0.015383048289
   32       1064.000000000000        -0.049326941077
   33        410.800000000000        -0.141585443752
   34        168.000000000000        -0.341216724371
   35         71.990000000000        -0.664006389742
   36         31.670000000000        -0.730221195492
   37         12.890000000000         0.435147846264
   38          5.929000000000         3.310355639187
   39          2.678000000000         4.361491339446
   40          0.941600000000        -0.982257630545
   41          0.423900000000        -1.494109835295
   42          0.171400000000         1.904503380138
   43         24.024000000000        -0.163251043423
   44         12.706000000000         0.487336163051
   45          6.720000000000        -1.963852622835
 S 45
    1     950600.000000000000        -0.000014180267
    2     142300.000000000000        -0.000110269502
    3      32360.000000000000        -0.000580361144
    4       9145.000000000000        -0.002448245310
    5       2970.000000000000        -0.008853217985
    6       1064.000000000000        -0.027925800512
    7        410.800000000000        -0.075406030335
    8        168.000000000000        -0.162388971815
    9         71.990000000000        -0.237660394151
   10         31.670000000000        -0.172035255264
   11         12.890000000000        -0.031482006759
   12          5.929000000000         0.002242631591
   13          2.678000000000        -0.001363516717
   14     950600.000000000000         0.000073403677
   15     142300.000000000000         0.000570628961
   16      32360.000000000000         0.003007983171
   17       9145.000000000000         0.012710468005
   18       2970.000000000000         0.046377220030
   19       1064.000000000000         0.149051947788
   20        410.800000000000         0.423536489394
   21        168.000000000000         1.016325136821
   22         71.990000000000         1.908972688811
   23         31.670000000000         2.040058797020
   24         12.890000000000        -1.169472105580
   25          5.929000000000        -6.391072535648
   26          2.678000000000        -5.115709208168
   27     950600.000000000000        -0.000056836078
   28     142300.000000000000        -0.000441195472
   29      32360.000000000000        -0.002330760201
   30       9145.000000000000        -0.009824208660
   31       2970.000000000000        -0.035997495518
   32       1064.000000000000        -0.115428769835
   33        410.800000000000        -0.331320638215
   34        168.000000000000        -0.798472921316
   35         71.990000000000        -1.553825132006
   36         31.670000000000        -1.708772781420
   37         12.890000000000         1.018278845067
   38          5.929000000000         7.746482364498
   39          2.678000000000        10.206219339089
   40          0.941600000000        -7.069023749094
   41          0.423900000000         6.216943127833
   42          0.171400000000        -2.358930645473
   43         24.024000000000        -0.361199401228
   44         12.706000000000         1.143633558131
   45          6.720000000000        -4.369120565914
 S 45
    1     950600.000000000000        -0.000032357780
    2     142300.000000000000        -0.000251622639
    3      32360.000000000000        -0.001324319049
    4       9145.000000000000        -0.005586621257
    5       2970.000000000000        -0.020202050661
    6       1064.000000000000        -0.063723545232
    7        410.800000000000        -0.172068105363
    8        168.000000000000        -0.370553423752
    9         71.990000000000        -0.542314368755
   10         31.670000000000        -0.392565160869
   11         12.890000000000        -0.071838409103
   12          5.929000000000         0.005117433807
   13          2.678000000000        -0.003111392246
   14     950600.000000000000         0.000091523443
   15     142300.000000000000         0.000711489254
   16      32360.000000000000         0.003750506630
   17       9145.000000000000         0.015848058919
   18       2970.000000000000         0.057825480167
   19       1064.000000000000         0.185845560492
   20        410.800000000000         0.528086867892
   21        168.000000000000         1.267205947311
   22         71.990000000000         2.380204382312
   23         31.670000000000         2.543649218923
   24         12.890000000000        -1.458157388531
   25          5.929000000000        -7.968714767993
   26          2.678000000000        -6.378526810407
   27     950600.000000000000        -0.000071099655
   28     142300.000000000000        -0.000551917842
   29      32360.000000000000        -0.002915687543
   30       9145.000000000000        -0.012289691062
   31       2970.000000000000        -0.045031423318
   32       1064.000000000000        -0.144396762125
   33        410.800000000000        -0.414468831746
   34        168.000000000000        -0.998857604107
   35         71.990000000000        -1.943772928454
   36         31.670000000000        -2.137606224140
   37         12.890000000000         1.273826000035
   38          5.929000000000         9.690538787601
   39          2.678000000000        12.767571102139
   40          0.941600000000        -3.872351538644
   41          0.423900000000         2.216008547345
   42          0.171400000000        -0.599644832151
   43         24.024000000000        -3.073213494234
   44         12.706000000000        10.999672726598
   45          6.720000000000       -13.354109887646
 S 45
    1     950600.000000000000        -0.000160934869
    2     142300.000000000000        -0.001251472033
    3      32360.000000000000        -0.006586642052
    4       9145.000000000000        -0.027785656724
    5       2970.000000000000        -0.100477053834
    6       1064.000000000000        -0.316935849347
    7        410.800000000000        -0.855799075833
    8        168.000000000000        -1.842986978467
    9         71.990000000000        -2.697258359485
   10         31.670000000000        -1.952464700923
   11         12.890000000000        -0.357295990389
   12          5.929000000000         0.025452102894
   13          2.678000000000        -0.015474841216
   14     950600.000000000000         0.000304308565
   15     142300.000000000000         0.002365648254
   16      32360.000000000000         0.012470152452
   17       9145.000000000000         0.052693603898
   18       2970.000000000000         0.192265372224
   19       1064.000000000000         0.617922510306
   20        410.800000000000         1.755849115809
   21        168.000000000000         4.213364462208
   22         71.990000000000         7.914000544668
   23         31.670000000000         8.457442332936
   24         12.890000000000        -4.848263641896
   25          5.929000000000       -26.495377238547
   26          2.678000000000       -21.208121885193
   27     950600.000000000000        -0.000143134040
   28     142300.000000000000        -0.001111091623
   29      32360.000000000000        -0.005869706966
   30       9145.000000000000        -0.024740951895
   31       2970.000000000000        -0.090654864506
   32       1064.000000000000        -0.290691875608
   33        410.800000000000        -0.834386590864
   34        168.000000000000        -2.010846961732
   35         71.990000000000        -3.913100197073
   36         31.670000000000        -4.303315070655
   37         12.890000000000         2.564398700490
   38          5.929000000000        19.508476882464
   39          2.678000000000        25.702994554854
   40          0.941600000000        -2.137789198619
   41          0.423900000000         1.155554890829
   42          0.171400000000        -0.304712093171
   43         24.024000000000       -11.394937207471
   44         12.706000000000        16.539188495430
   45          6.720000000000        -2.542175318758
 S 45
    1     950600.000000000000        -0.000721193566
    2     142300.000000000000        -0.005608191589
    3      32360.000000000000        -0.029516560964
    4       9145.000000000000        -0.124515196688
    5       2970.000000000000        -0.450265410127
    6       1064.000000000000        -1.420277015947
    7        410.800000000000        -3.835071861327
    8        168.000000000000        -8.258933319168
    9         71.990000000000       -12.087159158379
   10         31.670000000000        -8.749533209594
   11         12.890000000000        -1.601141947449
   12          5.929000000000         0.114057897906
   13          2.678000000000        -0.069347034579
   14     950600.000000000000         0.000965440959
   15     142300.000000000000         0.007505190407
   16      32360.000000000000         0.039562461742
   17       9145.000000000000         0.167174274431
   18       2970.000000000000         0.609975817219
   19       1064.000000000000         1.960403913830
   20        410.800000000000         5.570558478318
   21        168.000000000000        13.367203887778
   22         71.990000000000        25.107739859067
   23         31.670000000000        26.831848288343
   24         12.890000000000       -15.381467514671
   25          5.929000000000       -84.058503081788
   26          2.678000000000       -67.284302570781
   27     950600.000000000000        -0.000402331693
   28     142300.000000000000        -0.003123138097
   29      32360.000000000000        -0.016499004280
   30       9145.000000000000        -0.069543688229
   31       2970.000000000000        -0.254819364284
   32       1064.000000000000        -0.817098115463
   33        410.800000000000        -2.345355230644
   34        168.000000000000        -5.652236614729
   35         71.990000000000       -10.999229992095
   36         31.670000000000       -12.096074673986
   37         12.890000000000         7.208200576928
   38          5.929000000000        54.835862415742
   39          2.678000000000        72.247868532960
   40          0.941600000000        -1.982845952912
   41          0.423900000000         1.041690287168
   42          0.171400000000        -0.271567690629
   43         24.024000000000       -11.248981151384
   44         12.706000000000        14.080611251795
   45          6.720000000000        25.454066508951
 P 22
    1       1890.000000000000         0.000396133404
    2        447.800000000000         0.003397360608
    3        144.600000000000         0.017841073364
    4         54.460000000000         0.066391770558
    5         22.510000000000         0.173482957857
    6          9.774000000000         0.299251909622
    7          4.368000000000         0.292809923503
    8          1.959000000000         0.103273938963
    9       1890.000000000000         0.000289431964
   10        447.800000000000         0.002477605813
   11        144.600000000000         0.013184293680
   12         54.460000000000         0.049775761502
   13         22.510000000000         0.135320589106
   14          9.774000000000         0.240619774086
   15          4.368000000000         0.257725613159
   16          1.959000000000        -0.135282446441
   17          0.826000000000         0.017075046123
   18          0.329700000000        -0.006912389366
   19          0.124200000000         0.001981430497
   20         23.627000000000         0.006263900490
   21         10.654000000000        -0.042929622352
   22          4.804000000000        -0.330231715031
 P 22
    1       1890.000000000000        -0.001013745369
    2        447.800000000000        -0.008694188748
    3        144.600000000000        -0.045657107737
    4         54.460000000000        -0.169903242888
    5         22.510000000000        -0.443960401688
    6          9.774000000000        -0.765815845216
    7          4.368000000000        -0.749330152441
    8          1.959000000000        -0.264288434969
    9       1890.000000000000         0.001414711164
   10        447.800000000000         0.012110260906
   11        144.600000000000         0.064443357171
   12         54.460000000000         0.243298371140
   13         22.510000000000         0.661431948354
   14          9.774000000000         1.176122621378
   15          4.368000000000         1.259734055092
   16          1.959000000000        -0.661245511259
   17          0.826000000000        -0.093701125136
   18          0.329700000000        -0.004855192453
   19          0.124200000000         0.002295473352
   20         23.627000000000        -0.011050474163
   21         10.654000000000        -0.009242634483
   22          4.804000000000        -0.675552236594
 P 22
    1       1890.000000000000        -0.001362890116
    2        447.800000000000        -0.011688560335
    3        144.600000000000        -0.061381903935
    4         54.460000000000        -0.228419736820
    5         22.510000000000        -0.596865112098
    6          9.774000000000        -1.029571012558
    7          4.368000000000        -1.007407470880
    8          1.959000000000        -0.355312198485
    9       1890.000000000000         0.001624152117
   10        447.800000000000         0.013903124819
   11        144.600000000000         0.073983875777
   12         54.460000000000         0.279317485270
   13         22.510000000000         0.759353659564
   14          9.774000000000         1.350241727606
   15          4.368000000000         1.446231418351
   16          1.959000000000        -0.759139621384
   17          0.826000000000         1.304049007741
   18          0.329700000000         0.249530525233
   19          0.124200000000        -0.025772316856
   20         23.627000000000        -0.021970069303
   21         10.654000000000        -0.007173539279
   22          4.804000000000        -0.725387283000
 P 22
    1       1890.000000000000        -0.001155708548
    2        447.800000000000        -0.009911708167
    3        144.600000000000        -0.052050851522
    4         54.460000000000        -0.193696204314
    5         22.510000000000        -0.506131861941
    6          9.774000000000        -0.873059394868
    7          4.368000000000        -0.854265073690
    8          1.959000000000        -0.301298938310
    9       1890.000000000000         0.001343550495
   10        447.800000000000         0.011501108812
   11        144.600000000000         0.061201824534
   12         54.460000000000         0.231060343123
   13         22.510000000000         0.628161595259
   14          9.774000000000         1.116963073682
   15          4.368000000000         1.196368811059
   16          1.959000000000        -0.627984536042
   17          0.826000000000         2.217340400564
   18          0.329700000000        -1.699276195107
   19          0.124200000000        -0.088155016716
   20         23.627000000000        -0.023521382747
   21         10.654000000000         0.009284717329
   22          4.804000000000        -0.661294534644
 P 22
    1       1890.000000000000        -0.000537803500
    2        447.800000000000        -0.004612366463
    3        144.600000000000        -0.024221617293
    4         54.460000000000        -0.090135611520
    5         22.510000000000        -0.235526065404
    6          9.774000000000        -0.406274055439
    7          4.368000000000        -0.397528207071
    8          1.959000000000        -0.140208034283
    9       1890.000000000000         0.000660090566
   10        447.800000000000         0.005650530784
   11        144.600000000000         0.030068648092
   12         54.460000000000         0.113520670313
   13         22.510000000000         0.308617759303
   14          9.774000000000         0.548767456695
   15          4.368000000000         0.587779744185
   16          1.959000000000        -0.308530769555
   17          0.826000000000         1.656037376959
   18          0.329700000000        -2.438055986044
   19          0.124200000000         1.813788877412
   20         23.627000000000        -0.018357668517
   21         10.654000000000         0.039760346318
   22          4.804000000000        -0.484346913603
 P 22
    1       1890.000000000000         0.006332791756
    2        447.800000000000         0.054311949048
    3        144.600000000000         0.285216548776
    4         54.460000000000         1.061372893823
    5         22.510000000000         2.773387536774
    6          9.774000000000         4.783994501564
    7          4.368000000000         4.681009607633
    8          1.959000000000         1.650990153334
    9       1890.000000000000        -0.005548306094
   10        447.800000000000        -0.047494807499
   11        144.600000000000        -0.252738142236
   12         54.460000000000        -0.954183348461
   13         22.510000000000        -2.594046759549
   14          9.774000000000        -4.612594058101
   15          4.368000000000        -4.940506807442
   16          1.959000000000         2.593315578446
   17          0.826000000000        -3.205451299469
   18          0.329700000000         1.668265952949
   19          0.124200000000        -0.547896024655
   20         23.627000000000        -0.057980914543
   21         10.654000000000         1.173631782787
   22          4.804000000000        -3.389140519729
 P 22
    1       1890.000000000000         0.002938308459
    2        447.800000000000         0.025199827413
    3        144.600000000000         0.132335663337
    4         54.460000000000         0.492459103635
    5         22.510000000000         1.286804994117
    6          9.774000000000         2.219692680815
    7          4.368000000000         2.171909428719
    8          1.959000000000         0.766031557573
    9       1890.000000000000        -0.003572270961
   10        447.800000000000        -0.030579481153
   11        144.600000000000        -0.162725183326
   12         54.460000000000        -0.614349931239
   13         22.510000000000        -1.670174239501
   14          9.774000000000        -2.969813764828
   15          4.368000000000        -3.180940038761
   16          1.959000000000         1.669703469327
   17          0.826000000000        -1.304167970421
   18          0.329700000000         0.563287427106
   19          0.124200000000        -0.166302844189
   20         23.627000000000        -1.782989886093
   21         10.654000000000         5.046577249269
   22          4.804000000000        -2.814954724354
 P 22
    1       1890.000000000000        -0.006802388182
    2        447.800000000000        -0.058339350887
    3        144.600000000000        -0.306366252905
    4         54.460000000000        -1.140077032034
    5         22.510000000000        -2.979042945234
    6          9.774000000000        -5.138742740043
    7          4.368000000000        -5.028121192328
    8          1.959000000000        -1.773416265749
    9       1890.000000000000        -0.002554016923
   10        447.800000000000        -0.021862986659
   11        144.600000000000        -0.116341362836
   12         54.460000000000        -0.439233232359
   13         22.510000000000        -1.194101264631
   14          9.774000000000        -2.123286474207
   15          4.368000000000        -2.274232492136
   16          1.959000000000         1.193764684623
   17          0.826000000000         0.404717156661
   18          0.329700000000        -0.184054845962
   19          0.124200000000         0.055051371605
   20         23.627000000000         7.202943119690
   21         10.654000000000         3.332322782164
   22          4.804000000000        10.067185288696
 D 6
    1          0.311000000000         0.030621802890
    2          0.763000000000        -0.072545959921
    3          1.873000000000         0.570385553998
    4         37.364000000000         0.031947788309
    5         15.013000000000         0.083264666959
    6          6.032000000000         0.534028685306
 D 6
    1          0.311000000000         0.028109082074
    2          0.763000000000        -0.963772799715
    3          1.873000000000        -0.026428123347
    4         37.364000000000         0.025770149142
    5         15.013000000000         0.068584075773
    6          6.032000000000         0.459978662446
 D 6
    1          0.311000000000         1.228556758840
    2          0.763000000000        -0.554587802016
    3          1.873000000000        -0.389692771900
    4         37.364000000000         0.020585284070
    5         15.013000000000         0.050475432099
    6          6.032000000000         0.376691792713
 D 6
    1          0.311000000000        -1.051634326858
    2          0.763000000000         2.029679928719
    3          1.873000000000        -1.856407679950
    4         37.364000000000         0.043605281180
    5         15.013000000000         0.092480438517
    6          6.032000000000         0.814542459374
 D 6
    1          0.311000000000         0.228151568335
    2          0.763000000000        -0.630751417665
    3          1.873000000000         1.018198451751
    4         37.364000000000        -0.047327976953
    5         15.013000000000         1.578078264275
    6          6.032000000000        -1.674761789029
 D 6
    1          0.311000000000        -0.088767206791
    2          0.763000000000         0.250336086812
    3          1.873000000000        -0.429833391954
    4         37.364000000000         1.605988909227
    5         15.013000000000        -1.738167223229
    6          6.032000000000         0.945038032581
 F 4
    1          0.543000000000         0.086873497976
    2          1.325000000000         0.906713161473
    3         21.884000000000        -0.011195167805
    4          7.968000000000         0.138737497953
 F 4
    1          0.543000000000        -1.282039328713
    2          1.325000000000         0.838708211013
    3         21.884000000000        -0.009826246125
    4          7.968000000000         0.133144120200
 F 4
    1          0.543000000000         0.315513195796
    2          1.325000000000        -0.545237840302
    3         21.884000000000        -0.054521192262
    4          7.968000000000         1.043199887316
 F 4
    1          0.543000000000        -0.076953552645
    2          1.325000000000         0.152633971567
    3         21.884000000000         1.231289736516
    4          7.968000000000        -0.691561804940
 G 2
    1          1.007000000000         0.999941239081
    2         17.243000000000         0.003831807198
 G 2
    1          1.007000000000        -0.017252046929
    2         17.243000000000         1.000082712576
 end
  // -----------------------------------------------
  // The basis set
  // -----------------------------------------------
  BAS[ATNO] = new BFNGauss[NSH];
  // Basis function   1 L = s
  InitBFNGauss(BAS[ATNO][  0]);
  BAS[ATNO][  0].l  = 0;
  BAS[ATNO][  0].ng = 45;
  BAS[ATNO][  0].a[  0] =    950600.000000000000;     BAS[ATNO][  0].d[  0] =         0.000023011732;
  BAS[ATNO][  0].a[  1] =    142300.000000000000;     BAS[ATNO][  0].d[  1] =         0.000178945303;
  BAS[ATNO][  0].a[  2] =     32360.000000000000;     BAS[ATNO][  0].d[  2] =         0.000941809827;
  BAS[ATNO][  0].a[  3] =      9145.000000000000;     BAS[ATNO][  0].d[  3] =         0.003973011490;
  BAS[ATNO][  0].a[  4] =      2970.000000000000;     BAS[ATNO][  0].d[  4] =         0.014366998532;
  BAS[ATNO][  0].a[  5] =      1064.000000000000;     BAS[ATNO][  0].d[  5] =         0.045317977673;
  BAS[ATNO][  0].a[  6] =       410.800000000000;     BAS[ATNO][  0].d[  6] =         0.122368875252;
  BAS[ATNO][  0].a[  7] =       168.000000000000;     BAS[ATNO][  0].d[  7] =         0.263524757186;
  BAS[ATNO][  0].a[  8] =        71.990000000000;     BAS[ATNO][  0].d[  8] =         0.385675190631;
  BAS[ATNO][  0].a[  9] =        31.670000000000;     BAS[ATNO][  0].d[  9] =         0.279178742029;
  BAS[ATNO][  0].a[ 10] =        12.890000000000;     BAS[ATNO][  0].d[ 10] =         0.051088987720;
  BAS[ATNO][  0].a[ 11] =         5.929000000000;     BAS[ATNO][  0].d[ 11] =        -0.003639341630;
  BAS[ATNO][  0].a[ 12] =         2.678000000000;     BAS[ATNO][  0].d[ 12] =         0.002212714372;
  BAS[ATNO][  0].a[ 13] =    950600.000000000000;     BAS[ATNO][  0].d[ 13] =        -0.000000137621;
  BAS[ATNO][  0].a[ 14] =    142300.000000000000;     BAS[ATNO][  0].d[ 14] =        -0.000001069846;
  BAS[ATNO][  0].a[ 15] =     32360.000000000000;     BAS[ATNO][  0].d[ 15] =        -0.000005639529;
  BAS[ATNO][  0].a[ 16] =      9145.000000000000;     BAS[ATNO][  0].d[ 16] =        -0.000023830270;
  BAS[ATNO][  0].a[ 17] =      2970.000000000000;     BAS[ATNO][  0].d[ 17] =        -0.000086950512;
  BAS[ATNO][  0].a[ 18] =      1064.000000000000;     BAS[ATNO][  0].d[ 18] =        -0.000279450625;
  BAS[ATNO][  0].a[ 19] =       410.800000000000;     BAS[ATNO][  0].d[ 19] =        -0.000794069036;
  BAS[ATNO][  0].a[ 20] =       168.000000000000;     BAS[ATNO][  0].d[ 20] =        -0.001905461140;
  BAS[ATNO][  0].a[ 21] =        71.990000000000;     BAS[ATNO][  0].d[ 21] =        -0.003579044878;
  BAS[ATNO][  0].a[ 22] =        31.670000000000;     BAS[ATNO][  0].d[ 22] =        -0.003824812179;
  BAS[ATNO][  0].a[ 23] =        12.890000000000;     BAS[ATNO][  0].d[ 23] =         0.002192589331;
  BAS[ATNO][  0].a[ 24] =         5.929000000000;     BAS[ATNO][  0].d[ 24] =         0.011982327228;
  BAS[ATNO][  0].a[ 25] =         2.678000000000;     BAS[ATNO][  0].d[ 25] =         0.009591207328;
  BAS[ATNO][  0].a[ 26] =    950600.000000000000;     BAS[ATNO][  0].d[ 26] =         0.000000064311;
  BAS[ATNO][  0].a[ 27] =    142300.000000000000;     BAS[ATNO][  0].d[ 27] =         0.000000499220;
  BAS[ATNO][  0].a[ 28] =     32360.000000000000;     BAS[ATNO][  0].d[ 28] =         0.000002637294;
  BAS[ATNO][  0].a[ 29] =      9145.000000000000;     BAS[ATNO][  0].d[ 29] =         0.000011116256;
  BAS[ATNO][  0].a[ 30] =      2970.000000000000;     BAS[ATNO][  0].d[ 30] =         0.000040731768;
  BAS[ATNO][  0].a[ 31] =      1064.000000000000;     BAS[ATNO][  0].d[ 31] =         0.000130609583;
  BAS[ATNO][  0].a[ 32] =       410.800000000000;     BAS[ATNO][  0].d[ 32] =         0.000374894841;
  BAS[ATNO][  0].a[ 33] =       168.000000000000;     BAS[ATNO][  0].d[ 33] =         0.000903485459;
  BAS[ATNO][  0].a[ 34] =        71.990000000000;     BAS[ATNO][  0].d[ 34] =         0.001758179114;
  BAS[ATNO][  0].a[ 35] =        31.670000000000;     BAS[ATNO][  0].d[ 35] =         0.001933504969;
  BAS[ATNO][  0].a[ 36] =        12.890000000000;     BAS[ATNO][  0].d[ 36] =        -0.001152199537;
  BAS[ATNO][  0].a[ 37] =         5.929000000000;     BAS[ATNO][  0].d[ 37] =        -0.008765274301;
  BAS[ATNO][  0].a[ 38] =         2.678000000000;     BAS[ATNO][  0].d[ 38] =        -0.011548507809;
  BAS[ATNO][  0].a[ 39] =         0.941600000000;     BAS[ATNO][  0].d[ 39] =         0.000019647245;
  BAS[ATNO][  0].a[ 40] =         0.423900000000;     BAS[ATNO][  0].d[ 40] =        -0.000033100715;
  BAS[ATNO][  0].a[ 41] =         0.171400000000;     BAS[ATNO][  0].d[ 41] =         0.000011578889;
  BAS[ATNO][  0].a[ 42] =        24.024000000000;     BAS[ATNO][  0].d[ 42] =         0.001375308430;
  BAS[ATNO][  0].a[ 43] =        12.706000000000;     BAS[ATNO][  0].d[ 43] =        -0.013031451453;
  BAS[ATNO][  0].a[ 44] =         6.720000000000;     BAS[ATNO][  0].d[ 44] =        -0.002147125986;

  // Basis function   2 L = s
  InitBFNGauss(BAS[ATNO][  1]);
  BAS[ATNO][  1].l  = 0;
  BAS[ATNO][  1].ng = 45;
  BAS[ATNO][  1].a[  0] =    950600.000000000000;     BAS[ATNO][  1].d[  0] =         0.000001497133;
  BAS[ATNO][  1].a[  1] =    142300.000000000000;     BAS[ATNO][  1].d[  1] =         0.000011642100;
  BAS[ATNO][  1].a[  2] =     32360.000000000000;     BAS[ATNO][  1].d[  2] =         0.000061273721;
  BAS[ATNO][  1].a[  3] =      9145.000000000000;     BAS[ATNO][  1].d[  3] =         0.000258482327;
  BAS[ATNO][  1].a[  4] =      2970.000000000000;     BAS[ATNO][  1].d[  4] =         0.000934710413;
  BAS[ATNO][  1].a[  5] =      1064.000000000000;     BAS[ATNO][  1].d[  5] =         0.002948367090;
  BAS[ATNO][  1].a[  6] =       410.800000000000;     BAS[ATNO][  1].d[  6] =         0.007961263567;
  BAS[ATNO][  1].a[  7] =       168.000000000000;     BAS[ATNO][  1].d[  7] =         0.017144801275;
  BAS[ATNO][  1].a[  8] =        71.990000000000;     BAS[ATNO][  1].d[  8] =         0.025091853117;
  BAS[ATNO][  1].a[  9] =        31.670000000000;     BAS[ATNO][  1].d[  9] =         0.018163242434;
  BAS[ATNO][  1].a[ 10] =        12.890000000000;     BAS[ATNO][  1].d[ 10] =         0.003323826388;
  BAS[ATNO][  1].a[ 11] =         5.929000000000;     BAS[ATNO][  1].d[ 11] =        -0.000236773917;
  BAS[ATNO][  1].a[ 12] =         2.678000000000;     BAS[ATNO][  1].d[ 12] =         0.000143958194;
  BAS[ATNO][  1].a[ 13] =    950600.000000000000;     BAS[ATNO][  1].d[ 13] =        -0.000013317197;
  BAS[ATNO][  1].a[ 14] =    142300.000000000000;     BAS[ATNO][  1].d[ 14] =        -0.000103525850;
  BAS[ATNO][  1].a[ 15] =     32360.000000000000;     BAS[ATNO][  1].d[ 15] =        -0.000545720660;
  BAS[ATNO][  1].a[ 16] =      9145.000000000000;     BAS[ATNO][  1].d[ 16] =        -0.002305985306;
  BAS[ATNO][  1].a[ 17] =      2970.000000000000;     BAS[ATNO][  1].d[ 17] =        -0.008413945725;
  BAS[ATNO][  1].a[ 18] =      1064.000000000000;     BAS[ATNO][  1].d[ 18] =        -0.027041616511;
  BAS[ATNO][  1].a[ 19] =       410.800000000000;     BAS[ATNO][  1].d[ 19] =        -0.076839729332;
  BAS[ATNO][  1].a[ 20] =       168.000000000000;     BAS[ATNO][  1].d[ 20] =        -0.184385880278;
  BAS[ATNO][  1].a[ 21] =        71.990000000000;     BAS[ATNO][  1].d[ 21] =        -0.346333665183;
  BAS[ATNO][  1].a[ 22] =        31.670000000000;     BAS[ATNO][  1].d[ 22] =        -0.370115845293;
  BAS[ATNO][  1].a[ 23] =        12.890000000000;     BAS[ATNO][  1].d[ 23] =         0.212170432311;
  BAS[ATNO][  1].a[ 24] =         5.929000000000;     BAS[ATNO][  1].d[ 24] =         1.159494626975;
  BAS[ATNO][  1].a[ 25] =         2.678000000000;     BAS[ATNO][  1].d[ 25] =         0.928112974302;
  BAS[ATNO][  1].a[ 26] =    950600.000000000000;     BAS[ATNO][  1].d[ 26] =         0.000004060959;
  BAS[ATNO][  1].a[ 27] =    142300.000000000000;     BAS[ATNO][  1].d[ 27] =         0.000031523579;
  BAS[ATNO][  1].a[ 28] =     32360.000000000000;     BAS[ATNO][  1].d[ 28] =         0.000166533673;
  BAS[ATNO][  1].a[ 29] =      9145.000000000000;     BAS[ATNO][  1].d[ 29] =         0.000701943320;
  BAS[ATNO][  1].a[ 30] =      2970.000000000000;     BAS[ATNO][  1].d[ 30] =         0.002572034288;
  BAS[ATNO][  1].a[ 31] =      1064.000000000000;     BAS[ATNO][  1].d[ 31] =         0.008247428037;
  BAS[ATNO][  1].a[ 32] =       410.800000000000;     BAS[ATNO][  1].d[ 32] =         0.023672981396;
  BAS[ATNO][  1].a[ 33] =       168.000000000000;     BAS[ATNO][  1].d[ 33] =         0.057051183752;
  BAS[ATNO][  1].a[ 34] =        71.990000000000;     BAS[ATNO][  1].d[ 34] =         0.111021376879;
  BAS[ATNO][  1].a[ 35] =        31.670000000000;     BAS[ATNO][  1].d[ 35] =         0.122092443389;
  BAS[ATNO][  1].a[ 36] =        12.890000000000;     BAS[ATNO][  1].d[ 36] =        -0.072756397806;
  BAS[ATNO][  1].a[ 37] =         5.929000000000;     BAS[ATNO][  1].d[ 37] =        -0.553489012605;
  BAS[ATNO][  1].a[ 38] =         2.678000000000;     BAS[ATNO][  1].d[ 38] =        -0.729238123656;
  BAS[ATNO][  1].a[ 39] =         0.941600000000;     BAS[ATNO][  1].d[ 39] =        -0.013321396123;
  BAS[ATNO][  1].a[ 40] =         0.423900000000;     BAS[ATNO][  1].d[ 40] =         0.006385556052;
  BAS[ATNO][  1].a[ 41] =         0.171400000000;     BAS[ATNO][  1].d[ 41] =        -0.001573459562;
  BAS[ATNO][  1].a[ 42] =        24.024000000000;     BAS[ATNO][  1].d[ 42] =         0.015400202743;
  BAS[ATNO][  1].a[ 43] =        12.706000000000;     BAS[ATNO][  1].d[ 43] =         0.111155047311;
  BAS[ATNO][  1].a[ 44] =         6.720000000000;     BAS[ATNO][  1].d[ 44] =         0.140900998151;

  // Basis function   3 L = s
  InitBFNGauss(BAS[ATNO][  2]);
  BAS[ATNO][  2].l  = 0;
  BAS[ATNO][  2].ng = 45;
  BAS[ATNO][  2].a[  0] =    950600.000000000000;     BAS[ATNO][  2].d[  0] =        -0.000004112592;
  BAS[ATNO][  2].a[  1] =    142300.000000000000;     BAS[ATNO][  2].d[  1] =        -0.000031980600;
  BAS[ATNO][  2].a[  2] =     32360.000000000000;     BAS[ATNO][  2].d[  2] =        -0.000168317598;
  BAS[ATNO][  2].a[  3] =      9145.000000000000;     BAS[ATNO][  2].d[  3] =        -0.000710045415;
  BAS[ATNO][  2].a[  4] =      2970.000000000000;     BAS[ATNO][  2].d[  4] =        -0.002567629481;
  BAS[ATNO][  2].a[  5] =      1064.000000000000;     BAS[ATNO][  2].d[  5] =        -0.008099101230;
  BAS[ATNO][  2].a[  6] =       410.800000000000;     BAS[ATNO][  2].d[  6] =        -0.021869420459;
  BAS[ATNO][  2].a[  7] =       168.000000000000;     BAS[ATNO][  2].d[  7] =        -0.047096401796;
  BAS[ATNO][  2].a[  8] =        71.990000000000;     BAS[ATNO][  2].d[  8] =        -0.068926782950;
  BAS[ATNO][  2].a[  9] =        31.670000000000;     BAS[ATNO][  2].d[  9] =        -0.049894037842;
  BAS[ATNO][  2].a[ 10] =        12.890000000000;     BAS[ATNO][  2].d[ 10] =        -0.009130479879;
  BAS[ATNO][  2].a[ 11] =         5.929000000000;     BAS[ATNO][  2].d[ 11] =         0.000650412878;
  BAS[ATNO][  2].a[ 12] =         2.678000000000;     BAS[ATNO][  2].d[ 12] =        -0.000395450075;
  BAS[ATNO][  2].a[ 13] =    950600.000000000000;     BAS[ATNO][  2].d[ 13] =         0.000018828394;
  BAS[ATNO][  2].a[ 14] =    142300.000000000000;     BAS[ATNO][  2].d[ 14] =         0.000146369058;
  BAS[ATNO][  2].a[ 15] =     32360.000000000000;     BAS[ATNO][  2].d[ 15] =         0.000771562074;
  BAS[ATNO][  2].a[ 16] =      9145.000000000000;     BAS[ATNO][  2].d[ 16] =         0.003260295851;
  BAS[ATNO][  2].a[ 17] =      2970.000000000000;     BAS[ATNO][  2].d[ 17] =         0.011895978810;
  BAS[ATNO][  2].a[ 18] =      1064.000000000000;     BAS[ATNO][  2].d[ 18] =         0.038232537685;
  BAS[ATNO][  2].a[ 19] =       410.800000000000;     BAS[ATNO][  2].d[ 19] =         0.108639135764;
  BAS[ATNO][  2].a[ 20] =       168.000000000000;     BAS[ATNO][  2].d[ 20] =         0.260692259780;
  BAS[ATNO][  2].a[ 21] =        71.990000000000;     BAS[ATNO][  2].d[ 21] =         0.489660627367;
  BAS[ATNO][  2].a[ 22] =        31.670000000000;     BAS[ATNO][  2].d[ 22] =         0.523284841250;
  BAS[ATNO][  2].a[ 23] =        12.890000000000;     BAS[ATNO][  2].d[ 23] =        -0.299975189935;
  BAS[ATNO][  2].a[ 24] =         5.929000000000;     BAS[ATNO][  2].d[ 24] =        -1.639340680827;
  BAS[ATNO][  2].a[ 25] =         2.678000000000;     BAS[ATNO][  2].d[ 25] =        -1.312203885882;
  BAS[ATNO][  2].a[ 26] =    950600.000000000000;     BAS[ATNO][  2].d[ 26] =        -0.000010755272;
  BAS[ATNO][  2].a[ 27] =    142300.000000000000;     BAS[ATNO][  2].d[ 27] =        -0.000083488826;
  BAS[ATNO][  2].a[ 28] =     32360.000000000000;     BAS[ATNO][  2].d[ 28] =        -0.000441057187;
  BAS[ATNO][  2].a[ 29] =      9145.000000000000;     BAS[ATNO][  2].d[ 29] =        -0.001859066342;
  BAS[ATNO][  2].a[ 30] =      2970.000000000000;     BAS[ATNO][  2].d[ 30] =        -0.006811920903;
  BAS[ATNO][  2].a[ 31] =      1064.000000000000;     BAS[ATNO][  2].d[ 31] =        -0.021842954313;
  BAS[ATNO][  2].a[ 32] =       410.800000000000;     BAS[ATNO][  2].d[ 32] =        -0.062696861224;
  BAS[ATNO][  2].a[ 33] =       168.000000000000;     BAS[ATNO][  2].d[ 33] =        -0.151097577889;
  BAS[ATNO][  2].a[ 34] =        71.990000000000;     BAS[ATNO][  2].d[ 34] =        -0.294035286159;
  BAS[ATNO][  2].a[ 35] =        31.670000000000;     BAS[ATNO][  2].d[ 35] =        -0.323356524113;
  BAS[ATNO][  2].a[ 36] =        12.890000000000;     BAS[ATNO][  2].d[ 36] =         0.192692153983;
  BAS[ATNO][  2].a[ 37] =         5.929000000000;     BAS[ATNO][  2].d[ 37] =         1.465891567752;
  BAS[ATNO][  2].a[ 38] =         2.678000000000;     BAS[ATNO][  2].d[ 38] =         1.931355441583;
  BAS[ATNO][  2].a[ 39] =         0.941600000000;     BAS[ATNO][  2].d[ 39] =         1.080490170484;
  BAS[ATNO][  2].a[ 40] =         0.423900000000;     BAS[ATNO][  2].d[ 40] =        -0.259373206722;
  BAS[ATNO][  2].a[ 41] =         0.171400000000;     BAS[ATNO][  2].d[ 41] =         0.061083338062;
  BAS[ATNO][  2].a[ 42] =        24.024000000000;     BAS[ATNO][  2].d[ 42] =        -0.074307119901;
  BAS[ATNO][  2].a[ 43] =        12.706000000000;     BAS[ATNO][  2].d[ 43] =         0.115615918970;
  BAS[ATNO][  2].a[ 44] =         6.720000000000;     BAS[ATNO][  2].d[ 44] =        -1.049685888533;

  // Basis function   4 L = s
  InitBFNGauss(BAS[ATNO][  3]);
  BAS[ATNO][  3].l  = 0;
  BAS[ATNO][  3].ng = 45;
  BAS[ATNO][  3].a[  0] =    950600.000000000000;     BAS[ATNO][  3].d[  0] =        -0.000005502586;
  BAS[ATNO][  3].a[  1] =    142300.000000000000;     BAS[ATNO][  3].d[  1] =        -0.000042789564;
  BAS[ATNO][  3].a[  2] =     32360.000000000000;     BAS[ATNO][  3].d[  2] =        -0.000225206422;
  BAS[ATNO][  3].a[  3] =      9145.000000000000;     BAS[ATNO][  3].d[  3] =        -0.000950030118;
[...]
  BAS[ATNO][ 13].a[  1] =       447.800000000000;     BAS[ATNO][ 13].d[  1] =         0.004612366463;
  BAS[ATNO][ 13].a[  2] =       144.600000000000;     BAS[ATNO][ 13].d[  2] =         0.024221617293;
  BAS[ATNO][ 13].a[  3] =        54.460000000000;     BAS[ATNO][ 13].d[  3] =         0.090135611520;
  BAS[ATNO][ 13].a[  4] =        22.510000000000;     BAS[ATNO][ 13].d[  4] =         0.235526065404;
  BAS[ATNO][ 13].a[  5] =         9.774000000000;     BAS[ATNO][ 13].d[  5] =         0.406274055439;
  BAS[ATNO][ 13].a[  6] =         4.368000000000;     BAS[ATNO][ 13].d[  6] =         0.397528207071;
  BAS[ATNO][ 13].a[  7] =         1.959000000000;     BAS[ATNO][ 13].d[  7] =         0.140208034283;
  BAS[ATNO][ 13].a[  8] =      1890.000000000000;     BAS[ATNO][ 13].d[  8] =        -0.000660090566;
  BAS[ATNO][ 13].a[  9] =       447.800000000000;     BAS[ATNO][ 13].d[  9] =        -0.005650530784;
  BAS[ATNO][ 13].a[ 10] =       144.600000000000;     BAS[ATNO][ 13].d[ 10] =        -0.030068648092;
  BAS[ATNO][ 13].a[ 11] =        54.460000000000;     BAS[ATNO][ 13].d[ 11] =        -0.113520670313;
  BAS[ATNO][ 13].a[ 12] =        22.510000000000;     BAS[ATNO][ 13].d[ 12] =        -0.308617759303;
  BAS[ATNO][ 13].a[ 13] =         9.774000000000;     BAS[ATNO][ 13].d[ 13] =        -0.548767456695;
  BAS[ATNO][ 13].a[ 14] =         4.368000000000;     BAS[ATNO][ 13].d[ 14] =        -0.587779744185;
  BAS[ATNO][ 13].a[ 15] =         1.959000000000;     BAS[ATNO][ 13].d[ 15] =         0.308530769555;
  BAS[ATNO][ 13].a[ 16] =         0.826000000000;     BAS[ATNO][ 13].d[ 16] =        -1.656037376959;
  BAS[ATNO][ 13].a[ 17] =         0.329700000000;     BAS[ATNO][ 13].d[ 17] =         2.438055986044;
  BAS[ATNO][ 13].a[ 18] =         0.124200000000;     BAS[ATNO][ 13].d[ 18] =        -1.813788877412;
  BAS[ATNO][ 13].a[ 19] =        23.627000000000;     BAS[ATNO][ 13].d[ 19] =         0.018357668517;
  BAS[ATNO][ 13].a[ 20] =        10.654000000000;     BAS[ATNO][ 13].d[ 20] =        -0.039760346318;
  BAS[ATNO][ 13].a[ 21] =         4.804000000000;     BAS[ATNO][ 13].d[ 21] =         0.484346913603;

  // Basis function  15 L = p
  InitBFNGauss(BAS[ATNO][ 14]);
  BAS[ATNO][ 14].l  = 1;
  BAS[ATNO][ 14].ng = 22;
  BAS[ATNO][ 14].a[  0] =      1890.000000000000;     BAS[ATNO][ 14].d[  0] =        -0.006332791756;
  BAS[ATNO][ 14].a[  1] =       447.800000000000;     BAS[ATNO][ 14].d[  1] =        -0.054311949048;
  BAS[ATNO][ 14].a[  2] =       144.600000000000;     BAS[ATNO][ 14].d[  2] =        -0.285216548776;
  BAS[ATNO][ 14].a[  3] =        54.460000000000;     BAS[ATNO][ 14].d[  3] =        -1.061372893823;
  BAS[ATNO][ 14].a[  4] =        22.510000000000;     BAS[ATNO][ 14].d[  4] =        -2.773387536774;
  BAS[ATNO][ 14].a[  5] =         9.774000000000;     BAS[ATNO][ 14].d[  5] =        -4.783994501564;
  BAS[ATNO][ 14].a[  6] =         4.368000000000;     BAS[ATNO][ 14].d[  6] =        -4.681009607633;
  BAS[ATNO][ 14].a[  7] =         1.959000000000;     BAS[ATNO][ 14].d[  7] =        -1.650990153334;
  BAS[ATNO][ 14].a[  8] =      1890.000000000000;     BAS[ATNO][ 14].d[  8] =         0.005548306094;
  BAS[ATNO][ 14].a[  9] =       447.800000000000;     BAS[ATNO][ 14].d[  9] =         0.047494807499;
  BAS[ATNO][ 14].a[ 10] =       144.600000000000;     BAS[ATNO][ 14].d[ 10] =         0.252738142236;
  BAS[ATNO][ 14].a[ 11] =        54.460000000000;     BAS[ATNO][ 14].d[ 11] =         0.954183348461;
  BAS[ATNO][ 14].a[ 12] =        22.510000000000;     BAS[ATNO][ 14].d[ 12] =         2.594046759549;
  BAS[ATNO][ 14].a[ 13] =         9.774000000000;     BAS[ATNO][ 14].d[ 13] =         4.612594058101;
  BAS[ATNO][ 14].a[ 14] =         4.368000000000;     BAS[ATNO][ 14].d[ 14] =         4.940506807442;
  BAS[ATNO][ 14].a[ 15] =         1.959000000000;     BAS[ATNO][ 14].d[ 15] =        -2.593315578446;
  BAS[ATNO][ 14].a[ 16] =         0.826000000000;     BAS[ATNO][ 14].d[ 16] =         3.205451299469;
  BAS[ATNO][ 14].a[ 17] =         0.329700000000;     BAS[ATNO][ 14].d[ 17] =        -1.668265952949;
  BAS[ATNO][ 14].a[ 18] =         0.124200000000;     BAS[ATNO][ 14].d[ 18] =         0.547896024655;
  BAS[ATNO][ 14].a[ 19] =        23.627000000000;     BAS[ATNO][ 14].d[ 19] =         0.057980914543;
  BAS[ATNO][ 14].a[ 20] =        10.654000000000;     BAS[ATNO][ 14].d[ 20] =        -1.173631782787;
  BAS[ATNO][ 14].a[ 21] =         4.804000000000;     BAS[ATNO][ 14].d[ 21] =         3.389140519729;

  // Basis function  16 L = p
  InitBFNGauss(BAS[ATNO][ 15]);
  BAS[ATNO][ 15].l  = 1;
  BAS[ATNO][ 15].ng = 22;
  BAS[ATNO][ 15].a[  0] =      1890.000000000000;     BAS[ATNO][ 15].d[  0] =         0.002938308459;
  BAS[ATNO][ 15].a[  1] =       447.800000000000;     BAS[ATNO][ 15].d[  1] =         0.025199827413;
  BAS[ATNO][ 15].a[  2] =       144.600000000000;     BAS[ATNO][ 15].d[  2] =         0.132335663337;
  BAS[ATNO][ 15].a[  3] =        54.460000000000;     BAS[ATNO][ 15].d[  3] =         0.492459103635;
  BAS[ATNO][ 15].a[  4] =        22.510000000000;     BAS[ATNO][ 15].d[  4] =         1.286804994117;
  BAS[ATNO][ 15].a[  5] =         9.774000000000;     BAS[ATNO][ 15].d[  5] =         2.219692680815;
  BAS[ATNO][ 15].a[  6] =         4.368000000000;     BAS[ATNO][ 15].d[  6] =         2.171909428719;
  BAS[ATNO][ 15].a[  7] =         1.959000000000;     BAS[ATNO][ 15].d[  7] =         0.766031557573;
  BAS[ATNO][ 15].a[  8] =      1890.000000000000;     BAS[ATNO][ 15].d[  8] =        -0.003572270961;
  BAS[ATNO][ 15].a[  9] =       447.800000000000;     BAS[ATNO][ 15].d[  9] =        -0.030579481153;
  BAS[ATNO][ 15].a[ 10] =       144.600000000000;     BAS[ATNO][ 15].d[ 10] =        -0.162725183326;
  BAS[ATNO][ 15].a[ 11] =        54.460000000000;     BAS[ATNO][ 15].d[ 11] =        -0.614349931239;
  BAS[ATNO][ 15].a[ 12] =        22.510000000000;     BAS[ATNO][ 15].d[ 12] =        -1.670174239501;
  BAS[ATNO][ 15].a[ 13] =         9.774000000000;     BAS[ATNO][ 15].d[ 13] =        -2.969813764828;
  BAS[ATNO][ 15].a[ 14] =         4.368000000000;     BAS[ATNO][ 15].d[ 14] =        -3.180940038761;
  BAS[ATNO][ 15].a[ 15] =         1.959000000000;     BAS[ATNO][ 15].d[ 15] =         1.669703469327;
  BAS[ATNO][ 15].a[ 16] =         0.826000000000;     BAS[ATNO][ 15].d[ 16] =        -1.304167970421;
  BAS[ATNO][ 15].a[ 17] =         0.329700000000;     BAS[ATNO][ 15].d[ 17] =         0.563287427106;
  BAS[ATNO][ 15].a[ 18] =         0.124200000000;     BAS[ATNO][ 15].d[ 18] =        -0.166302844189;
  BAS[ATNO][ 15].a[ 19] =        23.627000000000;     BAS[ATNO][ 15].d[ 19] =        -1.782989886093;
  BAS[ATNO][ 15].a[ 20] =        10.654000000000;     BAS[ATNO][ 15].d[ 20] =         5.046577249269;
  BAS[ATNO][ 15].a[ 21] =         4.804000000000;     BAS[ATNO][ 15].d[ 21] =        -2.814954724354;

  // Basis function  17 L = p
  InitBFNGauss(BAS[ATNO][ 16]);
  BAS[ATNO][ 16].l  = 1;
  BAS[ATNO][ 16].ng = 22;
  BAS[ATNO][ 16].a[  0] =      1890.000000000000;     BAS[ATNO][ 16].d[  0] =        -0.006802388182;
  BAS[ATNO][ 16].a[  1] =       447.800000000000;     BAS[ATNO][ 16].d[  1] =        -0.058339350887;
  BAS[ATNO][ 16].a[  2] =       144.600000000000;     BAS[ATNO][ 16].d[  2] =        -0.306366252905;
  BAS[ATNO][ 16].a[  3] =        54.460000000000;     BAS[ATNO][ 16].d[  3] =        -1.140077032034;
  BAS[ATNO][ 16].a[  4] =        22.510000000000;     BAS[ATNO][ 16].d[  4] =        -2.979042945234;
  BAS[ATNO][ 16].a[  5] =         9.774000000000;     BAS[ATNO][ 16].d[  5] =        -5.138742740043;
  BAS[ATNO][ 16].a[  6] =         4.368000000000;     BAS[ATNO][ 16].d[  6] =        -5.028121192328;
  BAS[ATNO][ 16].a[  7] =         1.959000000000;     BAS[ATNO][ 16].d[  7] =        -1.773416265749;
  BAS[ATNO][ 16].a[  8] =      1890.000000000000;     BAS[ATNO][ 16].d[  8] =        -0.002554016923;
  BAS[ATNO][ 16].a[  9] =       447.800000000000;     BAS[ATNO][ 16].d[  9] =        -0.021862986659;
  BAS[ATNO][ 16].a[ 10] =       144.600000000000;     BAS[ATNO][ 16].d[ 10] =        -0.116341362836;
  BAS[ATNO][ 16].a[ 11] =        54.460000000000;     BAS[ATNO][ 16].d[ 11] =        -0.439233232359;
  BAS[ATNO][ 16].a[ 12] =        22.510000000000;     BAS[ATNO][ 16].d[ 12] =        -1.194101264631;
  BAS[ATNO][ 16].a[ 13] =         9.774000000000;     BAS[ATNO][ 16].d[ 13] =        -2.123286474207;
  BAS[ATNO][ 16].a[ 14] =         4.368000000000;     BAS[ATNO][ 16].d[ 14] =        -2.274232492136;
  BAS[ATNO][ 16].a[ 15] =         1.959000000000;     BAS[ATNO][ 16].d[ 15] =         1.193764684623;
  BAS[ATNO][ 16].a[ 16] =         0.826000000000;     BAS[ATNO][ 16].d[ 16] =         0.404717156661;
  BAS[ATNO][ 16].a[ 17] =         0.329700000000;     BAS[ATNO][ 16].d[ 17] =        -0.184054845962;
  BAS[ATNO][ 16].a[ 18] =         0.124200000000;     BAS[ATNO][ 16].d[ 18] =         0.055051371605;
  BAS[ATNO][ 16].a[ 19] =        23.627000000000;     BAS[ATNO][ 16].d[ 19] =         7.202943119690;
  BAS[ATNO][ 16].a[ 20] =        10.654000000000;     BAS[ATNO][ 16].d[ 20] =         3.332322782164;
  BAS[ATNO][ 16].a[ 21] =         4.804000000000;     BAS[ATNO][ 16].d[ 21] =        10.067185288696;

  // Basis function  18 L = d
  InitBFNGauss(BAS[ATNO][ 17]);
  BAS[ATNO][ 17].l  = 2;
  BAS[ATNO][ 17].ng = 6;
  BAS[ATNO][ 17].a[  0] =         0.311000000000;     BAS[ATNO][ 17].d[  0] =         0.030621802890;
  BAS[ATNO][ 17].a[  1] =         0.763000000000;     BAS[ATNO][ 17].d[  1] =        -0.072545959921;
  BAS[ATNO][ 17].a[  2] =         1.873000000000;     BAS[ATNO][ 17].d[  2] =         0.570385553998;
  BAS[ATNO][ 17].a[  3] =        37.364000000000;     BAS[ATNO][ 17].d[  3] =         0.031947788309;
  BAS[ATNO][ 17].a[  4] =        15.013000000000;     BAS[ATNO][ 17].d[  4] =         0.083264666959;
  BAS[ATNO][ 17].a[  5] =         6.032000000000;     BAS[ATNO][ 17].d[  5] =         0.534028685306;

  // Basis function  19 L = d
  InitBFNGauss(BAS[ATNO][ 18]);
  BAS[ATNO][ 18].l  = 2;
  BAS[ATNO][ 18].ng = 6;
  BAS[ATNO][ 18].a[  0] =         0.311000000000;     BAS[ATNO][ 18].d[  0] =        -0.028109082074;
  BAS[ATNO][ 18].a[  1] =         0.763000000000;     BAS[ATNO][ 18].d[  1] =         0.963772799715;
  BAS[ATNO][ 18].a[  2] =         1.873000000000;     BAS[ATNO][ 18].d[  2] =         0.026428123347;
  BAS[ATNO][ 18].a[  3] =        37.364000000000;     BAS[ATNO][ 18].d[  3] =        -0.025770149142;
  BAS[ATNO][ 18].a[  4] =        15.013000000000;     BAS[ATNO][ 18].d[  4] =        -0.068584075773;
  BAS[ATNO][ 18].a[  5] =         6.032000000000;     BAS[ATNO][ 18].d[  5] =        -0.459978662446;

  // Basis function  20 L = d
  InitBFNGauss(BAS[ATNO][ 19]);
  BAS[ATNO][ 19].l  = 2;
  BAS[ATNO][ 19].ng = 6;
  BAS[ATNO][ 19].a[  0] =         0.311000000000;     BAS[ATNO][ 19].d[  0] =         1.228556758840;
  BAS[ATNO][ 19].a[  1] =         0.763000000000;     BAS[ATNO][ 19].d[  1] =        -0.554587802016;
  BAS[ATNO][ 19].a[  2] =         1.873000000000;     BAS[ATNO][ 19].d[  2] =        -0.389692771900;
  BAS[ATNO][ 19].a[  3] =        37.364000000000;     BAS[ATNO][ 19].d[  3] =         0.020585284070;
  BAS[ATNO][ 19].a[  4] =        15.013000000000;     BAS[ATNO][ 19].d[  4] =         0.050475432099;
  BAS[ATNO][ 19].a[  5] =         6.032000000000;     BAS[ATNO][ 19].d[  5] =         0.376691792713;

  // Basis function  21 L = d
  InitBFNGauss(BAS[ATNO][ 20]);
  BAS[ATNO][ 20].l  = 2;
  BAS[ATNO][ 20].ng = 6;
  BAS[ATNO][ 20].a[  0] =         0.311000000000;     BAS[ATNO][ 20].d[  0] =        -1.051634326858;
  BAS[ATNO][ 20].a[  1] =         0.763000000000;     BAS[ATNO][ 20].d[  1] =         2.029679928719;
  BAS[ATNO][ 20].a[  2] =         1.873000000000;     BAS[ATNO][ 20].d[  2] =        -1.856407679950;
  BAS[ATNO][ 20].a[  3] =        37.364000000000;     BAS[ATNO][ 20].d[  3] =         0.043605281180;
  BAS[ATNO][ 20].a[  4] =        15.013000000000;     BAS[ATNO][ 20].d[  4] =         0.092480438517;
  BAS[ATNO][ 20].a[  5] =         6.032000000000;     BAS[ATNO][ 20].d[  5] =         0.814542459374;

  // Basis function  22 L = d
  InitBFNGauss(BAS[ATNO][ 21]);
  BAS[ATNO][ 21].l  = 2;
  BAS[ATNO][ 21].ng = 6;
  BAS[ATNO][ 21].a[  0] =         0.311000000000;     BAS[ATNO][ 21].d[  0] =        -0.228151568335;
  BAS[ATNO][ 21].a[  1] =         0.763000000000;     BAS[ATNO][ 21].d[  1] =         0.630751417665;
  BAS[ATNO][ 21].a[  2] =         1.873000000000;     BAS[ATNO][ 21].d[  2] =        -1.018198451751;
  BAS[ATNO][ 21].a[  3] =        37.364000000000;     BAS[ATNO][ 21].d[  3] =         0.047327976953;
  BAS[ATNO][ 21].a[  4] =        15.013000000000;     BAS[ATNO][ 21].d[  4] =        -1.578078264275;
  BAS[ATNO][ 21].a[  5] =         6.032000000000;     BAS[ATNO][ 21].d[  5] =         1.674761789029;

  // Basis function  23 L = d
  InitBFNGauss(BAS[ATNO][ 22]);
  BAS[ATNO][ 22].l  = 2;
  BAS[ATNO][ 22].ng = 6;
  BAS[ATNO][ 22].a[  0] =         0.311000000000;     BAS[ATNO][ 22].d[  0] =         0.088767206791;
  BAS[ATNO][ 22].a[  1] =         0.763000000000;     BAS[ATNO][ 22].d[  1] =        -0.250336086812;
  BAS[ATNO][ 22].a[  2] =         1.873000000000;     BAS[ATNO][ 22].d[  2] =         0.429833391954;
  BAS[ATNO][ 22].a[  3] =        37.364000000000;     BAS[ATNO][ 22].d[  3] =        -1.605988909227;
  BAS[ATNO][ 22].a[  4] =        15.013000000000;     BAS[ATNO][ 22].d[  4] =         1.738167223229;
  BAS[ATNO][ 22].a[  5] =         6.032000000000;     BAS[ATNO][ 22].d[  5] =        -0.945038032581;

  // Basis function  24 L = f
  InitBFNGauss(BAS[ATNO][ 23]);
  BAS[ATNO][ 23].l  = 3;
  BAS[ATNO][ 23].ng = 4;
  BAS[ATNO][ 23].a[  0] =         0.543000000000;     BAS[ATNO][ 23].d[  0] =         0.086873497976;
  BAS[ATNO][ 23].a[  1] =         1.325000000000;     BAS[ATNO][ 23].d[  1] =         0.906713161473;
  BAS[ATNO][ 23].a[  2] =        21.884000000000;     BAS[ATNO][ 23].d[  2] =        -0.011195167805;
  BAS[ATNO][ 23].a[  3] =         7.968000000000;     BAS[ATNO][ 23].d[  3] =         0.138737497953;

  // Basis function  25 L = f
  InitBFNGauss(BAS[ATNO][ 24]);
  BAS[ATNO][ 24].l  = 3;
  BAS[ATNO][ 24].ng = 4;
  BAS[ATNO][ 24].a[  0] =         0.543000000000;     BAS[ATNO][ 24].d[  0] =         1.282039328713;
  BAS[ATNO][ 24].a[  1] =         1.325000000000;     BAS[ATNO][ 24].d[  1] =        -0.838708211013;
  BAS[ATNO][ 24].a[  2] =        21.884000000000;     BAS[ATNO][ 24].d[  2] =         0.009826246125;
  BAS[ATNO][ 24].a[  3] =         7.968000000000;     BAS[ATNO][ 24].d[  3] =        -0.133144120200;

  // Basis function  26 L = f
  InitBFNGauss(BAS[ATNO][ 25]);
  BAS[ATNO][ 25].l  = 3;
  BAS[ATNO][ 25].ng = 4;
  BAS[ATNO][ 25].a[  0] =         0.543000000000;     BAS[ATNO][ 25].d[  0] =         0.315513195796;
  BAS[ATNO][ 25].a[  1] =         1.325000000000;     BAS[ATNO][ 25].d[  1] =        -0.545237840302;
  BAS[ATNO][ 25].a[  2] =        21.884000000000;     BAS[ATNO][ 25].d[  2] =        -0.054521192262;
  BAS[ATNO][ 25].a[  3] =         7.968000000000;     BAS[ATNO][ 25].d[  3] =         1.043199887316;

  // Basis function  27 L = f
  InitBFNGauss(BAS[ATNO][ 26]);
  BAS[ATNO][ 26].l  = 3;
  BAS[ATNO][ 26].ng = 4;
  BAS[ATNO][ 26].a[  0] =         0.543000000000;     BAS[ATNO][ 26].d[  0] =        -0.076953552645;
  BAS[ATNO][ 26].a[  1] =         1.325000000000;     BAS[ATNO][ 26].d[  1] =         0.152633971567;
  BAS[ATNO][ 26].a[  2] =        21.884000000000;     BAS[ATNO][ 26].d[  2] =         1.231289736516;
  BAS[ATNO][ 26].a[  3] =         7.968000000000;     BAS[ATNO][ 26].d[  3] =        -0.691561804940;

  // Basis function  28 L = g
  InitBFNGauss(BAS[ATNO][ 27]);
  BAS[ATNO][ 27].l  = 4;
  BAS[ATNO][ 27].ng = 2;
  BAS[ATNO][ 27].a[  0] =         1.007000000000;     BAS[ATNO][ 27].d[  0] =         0.999941239081;
  BAS[ATNO][ 27].a[  1] =        17.243000000000;     BAS[ATNO][ 27].d[  1] =         0.003831807198;

  // Basis function  29 L = g
  InitBFNGauss(BAS[ATNO][ 28]);
  BAS[ATNO][ 28].l  = 4;
  BAS[ATNO][ 28].ng = 2;
  BAS[ATNO][ 28].a[  0] =         1.007000000000;     BAS[ATNO][ 28].d[  0] =        -0.017252046929;
  BAS[ATNO][ 28].a[  1] =        17.243000000000;     BAS[ATNO][ 28].d[  1] =         1.000082712576;

-------
TIMINGS
-------

Total SCF time: 0 days 0 hours 0 min 2 sec 

Total time                  ....       2.492 sec
Sum of individual times     ....       2.272 sec  ( 91.2%)

Fock matrix formation       ....       1.791 sec  ( 71.9%)
  XC integration            ....       0.043 sec  (  2.4% of F)
    Basis function eval.    ....       0.008 sec  ( 18.7% of XC)
    Density eval.           ....       0.004 sec  (  8.5% of XC)
    XC-Functional eval.     ....       0.002 sec  (  4.2% of XC)
    XC-Potential eval.      ....       0.007 sec  ( 16.3% of XC)
Diagonalization             ....       0.008 sec  (  0.3%)
Density matrix formation    ....       0.002 sec  (  0.1%)
Population analysis         ....       0.002 sec  (  0.1%)
Initial guess               ....       0.087 sec  (  3.5%)
Orbital Transformation      ....       0.000 sec  (  0.0%)
Orbital Orthonormalization  ....       0.000 sec  (  0.0%)
DIIS solution               ....       0.001 sec  (  0.0%)
SOSCF solution              ....       0.002 sec  (  0.1%)
Grid generation             ....       0.380 sec  ( 15.2%)

-------------------------   --------------------
FINAL SINGLE POINT ENERGY      -311.701677098178
-------------------------   --------------------


                            ***************************************
                            *     ORCA property calculations      *
                            ***************************************

                                    ---------------------
                                    Active property flags
                                    ---------------------
   (+) Dipole Moment


------------------------------------------------------------------------------
                       ORCA ELECTRIC PROPERTIES CALCULATION
------------------------------------------------------------------------------

Dipole Moment Calculation                       ... on
Quadrupole Moment Calculation                   ... off
Polarizability Calculation                      ... off
GBWName                                         ... Ar_cc-pcvqz_548.143956_.gbw
Electron density file                           ... Ar_cc-pcvqz_548.143956_.scfp
The origin for moment calculation is the CENTER OF MASS  = ( 0.000000,  0.000000  0.000000)

-------------
DIPOLE MOMENT
-------------
                                X             Y             Z
Electronic contribution:     -0.00000      -0.00000       0.00000
Nuclear contribution   :      0.00000       0.00000       0.00000
                        -----------------------------------------
Total Dipole Moment    :     -0.00000      -0.00000       0.00000
                        -----------------------------------------
Magnitude (a.u.)       :      0.00000
Magnitude (Debye)      :      0.00000



--------------------
Rotational spectrum 
--------------------
 
Rotational constants in cm-1:     0.000000     0.000000     0.000000 
Rotational constants in MHz :     0.000000     0.000000     0.000000 

 Dipole components along the rotational axes: 
x,y,z [a.u.] :    -0.000000    -0.000000     0.000000 
x,y,z [Debye]:    -0.000000    -0.000000     0.000000 

 

Timings for individual modules:

Sum of individual times         ...        3.734 sec (=   0.062 min)
GTO integral calculation        ...        0.610 sec (=   0.010 min)  16.3 %
Relativistic integrals          ...        0.373 sec (=   0.006 min)  10.0 %
SCF iterations                  ...        2.751 sec (=   0.046 min)  73.7 %
                             ****ORCA TERMINATED NORMALLY****
TOTAL RUN TIME: 0 days 0 hours 0 minutes 4 seconds 65 msec
