
                                 *****************
                                 * O   R   C   A *
                                 *****************

           --- An Ab Initio, DFT and Semiempirical electronic structure package ---

                  #######################################################
                  #                        -***-                        #
                  #          Department of theory and spectroscopy      #
                  #               Directorship: Frank Neese             #
                  #        Max Planck Institute fuer Kohlenforschung    #
                  #                Kaiser Wilhelm Platz 1               #
                  #                 D-45470 Muelheim/Ruhr               #
                  #                      Germany                        #
                  #                                                     #
                  #                  All rights reserved                #
                  #                        -***-                        #
                  #######################################################


                         Program Version 4.2.1 -  RELEASE  -


 With contributions from (in alphabetic order):
   Daniel Aravena         : Magnetic Suceptibility
   Michael Atanasov       : Ab Initio Ligand Field Theory (pilot matlab implementation)
   Alexander A. Auer      : GIAO ZORA, VPT2
   Ute Becker             : Parallelization
   Giovanni Bistoni       : ED, misc. LED, open-shell LED, HFLD
   Martin Brehm           : Molecular dynamics
   Dmytro Bykov           : SCF Hessian
   Vijay G. Chilkuri      : MRCI spin determinant printing, contributions to CSF-ICE
   Dipayan Datta          : RHF DLPNO-CCSD density
   Achintya Kumar Dutta   : EOM-CC, STEOM-CC
   Dmitry Ganyushin       : Spin-Orbit,Spin-Spin,Magnetic field MRCI
   Miquel Garcia          : C-PCM Hessian, Gaussian charge scheme
   Yang Guo               : DLPNO-NEVPT2, CIM, IAO-localization
   Andreas Hansen         : Spin unrestricted coupled pair/coupled cluster methods
   Benjamin Helmich-Paris : CASSCF linear response (MC-RPA)
   Lee Huntington         : MR-EOM, pCC
   Robert Izsak           : Overlap fitted RIJCOSX, COSX-SCS-MP3, EOM
   Christian Kollmar      : KDIIS, OOCD, Brueckner-CCSD(T), CCSD density
   Simone Kossmann        : Meta GGA functionals, TD-DFT gradient, OOMP2, MP2 Hessian
   Martin Krupicka        : AUTO-CI
   Lucas Lang             : DCDCAS
   Dagmar Lenk            : GEPOL surface, SMD
   Dimitrios Liakos       : Extrapolation schemes; Compound Job, initial MDCI parallelization
   Dimitrios Manganas     : Further ROCIS development; embedding schemes
   Dimitrios Pantazis     : SARC Basis sets
   Taras Petrenko         : DFT Hessian,TD-DFT gradient, ASA, ECA, R-Raman, ABS, FL, XAS/XES, NRVS
   Peter Pinski           : DLPNO-MP2, DLPNO-MP2 Gradient
   Christoph Reimann      : Effective Core Potentials
   Marius Retegan         : Local ZFS, SOC
   Christoph Riplinger    : Optimizer, TS searches, QM/MM, DLPNO-CCSD(T), (RO)-DLPNO pert. Triples
   Tobias Risthaus        : Range-separated hybrids, TD-DFT gradient, RPA, STAB
   Michael Roemelt        : Original ROCIS implementation
   Masaaki Saitow         : Open-shell DLPNO-CCSD energy and density
   Barbara Sandhoefer     : DKH picture change effects
   Avijit Sen             : IP-ROCIS
   Kantharuban Sivalingam : CASSCF convergence, NEVPT2, FIC-MRCI
   Bernardo de Souza      : ESD, SOC TD-DFT
   Georgi Stoychev        : AutoAux, RI-MP2 NMR
   Willem Van den Heuvel  : Paramagnetic NMR
   Boris Wezisla          : Elementary symmetry handling
   Frank Wennmohs         : Technical directorship


 We gratefully acknowledge several colleagues who have allowed us to
 interface, adapt or use parts of their codes:
   Stefan Grimme, W. Hujo, H. Kruse,             : VdW corrections, initial TS optimization,
                  C. Bannwarth                     DFT functionals, gCP, sTDA/sTD-DF
   Ed Valeev, F. Pavosevic, A. Kumar             : LibInt (2-el integral package), F12 methods
   Garnet Chan, S. Sharma, J. Yang, R. Olivares  : DMRG
   Ulf Ekstrom                                   : XCFun DFT Library
   Mihaly Kallay                                 : mrcc  (arbitrary order and MRCC methods)
   Andreas Klamt, Michael Diedenhofen            : otool_cosmo (COSMO solvation model)
   Jiri Pittner, Ondrej Demel                    : Mk-CCSD
   Frank Weinhold                                : gennbo (NPA and NBO analysis)
   Christopher J. Cramer and Donald G. Truhlar   : smd solvation model
   Lars Goerigk                                  : TD-DFT with DH, B97 family of functionals
   V. Asgeirsson, H. Jonsson                     : NEB implementation
   FAccTs GmbH                                   : IRC, NEB, NEB-TS, Multilevel, MM, QM/MM, CI optimization
   S Lehtola, MJT Oliveira, MAL Marques          : LibXC Library


 Your calculation uses the libint2 library for the computation of 2-el integrals
 For citations please refer to: http://libint.valeyev.net

 Your ORCA version has been built with support for libXC version: 4.2.3
 For citations please refer to: https://tddft.org/programs/libxc/

 This ORCA versions uses:
   CBLAS   interface :  Fast vector & matrix operations
   LAPACKE interface :  Fast linear algebra routines
   SCALAPACK package :  Parallel linear algebra routines


----- Orbital basis set information -----
Your calculation utilizes the basis: def2-TZVP
   F. Weigend and R. Ahlrichs, Phys. Chem. Chem. Phys. 7, 3297 (2005).

================================================================================
                                        WARNINGS
                       Please study these warnings very carefully!
================================================================================


INFO   : the flag for use of LIBINT has been found!

================================================================================
                                       INPUT FILE
================================================================================
NAME = Ar_def2-tzvp_2192.575824_.inp
|  1> ! LDA def2-tzvp nori grid5 finalgrid6 verytightscf
|  2> %Pal NProcs 18 End
|  3> 
|  4> % REL
|  5>   Method ZORA
|  6>   ModelPot 1, 0, 0, 0
|  7>   velit 2192.575824
|  8> END
|  9> 
| 10> *xyz 16 1
| 11> Ar 0.0 0.0 0.0
| 12> **                         ****END OF INPUT****
================================================================================

                       ****************************
                       * Single Point Calculation *
                       ****************************

---------------------------------
CARTESIAN COORDINATES (ANGSTROEM)
---------------------------------
  Ar     0.000000    0.000000    0.000000

----------------------------
CARTESIAN COORDINATES (A.U.)
----------------------------
  NO LB      ZA    FRAG     MASS         X           Y           Z
   0 Ar   18.0000    0    39.948    0.000000    0.000000    0.000000

--------------------------------
INTERNAL COORDINATES (ANGSTROEM)
--------------------------------
 Ar     0   0   0     0.000000000000     0.00000000     0.00000000

---------------------------
INTERNAL COORDINATES (A.U.)
---------------------------
 Ar     0   0   0     0.000000000000     0.00000000     0.00000000

---------------------
BASIS SET INFORMATION
---------------------
There are 1 groups of distinct atoms

 Group   1 Type Ar  : 14s9p3d1f contracted to 5s5p2d1f pattern {73211/51111/21/1}

Atom   0Ar   basis set group =>   1


           ************************************************************
           *        Program running with 18 parallel MPI-processes    *
           *              working on a common directory               *
           ************************************************************
------------------------------------------------------------------------------
                           ORCA GTO INTEGRAL CALCULATION
------------------------------------------------------------------------------

                         BASIS SET STATISTICS AND STARTUP INFO

 # of primitive gaussian shells          ...   27
 # of primitive gaussian functions       ...   63
 # of contracted shells                  ...   13
 # of contracted basis functions         ...   37
 Highest angular momentum                ...    3
 Maximum contraction depth               ...    7
 Integral package used                   ... LIBINT
 Integral threshhold            Thresh   ...  1.000e-12
 Primitive cut-off              TCut     ...  1.000e-14


------------------------------ INTEGRAL EVALUATION ----------------------------


 * One electron integrals 
 Pre-screening matrix                    ... done
 Shell pair data                         ... done (   0.000 sec)



           ************************************************************
           *        Program running with 18 parallel MPI-processes    *
           *              working on a common directory               *
           ************************************************************
------------------------------------------------------------------------------
                          ORCA RELATIVISTIC HAMILTONIAN
------------------------------------------------------------------------------

Relativistic Method            ... ZORA(MP)
Treatment of potential         ... Van Wuellen
Nucleus model                  ... Point Nucleus
Speed of light used            ... 2192.57582400000001


            *************************************************
            *         ZERO ORDER REGULAR APPROXIMATION      *
            *                     ZORA(MP)                  *
            *            Programmed by FN according to      *
            *                   C. van Wuellen              *
            *       J. Chem. Phys. (1998) vol 109, 392-399  *
            *************************************************

Terms included in model potential: +V(e,N)
Basis function cutoff value   ... 1.000000e-12
Loading the fitted atomic densities  (DKH4)  ... done
Calculating the cutoffs                      ... done
Number of fit functions                      ... 15
Setting up the integration grid ... done


           ************************************************************
           *        Program running with 18 parallel MPI-processes    *
           *              working on a common directory               *
           ************************************************************
-------------------------------------------------------------------------------
                                 ORCA SCF
-------------------------------------------------------------------------------

------------
SCF SETTINGS
------------
Hamiltonian:
 Density Functional     Method          .... DFT(GTOs)
 Exchange Functional    Exchange        .... Slater
   X-Alpha parameter    XAlpha          ....  0.666667
 Correlation Functional Correlation     .... VWN-5
 Gradients option       PostSCFGGA      .... off
   Density functional embedding theory  .... OFF

Relativistic Settings:
 Scalar relativistic method             .... ZORA
 Speed of light used       Velit        ....       2192.57582
Orbital energies will be scaled


General Settings:
 Integral files         IntName         .... Ar_def2-tzvp_2192.575824_
 Hartree-Fock type      HFTyp           .... RHF
 Total Charge           Charge          ....   16
 Multiplicity           Mult            ....    1
 Number of Electrons    NEL             ....    2
 Basis Dimension        Dim             ....   37
 Nuclear Repulsion      ENuc            ....      0.0000000000 Eh

Convergence Acceleration:
 DIIS                   CNVDIIS         .... on
   Start iteration      DIISMaxIt       ....    12
   Startup error        DIISStart       ....  0.200000
   # of expansion vecs  DIISMaxEq       ....     5
   Bias factor          DIISBfac        ....   1.050
   Max. coefficient     DIISMaxC        ....  10.000
 Newton-Raphson         CNVNR           .... off
 SOSCF                  CNVSOSCF        .... on
   Start iteration      SOSCFMaxIt      ....   150
   Startup grad/error   SOSCFStart      ....  0.003300
 Level Shifting         CNVShift        .... on
   Level shift para.    LevelShift      ....    0.2500
   Turn off err/grad.   ShiftErr        ....    0.0010
 Zerner damping         CNVZerner       .... off
 Static damping         CNVDamp         .... on
   Fraction old density DampFac         ....    0.7000
   Max. Damping (<1)    DampMax         ....    0.9800
   Min. Damping (>=0)   DampMin         ....    0.0000
   Turn off err/grad.   DampErr         ....    0.1000
 Fernandez-Rico         CNVRico         .... off

SCF Procedure:
 Maximum # iterations   MaxIter         ....   125
 SCF integral mode      SCFMode         .... Direct
   Integral package                     .... LIBINT
 Reset frequency        DirectResetFreq ....    20
 Integral Threshold     Thresh          ....  1.000e-12 Eh
 Primitive CutOff       TCut            ....  1.000e-14 Eh

Convergence Tolerance:
 Convergence Check Mode ConvCheckMode   .... Total+1el-Energy
 Convergence forced     ConvForced      .... 0
 Energy Change          TolE            ....  1.000e-09 Eh
 1-El. energy change                    ....  1.000e-06 Eh
 Orbital Gradient       TolG            ....  2.000e-06
 Orbital Rotation angle TolX            ....  2.000e-06
 DIIS Error             TolErr          ....  1.000e-08


Diagonalization of the overlap matrix:
Smallest eigenvalue                        ... 4.397e-02
Time for diagonalization                   ...    0.001 sec
Threshold for overlap eigenvalues          ... 1.000e-08
Number of eigenvalues below threshold      ... 0
Time for construction of square roots      ...    0.001 sec
Total time needed                          ...    0.002 sec

-------------------
DFT GRID GENERATION
-------------------

General Integration Accuracy     IntAcc      ...  5.010
Radial Grid Type                 RadialGrid  ... Gauss-Chebyshev
Angular Grid (max. acc.)         AngularGrid ... Lebedev-434
Angular grid pruning method      GridPruning ... 3 (G Style)
Weight generation scheme         WeightScheme... Becke
Basis function cutoff            BFCut       ...    1.0000e-12
Integration weight cutoff        WCut        ...    1.0000e-14
Grids for H and He will be reduced by one unit

# of grid points (after initial pruning)     ...  11992 (   0.0 sec)
# of grid points (after weights+screening)   ...  11992 (   0.0 sec)
Grid point division into batches done        ...    0.1 sec
Reduced shell lists constructed in    0.1 sec

Total number of grid points                  ...    11992
Total number of batches                      ...      188
Average number of points per batch           ...       63
Average number of grid points per atom       ...    11992
Average number of shells per batch           ...     0.00 ( 0.00%)
Average number of basis functions per batch  ...     0.00 ( 0.00%)
Average number of large shells per batch     ...     0.00 ( -nan%)
Average number of large basis fcns per batch ...     0.00 ( -nan%)
Maximum spatial batch extension              ...  18.71, 18.71, 18.71 au
Average spatial batch extension              ...   0.97,  0.98,  0.97 au

Time for grid setup =    0.154 sec

------------------------------
INITIAL GUESS: MODEL POTENTIAL
------------------------------
Loading ZORA relativistic densities                ... done
Calculating cut-offs                               ... done
Setting up the integral package                    ... done
Initializing the effective Hamiltonian             ... done
Starting the Coulomb interaction                   ... done (   0.0 sec)
Reading the grid                                   ... done
Mapping shells                                     ... done
Starting the XC term evaluation                    ... done (   0.0 sec)
  promolecular density results
     # of electrons  =     18.000000116
     EX              =    -28.047870263
     EC              =     -1.433252902
     EX+EC           =    -29.481123164
Transforming the Hamiltonian                       ... done (   0.0 sec)
Diagonalizing the Hamiltonian                      ... done (   0.0 sec)
Back transforming the eigenvectors                 ... done (   0.0 sec)
Now organizing SCF variables                       ... done
                      ------------------
                      INITIAL GUESS DONE (   0.2 sec)
                      ------------------
--------------
SCF ITERATIONS
--------------
ITER       Energy         Delta-E        Max-DP      RMS-DP      [F,P]     Damp
               ***  Starting incremental Fock matrix formation  ***
  0   -311.5126980890   0.000000000000 0.00742514  0.00020421  2.3116601 0.7000
                      *** Initiating the SOSCF procedure ***
                      *** Re-Reading the Fockian *** 
                      *** Removing any level shift *** 
ITER      Energy       Delta-E        Grad      Rot      Max-DP    RMS-DP
  1   -311.51978071  -0.0070826242  0.000387  0.000387  0.017337  0.000477
               *** Restarting incremental Fock matrix formation ***
  2   -311.53619863  -0.0164179205  0.005038  0.000045  0.000073  0.000002
  3   -311.53619913  -0.0000004957  0.000032  0.000000  0.000000  0.000000
                 **** Energy Check signals convergence ****
              ***Rediagonalizing the Fockian in SOSCF/NRSCF***

               *****************************************************
               *                     SUCCESS                       *
               *           SCF CONVERGED AFTER   4 CYCLES          *
               *****************************************************

Setting up the final grid:

General Integration Accuracy     IntAcc      ...  5.340
Radial Grid Type                 RadialGrid  ... Gauss-Chebyshev
Angular Grid (max. acc.)         AngularGrid ... Lebedev-590
Angular grid pruning method      GridPruning ... 3 (G Style)
Weight generation scheme         WeightScheme... Becke
Basis function cutoff            BFCut       ...    1.0000e-12
Integration weight cutoff        WCut        ...    1.0000e-14
Grids for H and He will be reduced by one unit

# of grid points (after initial pruning)     ...  18110 (   0.0 sec)
# of grid points (after weights+screening)   ...  18110 (   0.0 sec)
Grid point division into batches done        ...    0.2 sec
Reduced shell lists constructed in    0.2 sec

Total number of grid points                  ...    18110
Total number of batches                      ...      283
Average number of points per batch           ...       63
Average number of grid points per atom       ...    18110
Average number of shells per batch           ...     0.00 ( 0.00%)
Average number of basis functions per batch  ...     0.00 ( 0.00%)
Average number of large shells per batch     ...     0.00 ( -nan%)
Average number of large basis fcns per batch ...     0.00 ( -nan%)
Maximum spatial batch extension              ...  19.03, 19.03, 19.03 au
Average spatial batch extension              ...   0.84,  0.84,  0.80 au

Final grid set up in    0.2 sec
Final integration                            ... done (   0.0 sec)
Change in XC energy                          ...    -0.000001345
Integrated number of electrons               ...     1.999999281
Previous integrated no of electrons          ...     1.999999021

----------------
TOTAL SCF ENERGY
----------------

Total Energy       :         -311.53620047 Eh           -8477.33099 eV

Components:
Nuclear Repulsion  :            0.00000000 Eh               0.00000 eV
Electronic Energy  :         -311.53620047 Eh           -8477.33099 eV
One Electron Energy:         -323.82572225 Eh           -8811.74588 eV
Two Electron Energy:           12.28952178 Eh             334.41489 eV

Virial components:
Potential Energy   :         -621.41609228 Eh          -16909.59154 eV
Kinetic Energy     :          309.87989181 Eh            8432.26054 eV
Virial Ratio       :            2.00534500


DFT components:
N(Alpha)           :        0.999999640623 electrons
N(Beta)            :        0.999999640623 electrons
N(Total)           :        1.999999281247 electrons
E(X)               :       -9.413072954179 Eh       
E(C)               :       -0.236788214541 Eh       
E(XC)              :       -9.649861168720 Eh       
DFET-embed. en.    :        0.000000000000 Eh       

---------------
SCF CONVERGENCE
---------------

  Last Energy change         ...   -2.0179e-11  Tolerance :   1.0000e-09
  Last MAX-Density change    ...    0.0000e+00  Tolerance :   1.0000e-08
  Last RMS-Density change    ...    0.0000e+00  Tolerance :   1.0000e-09
  Last Orbital Gradient      ...    1.4537e-10  Tolerance :   2.0000e-06
  Last Orbital Rotation      ...    0.0000e+00  Tolerance :   2.0000e-06

================================================================================
                                        WARNING
Number of found core electrons (2) does not match given number of chemical core electrons (10)
================================================================================
             **** THE GBW FILE WAS UPDATED (Ar_def2-tzvp_2192.575824_.gbw) ****
             **** DENSITY FILE WAS UPDATED (Ar_def2-tzvp_2192.575824_.scfp) ****
             **** ENERGY FILE WAS UPDATED (Ar_def2-tzvp_2192.575824_.en.tmp) ****
             **** THE GBW FILE WAS UPDATED (Ar_def2-tzvp_2192.575824_.gbw) ****
             **** DENSITY FILE WAS UPDATED (Ar_def2-tzvp_2192.575824_.scfp) ****
----------------
ORBITAL ENERGIES
----------------

  NO   OCC          E(Eh)            E(eV) 
   0   2.0000    -146.376803     -3983.1153 
   1   0.0000     -33.846098      -920.9991 
   2   0.0000     -33.237659      -904.4427 
   3   0.0000     -33.237659      -904.4427 
   4   0.0000     -33.237659      -904.4427 
   5   0.0000     -14.518157      -395.0591 
   6   0.0000     -14.518157      -395.0591 
   7   0.0000     -14.518157      -395.0591 
   8   0.0000     -13.412092      -364.9616 
   9   0.0000     -12.008424      -326.7658 
  10   0.0000     -12.008424      -326.7658 
  11   0.0000     -12.008424      -326.7658 
  12   0.0000     -12.008424      -326.7658 
  13   0.0000     -12.008424      -326.7658 
  14   0.0000      -8.038215      -218.7309 
  15   0.0000      -8.038215      -218.7309 
  16   0.0000      -8.038215      -218.7309 
  17   0.0000      -7.010476      -190.7648 
  18   0.0000      -7.010476      -190.7648 
  19   0.0000      -7.010476      -190.7648 
  20   0.0000      -7.010476      -190.7648 
  21   0.0000      -7.010476      -190.7648 
  22   0.0000      -7.010476      -190.7648 
  23   0.0000      -7.010476      -190.7648 
  24   0.0000      -6.492588      -176.6723 
  25   0.0000      -6.250234      -170.0775 
  26   0.0000      -6.250234      -170.0775 
  27   0.0000      -6.250234      -170.0775 
  28   0.0000      -6.250234      -170.0775 
  29   0.0000      -6.250234      -170.0775 
  30   0.0000      -4.888163      -133.0137 
  31   0.0000      -4.888163      -133.0137 
  32   0.0000      -4.888163      -133.0137 
  33   0.0000      -3.204878       -87.2092 
  34   0.0000      -3.204878       -87.2092 
  35   0.0000      -3.204878       -87.2092 
  36   0.0000      12.513040       340.4971 

                    ********************************
                    * MULLIKEN POPULATION ANALYSIS *
                    ********************************

-----------------------
MULLIKEN ATOMIC CHARGES
-----------------------
   0 Ar:   16.000000
Sum of atomic charges:   16.0000000

--------------------------------
MULLIKEN REDUCED ORBITAL CHARGES
--------------------------------
  0 Ars       :     2.000000  s :     2.000000
      pz      :     0.000000  p :     0.000000
      px      :     0.000000
      py      :     0.000000
      dz2     :     0.000000  d :     0.000000
      dxz     :     0.000000
      dyz     :     0.000000
      dx2y2   :     0.000000
      dxy     :     0.000000
      f0      :     0.000000  f :     0.000000
      f+1     :     0.000000
      f-1     :     0.000000
      f+2     :     0.000000
      f-2     :     0.000000
      f+3     :     0.000000
      f-3     :     0.000000


                     *******************************
                     * LOEWDIN POPULATION ANALYSIS *
                     *******************************

----------------------
LOEWDIN ATOMIC CHARGES
----------------------
   0 Ar:   16.000000

-------------------------------
LOEWDIN REDUCED ORBITAL CHARGES
-------------------------------
  0 Ars       :     2.000000  s :     2.000000
      pz      :     0.000000  p :     0.000000
      px      :     0.000000
      py      :     0.000000
      dz2     :     0.000000  d :     0.000000
      dxz     :     0.000000
      dyz     :     0.000000
      dx2y2   :     0.000000
      dxy     :     0.000000
      f0      :     0.000000  f :     0.000000
      f+1     :     0.000000
      f-1     :     0.000000
      f+2     :     0.000000
      f-2     :     0.000000
      f+3     :     0.000000
      f-3     :     0.000000


                      *****************************
                      * MAYER POPULATION ANALYSIS *
                      *****************************

  NA   - Mulliken gross atomic population
  ZA   - Total nuclear charge
  QA   - Mulliken gross atomic charge
  VA   - Mayer's total valence
  BVA  - Mayer's bonded valence
  FA   - Mayer's free valence

  ATOM       NA         ZA         QA         VA         BVA        FA
  0 Ar     2.0000    18.0000    16.0000     0.0000     0.0000     0.0000

  Mayer bond orders larger than 0.100000


--------------------------
ATOM BASIS FOR ELEMENT Ar
--------------------------
 NewGTO Ar
 S 14
    1      79111.422997999995         0.000505414597
    2      11864.746009000000         0.003908574721
    3       2700.164297300000         0.020112926360
    4        763.959434850000         0.078929924598
    5        248.451505610000         0.231967089359
    6         88.283581000000         0.444052115763
    7         32.948607069000         0.360600839601
    8        142.553580000000        -0.002786163902
    9         44.163688009000        -0.011853641079
   10          8.952499500000         0.027641506220
   11          4.554692094100        -0.004489227442
   12          2.144407900100        -0.002320046364
   13          0.607087770000         0.002078451493
   14          0.216514320000        -0.000867035109
 S 14
    1      79111.422997999995         0.000124806907
    2      11864.746009000000         0.000965182098
    3       2700.164297300000         0.004966679119
    4        763.959434850000         0.019490928438
    5        248.451505610000         0.057281873277
    6         88.283581000000         0.109654076764
    7         32.948607069000         0.089046647326
    8        142.553580000000         0.049645945148
    9         44.163688009000         0.211217012179
   10          8.952499500000        -0.492536961150
   11          4.554692094100        -0.484864285126
   12          2.144407900100        -0.250579333799
   13          0.607087770000         0.115012988762
   14          0.216514320000        -0.045717144017
 S 14
    1      79111.422997999995        -0.000002174758
    2      11864.746009000000        -0.000016818283
    3       2700.164297300000        -0.000086544308
    4        763.959434850000        -0.000339629130
    5        248.451505610000        -0.000998135767
    6         88.283581000000        -0.001910720613
    7         32.948607069000        -0.001551636470
    8        142.553580000000         0.045248248303
    9         44.163688009000         0.192507158125
   10          8.952499500000        -0.448907451557
   11          4.554692094100        -0.201902467623
   12          2.144407900100        -0.104343807909
   13          0.607087770000         1.492516271023
   14          0.216514320000        -0.400163628486
 S 14
    1      79111.422997999995        -0.000016080642
    2      11864.746009000000        -0.000124358086
    3       2700.164297300000        -0.000639927647
    4        763.959434850000        -0.002511292489
    5        248.451505610000        -0.007380435395
    6         88.283581000000        -0.014128288463
    7         32.948607069000        -0.011473141330
    8        142.553580000000         0.025772778365
    9         44.163688009000         0.109649423041
   10          8.952499500000        -0.255691495013
   11          4.554692094100        -0.015726803424
   12          2.144407900100        -0.008127659730
   13          0.607087770000         1.383958230430
   14          0.216514320000        -1.796353859700
 S 14
    1      79111.422997999995        -0.000407066697
    2      11864.746009000000        -0.003148010783
    3       2700.164297300000        -0.016199180921
    4        763.959434850000        -0.063571063991
    5        248.451505610000        -0.186828946770
    6         88.283581000000        -0.357644652645
    7         32.948607069000        -0.290432040395
    8        142.553580000000         0.311284432888
    9         44.163688009000         1.324349202270
   10          8.952499500000        -3.088249970293
   11          4.554692094100         2.198907717822
   12          2.144407900100         1.136402180816
   13          0.607087770000        -1.755948092206
   14          0.216514320000         0.836899839667
 P 9
    1        776.775419980000         0.003031196172
    2        183.801070180000         0.024348337799
    3         58.694003175000         0.113430799520
    4         21.701591695000         0.333107837090
    5          8.582148963500         0.581573937237
    6          3.492267916100         0.079886044205
    7          1.263742699800         0.034553113863
    8          0.466078700100        -0.016874373956
    9          0.157660030000         0.005207320564
 P 9
    1        776.775419980000         0.002123704252
    2        183.801070180000         0.017058832742
    3         58.694003175000         0.079471422351
    4         21.701591695000         0.233380649011
    5          8.582148963500         0.407459950824
    6          3.492267916100        -0.613220543527
    7          1.263742699800        -0.664514738770
    8          0.466078700100         0.074503462615
    9          0.157660030000        -0.021264201435
 P 9
    1        776.775419980000         0.001585719632
    2        183.801070180000         0.012737426109
    3         58.694003175000         0.059339427571
    4         21.701591695000         0.174259799419
    5          8.582148963500         0.304240688347
    6          3.492267916100        -0.906195844854
    7          1.263742699800         0.032682991288
    8          0.466078700100         1.098310230560
    9          0.157660030000        -0.121262018367
 P 9
    1        776.775419980000         0.001408139780
    2        183.801070180000         0.011311001036
    3         58.694003175000         0.052694188056
    4         21.701591695000         0.154744981829
    5          8.582148963500         0.270169711815
    6          3.492267916100        -1.103739563280
    7          1.263742699800         1.085648684143
    8          0.466078700100         0.045857916610
    9          0.157660030000        -1.008921995559
 P 9
    1        776.775419980000         0.001942232927
    2        183.801070180000         0.015601149086
    3         58.694003175000         0.072680559503
    4         21.701591695000         0.213438185017
    5          8.582148963500         0.372642345197
    6          3.492267916100        -1.741398083951
    7          1.263742699800         2.562563117771
    8          0.466078700100        -2.359716290443
    9          0.157660030000         1.276584016330
 D 3
    1          5.551000000000         0.200576228478
    2          1.235000000000         1.002881142390
    3          0.412000000000        -0.198002244445
 D 3
    1          5.551000000000         0.094784172136
    2          1.235000000000         0.473920860678
    3          0.412000000000        -1.199602322759
 F 1
    1          0.890000000000         1.000000000000
 end
  // -----------------------------------------------
  // The basis set
  // -----------------------------------------------
  BAS[ATNO] = new BFNGauss[NSH];
  // Basis function   1 L = s
  InitBFNGauss(BAS[ATNO][  0]);
  BAS[ATNO][  0].l  = 0;
  BAS[ATNO][  0].ng = 14;
  BAS[ATNO][  0].a[  0] =     79111.422997999995;     BAS[ATNO][  0].d[  0] =         0.000505414597;
  BAS[ATNO][  0].a[  1] =     11864.746009000000;     BAS[ATNO][  0].d[  1] =         0.003908574721;
  BAS[ATNO][  0].a[  2] =      2700.164297300000;     BAS[ATNO][  0].d[  2] =         0.020112926360;
  BAS[ATNO][  0].a[  3] =       763.959434850000;     BAS[ATNO][  0].d[  3] =         0.078929924598;
  BAS[ATNO][  0].a[  4] =       248.451505610000;     BAS[ATNO][  0].d[  4] =         0.231967089359;
  BAS[ATNO][  0].a[  5] =        88.283581000000;     BAS[ATNO][  0].d[  5] =         0.444052115763;
  BAS[ATNO][  0].a[  6] =        32.948607069000;     BAS[ATNO][  0].d[  6] =         0.360600839601;
  BAS[ATNO][  0].a[  7] =       142.553580000000;     BAS[ATNO][  0].d[  7] =        -0.002786163902;
  BAS[ATNO][  0].a[  8] =        44.163688009000;     BAS[ATNO][  0].d[  8] =        -0.011853641079;
  BAS[ATNO][  0].a[  9] =         8.952499500000;     BAS[ATNO][  0].d[  9] =         0.027641506220;
  BAS[ATNO][  0].a[ 10] =         4.554692094100;     BAS[ATNO][  0].d[ 10] =        -0.004489227442;
  BAS[ATNO][  0].a[ 11] =         2.144407900100;     BAS[ATNO][  0].d[ 11] =        -0.002320046364;
  BAS[ATNO][  0].a[ 12] =         0.607087770000;     BAS[ATNO][  0].d[ 12] =         0.002078451493;
  BAS[ATNO][  0].a[ 13] =         0.216514320000;     BAS[ATNO][  0].d[ 13] =        -0.000867035109;

  // Basis function   2 L = s
  InitBFNGauss(BAS[ATNO][  1]);
  BAS[ATNO][  1].l  = 0;
  BAS[ATNO][  1].ng = 14;
  BAS[ATNO][  1].a[  0] =     79111.422997999995;     BAS[ATNO][  1].d[  0] =        -0.000124806907;
  BAS[ATNO][  1].a[  1] =     11864.746009000000;     BAS[ATNO][  1].d[  1] =        -0.000965182098;
  BAS[ATNO][  1].a[  2] =      2700.164297300000;     BAS[ATNO][  1].d[  2] =        -0.004966679119;
  BAS[ATNO][  1].a[  3] =       763.959434850000;     BAS[ATNO][  1].d[  3] =        -0.019490928438;
  BAS[ATNO][  1].a[  4] =       248.451505610000;     BAS[ATNO][  1].d[  4] =        -0.057281873277;
  BAS[ATNO][  1].a[  5] =        88.283581000000;     BAS[ATNO][  1].d[  5] =        -0.109654076764;
  BAS[ATNO][  1].a[  6] =        32.948607069000;     BAS[ATNO][  1].d[  6] =        -0.089046647326;
  BAS[ATNO][  1].a[  7] =       142.553580000000;     BAS[ATNO][  1].d[  7] =        -0.049645945148;
  BAS[ATNO][  1].a[  8] =        44.163688009000;     BAS[ATNO][  1].d[  8] =        -0.211217012179;
  BAS[ATNO][  1].a[  9] =         8.952499500000;     BAS[ATNO][  1].d[  9] =         0.492536961150;
  BAS[ATNO][  1].a[ 10] =         4.554692094100;     BAS[ATNO][  1].d[ 10] =         0.484864285126;
  BAS[ATNO][  1].a[ 11] =         2.144407900100;     BAS[ATNO][  1].d[ 11] =         0.250579333799;
  BAS[ATNO][  1].a[ 12] =         0.607087770000;     BAS[ATNO][  1].d[ 12] =        -0.115012988762;
  BAS[ATNO][  1].a[ 13] =         0.216514320000;     BAS[ATNO][  1].d[ 13] =         0.045717144017;

  // Basis function   3 L = s
  InitBFNGauss(BAS[ATNO][  2]);
  BAS[ATNO][  2].l  = 0;
  BAS[ATNO][  2].ng = 14;
  BAS[ATNO][  2].a[  0] =     79111.422997999995;     BAS[ATNO][  2].d[  0] =        -0.000002174758;
  BAS[ATNO][  2].a[  1] =     11864.746009000000;     BAS[ATNO][  2].d[  1] =        -0.000016818283;
  BAS[ATNO][  2].a[  2] =      2700.164297300000;     BAS[ATNO][  2].d[  2] =        -0.000086544308;
  BAS[ATNO][  2].a[  3] =       763.959434850000;     BAS[ATNO][  2].d[  3] =        -0.000339629130;
  BAS[ATNO][  2].a[  4] =       248.451505610000;     BAS[ATNO][  2].d[  4] =        -0.000998135767;
  BAS[ATNO][  2].a[  5] =        88.283581000000;     BAS[ATNO][  2].d[  5] =        -0.001910720613;
  BAS[ATNO][  2].a[  6] =        32.948607069000;     BAS[ATNO][  2].d[  6] =        -0.001551636470;
  BAS[ATNO][  2].a[  7] =       142.553580000000;     BAS[ATNO][  2].d[  7] =         0.045248248303;
  BAS[ATNO][  2].a[  8] =        44.163688009000;     BAS[ATNO][  2].d[  8] =         0.192507158125;
  BAS[ATNO][  2].a[  9] =         8.952499500000;     BAS[ATNO][  2].d[  9] =        -0.448907451557;
  BAS[ATNO][  2].a[ 10] =         4.554692094100;     BAS[ATNO][  2].d[ 10] =        -0.201902467623;
  BAS[ATNO][  2].a[ 11] =         2.144407900100;     BAS[ATNO][  2].d[ 11] =        -0.104343807909;
  BAS[ATNO][  2].a[ 12] =         0.607087770000;     BAS[ATNO][  2].d[ 12] =         1.492516271023;
  BAS[ATNO][  2].a[ 13] =         0.216514320000;     BAS[ATNO][  2].d[ 13] =        -0.400163628486;

  // Basis function   4 L = s
  InitBFNGauss(BAS[ATNO][  3]);
  BAS[ATNO][  3].l  = 0;
  BAS[ATNO][  3].ng = 14;
  BAS[ATNO][  3].a[  0] =     79111.422997999995;     BAS[ATNO][  3].d[  0] =         0.000016080642;
  BAS[ATNO][  3].a[  1] =     11864.746009000000;     BAS[ATNO][  3].d[  1] =         0.000124358086;
  BAS[ATNO][  3].a[  2] =      2700.164297300000;     BAS[ATNO][  3].d[  2] =         0.000639927647;
  BAS[ATNO][  3].a[  3] =       763.959434850000;     BAS[ATNO][  3].d[  3] =         0.002511292489;
  BAS[ATNO][  3].a[  4] =       248.451505610000;     BAS[ATNO][  3].d[  4] =         0.007380435395;
  BAS[ATNO][  3].a[  5] =        88.283581000000;     BAS[ATNO][  3].d[  5] =         0.014128288463;
  BAS[ATNO][  3].a[  6] =        32.948607069000;     BAS[ATNO][  3].d[  6] =         0.011473141330;
  BAS[ATNO][  3].a[  7] =       142.553580000000;     BAS[ATNO][  3].d[  7] =        -0.025772778365;
  BAS[ATNO][  3].a[  8] =        44.163688009000;     BAS[ATNO][  3].d[  8] =        -0.109649423041;
  BAS[ATNO][  3].a[  9] =         8.952499500000;     BAS[ATNO][  3].d[  9] =         0.255691495013;
  BAS[ATNO][  3].a[ 10] =         4.554692094100;     BAS[ATNO][  3].d[ 10] =         0.015726803424;
  BAS[ATNO][  3].a[ 11] =         2.144407900100;     BAS[ATNO][  3].d[ 11] =         0.008127659730;
  BAS[ATNO][  3].a[ 12] =         0.607087770000;     BAS[ATNO][  3].d[ 12] =        -1.383958230430;
  BAS[ATNO][  3].a[ 13] =         0.216514320000;     BAS[ATNO][  3].d[ 13] =         1.796353859700;

  // Basis function   5 L = s
  InitBFNGauss(BAS[ATNO][  4]);
  BAS[ATNO][  4].l  = 0;
  BAS[ATNO][  4].ng = 14;
  BAS[ATNO][  4].a[  0] =     79111.422997999995;     BAS[ATNO][  4].d[  0] =         0.000407066697;
  BAS[ATNO][  4].a[  1] =     11864.746009000000;     BAS[ATNO][  4].d[  1] =         0.003148010783;
  BAS[ATNO][  4].a[  2] =      2700.164297300000;     BAS[ATNO][  4].d[  2] =         0.016199180921;
  BAS[ATNO][  4].a[  3] =       763.959434850000;     BAS[ATNO][  4].d[  3] =         0.063571063991;
  BAS[ATNO][  4].a[  4] =       248.451505610000;     BAS[ATNO][  4].d[  4] =         0.186828946770;
  BAS[ATNO][  4].a[  5] =        88.283581000000;     BAS[ATNO][  4].d[  5] =         0.357644652645;
  BAS[ATNO][  4].a[  6] =        32.948607069000;     BAS[ATNO][  4].d[  6] =         0.290432040395;
  BAS[ATNO][  4].a[  7] =       142.553580000000;     BAS[ATNO][  4].d[  7] =        -0.311284432888;
  BAS[ATNO][  4].a[  8] =        44.163688009000;     BAS[ATNO][  4].d[  8] =        -1.324349202270;
  BAS[ATNO][  4].a[  9] =         8.952499500000;     BAS[ATNO][  4].d[  9] =         3.088249970293;
  BAS[ATNO][  4].a[ 10] =         4.554692094100;     BAS[ATNO][  4].d[ 10] =        -2.198907717822;
  BAS[ATNO][  4].a[ 11] =         2.144407900100;     BAS[ATNO][  4].d[ 11] =        -1.136402180816;
  BAS[ATNO][  4].a[ 12] =         0.607087770000;     BAS[ATNO][  4].d[ 12] =         1.755948092206;
  BAS[ATNO][  4].a[ 13] =         0.216514320000;     BAS[ATNO][  4].d[ 13] =        -0.836899839667;

  // Basis function   6 L = p
  InitBFNGauss(BAS[ATNO][  5]);
  BAS[ATNO][  5].l  = 1;
  BAS[ATNO][  5].ng = 9;
  BAS[ATNO][  5].a[  0] =       776.775419980000;     BAS[ATNO][  5].d[  0] =         0.003031196172;
  BAS[ATNO][  5].a[  1] =       183.801070180000;     BAS[ATNO][  5].d[  1] =         0.024348337799;
  BAS[ATNO][  5].a[  2] =        58.694003175000;     BAS[ATNO][  5].d[  2] =         0.113430799520;
  BAS[ATNO][  5].a[  3] =        21.701591695000;     BAS[ATNO][  5].d[  3] =         0.333107837090;
  BAS[ATNO][  5].a[  4] =         8.582148963500;     BAS[ATNO][  5].d[  4] =         0.581573937237;
  BAS[ATNO][  5].a[  5] =         3.492267916100;     BAS[ATNO][  5].d[  5] =         0.079886044205;
  BAS[ATNO][  5].a[  6] =         1.263742699800;     BAS[ATNO][  5].d[  6] =         0.034553113863;
  BAS[ATNO][  5].a[  7] =         0.466078700100;     BAS[ATNO][  5].d[  7] =        -0.016874373956;
  BAS[ATNO][  5].a[  8] =         0.157660030000;     BAS[ATNO][  5].d[  8] =         0.005207320564;

  // Basis function   7 L = p
  InitBFNGauss(BAS[ATNO][  6]);
  BAS[ATNO][  6].l  = 1;
  BAS[ATNO][  6].ng = 9;
  BAS[ATNO][  6].a[  0] =       776.775419980000;     BAS[ATNO][  6].d[  0] =        -0.002123704252;
  BAS[ATNO][  6].a[  1] =       183.801070180000;     BAS[ATNO][  6].d[  1] =        -0.017058832742;
  BAS[ATNO][  6].a[  2] =        58.694003175000;     BAS[ATNO][  6].d[  2] =        -0.079471422351;
  BAS[ATNO][  6].a[  3] =        21.701591695000;     BAS[ATNO][  6].d[  3] =        -0.233380649011;
  BAS[ATNO][  6].a[  4] =         8.582148963500;     BAS[ATNO][  6].d[  4] =        -0.407459950824;
  BAS[ATNO][  6].a[  5] =         3.492267916100;     BAS[ATNO][  6].d[  5] =         0.613220543527;
  BAS[ATNO][  6].a[  6] =         1.263742699800;     BAS[ATNO][  6].d[  6] =         0.664514738770;
  BAS[ATNO][  6].a[  7] =         0.466078700100;     BAS[ATNO][  6].d[  7] =        -0.074503462615;
  BAS[ATNO][  6].a[  8] =         0.157660030000;     BAS[ATNO][  6].d[  8] =         0.021264201435;

  // Basis function   8 L = p
  InitBFNGauss(BAS[ATNO][  7]);
  BAS[ATNO][  7].l  = 1;
  BAS[ATNO][  7].ng = 9;
  BAS[ATNO][  7].a[  0] =       776.775419980000;     BAS[ATNO][  7].d[  0] =         0.001585719632;
  BAS[ATNO][  7].a[  1] =       183.801070180000;     BAS[ATNO][  7].d[  1] =         0.012737426109;
  BAS[ATNO][  7].a[  2] =        58.694003175000;     BAS[ATNO][  7].d[  2] =         0.059339427571;
  BAS[ATNO][  7].a[  3] =        21.701591695000;     BAS[ATNO][  7].d[  3] =         0.174259799419;
  BAS[ATNO][  7].a[  4] =         8.582148963500;     BAS[ATNO][  7].d[  4] =         0.304240688347;
  BAS[ATNO][  7].a[  5] =         3.492267916100;     BAS[ATNO][  7].d[  5] =        -0.906195844854;
  BAS[ATNO][  7].a[  6] =         1.263742699800;     BAS[ATNO][  7].d[  6] =         0.032682991288;
  BAS[ATNO][  7].a[  7] =         0.466078700100;     BAS[ATNO][  7].d[  7] =         1.098310230560;
  BAS[ATNO][  7].a[  8] =         0.157660030000;     BAS[ATNO][  7].d[  8] =        -0.121262018367;

  // Basis function   9 L = p
  InitBFNGauss(BAS[ATNO][  8]);
  BAS[ATNO][  8].l  = 1;
  BAS[ATNO][  8].ng = 9;
  BAS[ATNO][  8].a[  0] =       776.775419980000;     BAS[ATNO][  8].d[  0] =        -0.001408139780;
  BAS[ATNO][  8].a[  1] =       183.801070180000;     BAS[ATNO][  8].d[  1] =        -0.011311001036;
  BAS[ATNO][  8].a[  2] =        58.694003175000;     BAS[ATNO][  8].d[  2] =        -0.052694188056;
  BAS[ATNO][  8].a[  3] =        21.701591695000;     BAS[ATNO][  8].d[  3] =        -0.154744981829;
  BAS[ATNO][  8].a[  4] =         8.582148963500;     BAS[ATNO][  8].d[  4] =        -0.270169711815;
  BAS[ATNO][  8].a[  5] =         3.492267916100;     BAS[ATNO][  8].d[  5] =         1.103739563280;
  BAS[ATNO][  8].a[  6] =         1.263742699800;     BAS[ATNO][  8].d[  6] =        -1.085648684143;
  BAS[ATNO][  8].a[  7] =         0.466078700100;     BAS[ATNO][  8].d[  7] =        -0.045857916610;
  BAS[ATNO][  8].a[  8] =         0.157660030000;     BAS[ATNO][  8].d[  8] =         1.008921995559;

  // Basis function  10 L = p
  InitBFNGauss(BAS[ATNO][  9]);
  BAS[ATNO][  9].l  = 1;
  BAS[ATNO][  9].ng = 9;
  BAS[ATNO][  9].a[  0] =       776.775419980000;     BAS[ATNO][  9].d[  0] =         0.001942232927;
  BAS[ATNO][  9].a[  1] =       183.801070180000;     BAS[ATNO][  9].d[  1] =         0.015601149086;
  BAS[ATNO][  9].a[  2] =        58.694003175000;     BAS[ATNO][  9].d[  2] =         0.072680559503;
  BAS[ATNO][  9].a[  3] =        21.701591695000;     BAS[ATNO][  9].d[  3] =         0.213438185017;
  BAS[ATNO][  9].a[  4] =         8.582148963500;     BAS[ATNO][  9].d[  4] =         0.372642345197;
  BAS[ATNO][  9].a[  5] =         3.492267916100;     BAS[ATNO][  9].d[  5] =        -1.741398083951;
  BAS[ATNO][  9].a[  6] =         1.263742699800;     BAS[ATNO][  9].d[  6] =         2.562563117771;
  BAS[ATNO][  9].a[  7] =         0.466078700100;     BAS[ATNO][  9].d[  7] =        -2.359716290443;
  BAS[ATNO][  9].a[  8] =         0.157660030000;     BAS[ATNO][  9].d[  8] =         1.276584016330;

  // Basis function  11 L = d
  InitBFNGauss(BAS[ATNO][ 10]);
  BAS[ATNO][ 10].l  = 2;
  BAS[ATNO][ 10].ng = 3;
  BAS[ATNO][ 10].a[  0] =         5.551000000000;     BAS[ATNO][ 10].d[  0] =         0.200576228478;
  BAS[ATNO][ 10].a[  1] =         1.235000000000;     BAS[ATNO][ 10].d[  1] =         1.002881142390;
  BAS[ATNO][ 10].a[  2] =         0.412000000000;     BAS[ATNO][ 10].d[  2] =        -0.198002244445;

  // Basis function  12 L = d
  InitBFNGauss(BAS[ATNO][ 11]);
  BAS[ATNO][ 11].l  = 2;
  BAS[ATNO][ 11].ng = 3;
  BAS[ATNO][ 11].a[  0] =         5.551000000000;     BAS[ATNO][ 11].d[  0] =        -0.094784172136;
  BAS[ATNO][ 11].a[  1] =         1.235000000000;     BAS[ATNO][ 11].d[  1] =        -0.473920860678;
  BAS[ATNO][ 11].a[  2] =         0.412000000000;     BAS[ATNO][ 11].d[  2] =         1.199602322759;

  // Basis function  13 L = f
  InitBFNGauss(BAS[ATNO][ 12]);
  BAS[ATNO][ 12].l  = 3;
  BAS[ATNO][ 12].ng = 1;
  BAS[ATNO][ 12].a[  0] =         0.890000000000;     BAS[ATNO][ 12].d[  0] =         1.000000000000;

-------
TIMINGS
-------

Total SCF time: 0 days 0 hours 0 min 1 sec 

Total time                  ....       1.220 sec
Sum of individual times     ....       1.056 sec  ( 86.5%)

Fock matrix formation       ....       0.587 sec  ( 48.1%)
  XC integration            ....       0.013 sec  (  2.2% of F)
    Basis function eval.    ....       0.002 sec  ( 14.3% of XC)
    Density eval.           ....       0.001 sec  (  6.1% of XC)
    XC-Functional eval.     ....       0.001 sec  (  9.4% of XC)
    XC-Potential eval.      ....       0.001 sec  (  5.6% of XC)
Diagonalization             ....       0.000 sec  (  0.0%)
Density matrix formation    ....       0.000 sec  (  0.0%)
Population analysis         ....       0.001 sec  (  0.0%)
Initial guess               ....       0.089 sec  (  7.3%)
Orbital Transformation      ....       0.000 sec  (  0.0%)
Orbital Orthonormalization  ....       0.000 sec  (  0.0%)
DIIS solution               ....       0.000 sec  (  0.0%)
SOSCF solution              ....       0.000 sec  (  0.0%)
Grid generation             ....       0.377 sec  ( 30.9%)

-------------------------   --------------------
FINAL SINGLE POINT ENERGY      -311.536200474145
-------------------------   --------------------


                            ***************************************
                            *     ORCA property calculations      *
                            ***************************************

                                    ---------------------
                                    Active property flags
                                    ---------------------
   (+) Dipole Moment


------------------------------------------------------------------------------
                       ORCA ELECTRIC PROPERTIES CALCULATION
------------------------------------------------------------------------------

Dipole Moment Calculation                       ... on
Quadrupole Moment Calculation                   ... off
Polarizability Calculation                      ... off
GBWName                                         ... Ar_def2-tzvp_2192.575824_.gbw
Electron density file                           ... Ar_def2-tzvp_2192.575824_.scfp
The origin for moment calculation is the CENTER OF MASS  = ( 0.000000,  0.000000  0.000000)

-------------
DIPOLE MOMENT
-------------
                                X             Y             Z
Electronic contribution:     -0.00000       0.00000      -0.00000
Nuclear contribution   :      0.00000       0.00000       0.00000
                        -----------------------------------------
Total Dipole Moment    :     -0.00000       0.00000      -0.00000
                        -----------------------------------------
Magnitude (a.u.)       :      0.00000
Magnitude (Debye)      :      0.00000



--------------------
Rotational spectrum 
--------------------
 
Rotational constants in cm-1:     0.000000     0.000000     0.000000 
Rotational constants in MHz :     0.000000     0.000000     0.000000 

 Dipole components along the rotational axes: 
x,y,z [a.u.] :    -0.000000     0.000000    -0.000000 
x,y,z [Debye]:    -0.000000     0.000000    -0.000000 

 

Timings for individual modules:

Sum of individual times         ...        2.331 sec (=   0.039 min)
GTO integral calculation        ...        0.489 sec (=   0.008 min)  21.0 %
Relativistic integrals          ...        0.365 sec (=   0.006 min)  15.7 %
SCF iterations                  ...        1.477 sec (=   0.025 min)  63.3 %
                             ****ORCA TERMINATED NORMALLY****
TOTAL RUN TIME: 0 days 0 hours 0 minutes 2 seconds 650 msec
