
                                 *****************
                                 * O   R   C   A *
                                 *****************

           --- An Ab Initio, DFT and Semiempirical electronic structure package ---

                  #######################################################
                  #                        -***-                        #
                  #          Department of theory and spectroscopy      #
                  #               Directorship: Frank Neese             #
                  #        Max Planck Institute fuer Kohlenforschung    #
                  #                Kaiser Wilhelm Platz 1               #
                  #                 D-45470 Muelheim/Ruhr               #
                  #                      Germany                        #
                  #                                                     #
                  #                  All rights reserved                #
                  #                        -***-                        #
                  #######################################################


                         Program Version 4.2.1 -  RELEASE  -


 With contributions from (in alphabetic order):
   Daniel Aravena         : Magnetic Suceptibility
   Michael Atanasov       : Ab Initio Ligand Field Theory (pilot matlab implementation)
   Alexander A. Auer      : GIAO ZORA, VPT2
   Ute Becker             : Parallelization
   Giovanni Bistoni       : ED, misc. LED, open-shell LED, HFLD
   Martin Brehm           : Molecular dynamics
   Dmytro Bykov           : SCF Hessian
   Vijay G. Chilkuri      : MRCI spin determinant printing, contributions to CSF-ICE
   Dipayan Datta          : RHF DLPNO-CCSD density
   Achintya Kumar Dutta   : EOM-CC, STEOM-CC
   Dmitry Ganyushin       : Spin-Orbit,Spin-Spin,Magnetic field MRCI
   Miquel Garcia          : C-PCM Hessian, Gaussian charge scheme
   Yang Guo               : DLPNO-NEVPT2, CIM, IAO-localization
   Andreas Hansen         : Spin unrestricted coupled pair/coupled cluster methods
   Benjamin Helmich-Paris : CASSCF linear response (MC-RPA)
   Lee Huntington         : MR-EOM, pCC
   Robert Izsak           : Overlap fitted RIJCOSX, COSX-SCS-MP3, EOM
   Christian Kollmar      : KDIIS, OOCD, Brueckner-CCSD(T), CCSD density
   Simone Kossmann        : Meta GGA functionals, TD-DFT gradient, OOMP2, MP2 Hessian
   Martin Krupicka        : AUTO-CI
   Lucas Lang             : DCDCAS
   Dagmar Lenk            : GEPOL surface, SMD
   Dimitrios Liakos       : Extrapolation schemes; Compound Job, initial MDCI parallelization
   Dimitrios Manganas     : Further ROCIS development; embedding schemes
   Dimitrios Pantazis     : SARC Basis sets
   Taras Petrenko         : DFT Hessian,TD-DFT gradient, ASA, ECA, R-Raman, ABS, FL, XAS/XES, NRVS
   Peter Pinski           : DLPNO-MP2, DLPNO-MP2 Gradient
   Christoph Reimann      : Effective Core Potentials
   Marius Retegan         : Local ZFS, SOC
   Christoph Riplinger    : Optimizer, TS searches, QM/MM, DLPNO-CCSD(T), (RO)-DLPNO pert. Triples
   Tobias Risthaus        : Range-separated hybrids, TD-DFT gradient, RPA, STAB
   Michael Roemelt        : Original ROCIS implementation
   Masaaki Saitow         : Open-shell DLPNO-CCSD energy and density
   Barbara Sandhoefer     : DKH picture change effects
   Avijit Sen             : IP-ROCIS
   Kantharuban Sivalingam : CASSCF convergence, NEVPT2, FIC-MRCI
   Bernardo de Souza      : ESD, SOC TD-DFT
   Georgi Stoychev        : AutoAux, RI-MP2 NMR
   Willem Van den Heuvel  : Paramagnetic NMR
   Boris Wezisla          : Elementary symmetry handling
   Frank Wennmohs         : Technical directorship


 We gratefully acknowledge several colleagues who have allowed us to
 interface, adapt or use parts of their codes:
   Stefan Grimme, W. Hujo, H. Kruse,             : VdW corrections, initial TS optimization,
                  C. Bannwarth                     DFT functionals, gCP, sTDA/sTD-DF
   Ed Valeev, F. Pavosevic, A. Kumar             : LibInt (2-el integral package), F12 methods
   Garnet Chan, S. Sharma, J. Yang, R. Olivares  : DMRG
   Ulf Ekstrom                                   : XCFun DFT Library
   Mihaly Kallay                                 : mrcc  (arbitrary order and MRCC methods)
   Andreas Klamt, Michael Diedenhofen            : otool_cosmo (COSMO solvation model)
   Jiri Pittner, Ondrej Demel                    : Mk-CCSD
   Frank Weinhold                                : gennbo (NPA and NBO analysis)
   Christopher J. Cramer and Donald G. Truhlar   : smd solvation model
   Lars Goerigk                                  : TD-DFT with DH, B97 family of functionals
   V. Asgeirsson, H. Jonsson                     : NEB implementation
   FAccTs GmbH                                   : IRC, NEB, NEB-TS, Multilevel, MM, QM/MM, CI optimization
   S Lehtola, MJT Oliveira, MAL Marques          : LibXC Library


 Your calculation uses the libint2 library for the computation of 2-el integrals
 For citations please refer to: http://libint.valeyev.net

 Your ORCA version has been built with support for libXC version: 4.2.3
 For citations please refer to: https://tddft.org/programs/libxc/

 This ORCA versions uses:
   CBLAS   interface :  Fast vector & matrix operations
   LAPACKE interface :  Fast linear algebra routines
   SCALAPACK package :  Parallel linear algebra routines


----- Orbital basis set information -----
Your calculation utilizes the basis: def2-QZVPP
   F. Weigend and R. Ahlrichs, Phys. Chem. Chem. Phys. 7, 3297 (2005).

================================================================================
                                        WARNINGS
                       Please study these warnings very carefully!
================================================================================


INFO   : the flag for use of LIBINT has been found!

================================================================================
                                       INPUT FILE
================================================================================
NAME = Ar_def2-qzvpp_137.035989_.inp
|  1> ! LDA def2-qzvpp nori grid5 finalgrid6 verytightscf
|  2> %Pal NProcs 18 End
|  3> 
|  4> % REL
|  5>   Method ZORA
|  6>   ModelPot 1, 0, 0, 0
|  7>   velit 137.035989
|  8> END
|  9> 
| 10> *xyz 16 1
| 11> Ar 0.0 0.0 0.0
| 12> **                         ****END OF INPUT****
================================================================================

                       ****************************
                       * Single Point Calculation *
                       ****************************

---------------------------------
CARTESIAN COORDINATES (ANGSTROEM)
---------------------------------
  Ar     0.000000    0.000000    0.000000

----------------------------
CARTESIAN COORDINATES (A.U.)
----------------------------
  NO LB      ZA    FRAG     MASS         X           Y           Z
   0 Ar   18.0000    0    39.948    0.000000    0.000000    0.000000

--------------------------------
INTERNAL COORDINATES (ANGSTROEM)
--------------------------------
 Ar     0   0   0     0.000000000000     0.00000000     0.00000000

---------------------------
INTERNAL COORDINATES (A.U.)
---------------------------
 Ar     0   0   0     0.000000000000     0.00000000     0.00000000

---------------------
BASIS SET INFORMATION
---------------------
There are 1 groups of distinct atoms

 Group   1 Type Ar  : 20s14p4d2f1g contracted to 9s6p4d2f1g pattern {1031111111/821111/1111/11/1}

Atom   0Ar   basis set group =>   1


           ************************************************************
           *        Program running with 18 parallel MPI-processes    *
           *              working on a common directory               *
           ************************************************************
------------------------------------------------------------------------------
                           ORCA GTO INTEGRAL CALCULATION
------------------------------------------------------------------------------

                         BASIS SET STATISTICS AND STARTUP INFO

 # of primitive gaussian shells          ...   41
 # of primitive gaussian functions       ...  105
 # of contracted shells                  ...   22
 # of contracted basis functions         ...   70
 Highest angular momentum                ...    4
 Maximum contraction depth               ...   10
 Integral package used                   ... LIBINT
 Integral threshhold            Thresh   ...  1.000e-12
 Primitive cut-off              TCut     ...  1.000e-14


------------------------------ INTEGRAL EVALUATION ----------------------------


 * One electron integrals 
 Pre-screening matrix                    ... done
 Shell pair data                         ... done (   0.000 sec)



           ************************************************************
           *        Program running with 18 parallel MPI-processes    *
           *              working on a common directory               *
           ************************************************************
------------------------------------------------------------------------------
                          ORCA RELATIVISTIC HAMILTONIAN
------------------------------------------------------------------------------

Relativistic Method            ... ZORA(MP)
Treatment of potential         ... Van Wuellen
Nucleus model                  ... Point Nucleus
Speed of light used            ... 137.03598900000000


            *************************************************
            *         ZERO ORDER REGULAR APPROXIMATION      *
            *                     ZORA(MP)                  *
            *            Programmed by FN according to      *
            *                   C. van Wuellen              *
            *       J. Chem. Phys. (1998) vol 109, 392-399  *
            *************************************************

Terms included in model potential: +V(e,N)
Basis function cutoff value   ... 1.000000e-12
Loading the fitted atomic densities  (DKH4)  ... done
Calculating the cutoffs                      ... done
Number of fit functions                      ... 15
Setting up the integration grid ... done


           ************************************************************
           *        Program running with 18 parallel MPI-processes    *
           *              working on a common directory               *
           ************************************************************
-------------------------------------------------------------------------------
                                 ORCA SCF
-------------------------------------------------------------------------------

------------
SCF SETTINGS
------------
Hamiltonian:
 Density Functional     Method          .... DFT(GTOs)
 Exchange Functional    Exchange        .... Slater
   X-Alpha parameter    XAlpha          ....  0.666667
 Correlation Functional Correlation     .... VWN-5
 Gradients option       PostSCFGGA      .... off
   Density functional embedding theory  .... OFF

Relativistic Settings:
 Scalar relativistic method             .... ZORA
 Speed of light used       Velit        ....       137.035989
Orbital energies will be scaled


General Settings:
 Integral files         IntName         .... Ar_def2-qzvpp_137.035989_
 Hartree-Fock type      HFTyp           .... RHF
 Total Charge           Charge          ....   16
 Multiplicity           Mult            ....    1
 Number of Electrons    NEL             ....    2
 Basis Dimension        Dim             ....   70
 Nuclear Repulsion      ENuc            ....      0.0000000000 Eh

Convergence Acceleration:
 DIIS                   CNVDIIS         .... on
   Start iteration      DIISMaxIt       ....    12
   Startup error        DIISStart       ....  0.200000
   # of expansion vecs  DIISMaxEq       ....     5
   Bias factor          DIISBfac        ....   1.050
   Max. coefficient     DIISMaxC        ....  10.000
 Newton-Raphson         CNVNR           .... off
 SOSCF                  CNVSOSCF        .... on
   Start iteration      SOSCFMaxIt      ....   150
   Startup grad/error   SOSCFStart      ....  0.003300
 Level Shifting         CNVShift        .... on
   Level shift para.    LevelShift      ....    0.2500
   Turn off err/grad.   ShiftErr        ....    0.0010
 Zerner damping         CNVZerner       .... off
 Static damping         CNVDamp         .... on
   Fraction old density DampFac         ....    0.7000
   Max. Damping (<1)    DampMax         ....    0.9800
   Min. Damping (>=0)   DampMin         ....    0.0000
   Turn off err/grad.   DampErr         ....    0.1000
 Fernandez-Rico         CNVRico         .... off

SCF Procedure:
 Maximum # iterations   MaxIter         ....   125
 SCF integral mode      SCFMode         .... Direct
   Integral package                     .... LIBINT
 Reset frequency        DirectResetFreq ....    20
 Integral Threshold     Thresh          ....  1.000e-12 Eh
 Primitive CutOff       TCut            ....  1.000e-14 Eh

Convergence Tolerance:
 Convergence Check Mode ConvCheckMode   .... Total+1el-Energy
 Convergence forced     ConvForced      .... 0
 Energy Change          TolE            ....  1.000e-09 Eh
 1-El. energy change                    ....  1.000e-06 Eh
 Orbital Gradient       TolG            ....  2.000e-06
 Orbital Rotation angle TolX            ....  2.000e-06
 DIIS Error             TolErr          ....  1.000e-08


Diagonalization of the overlap matrix:
Smallest eigenvalue                        ... 1.706e-03
Time for diagonalization                   ...    0.002 sec
Threshold for overlap eigenvalues          ... 1.000e-08
Number of eigenvalues below threshold      ... 0
Time for construction of square roots      ...    0.001 sec
Total time needed                          ...    0.003 sec

-------------------
DFT GRID GENERATION
-------------------

General Integration Accuracy     IntAcc      ...  5.010
Radial Grid Type                 RadialGrid  ... Gauss-Chebyshev
Angular Grid (max. acc.)         AngularGrid ... Lebedev-434
Angular grid pruning method      GridPruning ... 3 (G Style)
Weight generation scheme         WeightScheme... Becke
Basis function cutoff            BFCut       ...    1.0000e-12
Integration weight cutoff        WCut        ...    1.0000e-14
Grids for H and He will be reduced by one unit

# of grid points (after initial pruning)     ...  11992 (   0.0 sec)
# of grid points (after weights+screening)   ...  11992 (   0.0 sec)
Grid point division into batches done        ...    0.1 sec
Reduced shell lists constructed in    0.1 sec

Total number of grid points                  ...    11992
Total number of batches                      ...      188
Average number of points per batch           ...       63
Average number of grid points per atom       ...    11992
Average number of shells per batch           ...     0.42 ( 1.89%)
Average number of basis functions per batch  ...     1.25 ( 1.79%)
Average number of large shells per batch     ...     0.42 (100.00%)
Average number of large basis fcns per batch ...     1.25 (100.00%)
Maximum spatial batch extension              ...  18.71, 18.71, 18.71 au
Average spatial batch extension              ...   0.97,  0.98,  0.97 au

Time for grid setup =    0.146 sec

------------------------------
INITIAL GUESS: MODEL POTENTIAL
------------------------------
Loading ZORA relativistic densities                ... done
Calculating cut-offs                               ... done
Setting up the integral package                    ... done
Initializing the effective Hamiltonian             ... done
Starting the Coulomb interaction                   ... done (   0.0 sec)
Reading the grid                                   ... done
Mapping shells                                     ... done
Starting the XC term evaluation                    ... done (   0.0 sec)
  promolecular density results
     # of electrons  =     18.000000116
     EX              =    -28.047870263
     EC              =     -1.433252902
     EX+EC           =    -29.481123164
Transforming the Hamiltonian                       ... done (   0.0 sec)
Diagonalizing the Hamiltonian                      ... done (   0.0 sec)
Back transforming the eigenvectors                 ... done (   0.0 sec)
Now organizing SCF variables                       ... done
                      ------------------
                      INITIAL GUESS DONE (   0.2 sec)
                      ------------------
--------------
SCF ITERATIONS
--------------
ITER       Energy         Delta-E        Max-DP      RMS-DP      [F,P]     Damp
               ***  Starting incremental Fock matrix formation  ***
  0   -314.1806595974   0.000000000000 0.00714674  0.00013572  2.4044075 0.7000
  1   -314.1905177870  -0.009858189668 0.00488746  0.00009383  1.6686495 0.7000
  2   -314.1973367431  -0.006818956098 0.00333368  0.00006471  1.1571034 0.7000
  3   -314.2020709918  -0.004734248632 0.00227304  0.00004464  0.8024355 0.7000
  4   -314.2053663494  -0.003295357676 0.00154928  0.00003080  0.5565127 0.7000
                      *** Initiating the SOSCF procedure ***
                      *** Re-Reading the Fockian *** 
                      *** Removing any level shift *** 
ITER      Energy       Delta-E        Grad      Rot      Max-DP    RMS-DP
  5   -314.20766422  -0.0022978664  0.002377  0.002377  0.003519  0.000071
               *** Restarting incremental Fock matrix formation ***
  6   -314.21299830  -0.0053340832  0.005479  0.000026  0.000222  0.000003
  7   -314.21299886  -0.0000005569  0.000163  0.000001  0.000006  0.000000
                 **** Energy Check signals convergence ****
              ***Rediagonalizing the Fockian in SOSCF/NRSCF***

               *****************************************************
               *                     SUCCESS                       *
               *           SCF CONVERGED AFTER   8 CYCLES          *
               *****************************************************

Setting up the final grid:

General Integration Accuracy     IntAcc      ...  5.340
Radial Grid Type                 RadialGrid  ... Gauss-Chebyshev
Angular Grid (max. acc.)         AngularGrid ... Lebedev-590
Angular grid pruning method      GridPruning ... 3 (G Style)
Weight generation scheme         WeightScheme... Becke
Basis function cutoff            BFCut       ...    1.0000e-12
Integration weight cutoff        WCut        ...    1.0000e-14
Grids for H and He will be reduced by one unit

# of grid points (after initial pruning)     ...  18110 (   0.0 sec)
# of grid points (after weights+screening)   ...  18110 (   0.0 sec)
Grid point division into batches done        ...    0.2 sec
Reduced shell lists constructed in    0.2 sec

Total number of grid points                  ...    18110
Total number of batches                      ...      283
Average number of points per batch           ...       63
Average number of grid points per atom       ...    18110
Average number of shells per batch           ...     0.00 ( 0.00%)
Average number of basis functions per batch  ...     0.00 ( 0.00%)
Average number of large shells per batch     ...     0.00 ( -nan%)
Average number of large basis fcns per batch ...     0.00 ( -nan%)
Maximum spatial batch extension              ...  19.03, 19.03, 19.03 au
Average spatial batch extension              ...   0.84,  0.84,  0.80 au

Final grid set up in    0.2 sec
Final integration                            ... done (   0.0 sec)
Change in XC energy                          ...    -0.000001438
Integrated number of electrons               ...     2.000000010
Previous integrated no of electrons          ...     1.999999866

----------------
TOTAL SCF ENERGY
----------------

Total Energy       :         -314.21300029 Eh           -8550.17042 eV

Components:
Nuclear Repulsion  :            0.00000000 Eh               0.00000 eV
Electronic Energy  :         -314.21300029 Eh           -8550.17042 eV
One Electron Energy:         -326.66479164 Eh           -8889.00089 eV
Two Electron Energy:           12.45179135 Eh             338.83047 eV

Virial components:
Potential Energy   :         -630.85754465 Eh          -17166.50652 eV
Kinetic Energy     :          316.64454436 Eh            8616.33610 eV
Virial Ratio       :            1.99232090


DFT components:
N(Alpha)           :        1.000000005063 electrons
N(Beta)            :        1.000000005063 electrons
N(Total)           :        2.000000010126 electrons
E(X)               :       -9.540775683281 Eh       
E(C)               :       -0.237486148406 Eh       
E(XC)              :       -9.778261831686 Eh       
DFET-embed. en.    :        0.000000000000 Eh       

---------------
SCF CONVERGENCE
---------------

  Last Energy change         ...   -4.8703e-10  Tolerance :   1.0000e-09
  Last MAX-Density change    ...    2.9597e-10  Tolerance :   1.0000e-08
  Last RMS-Density change    ...    7.2990e-12  Tolerance :   1.0000e-09
  Last Orbital Gradient      ...    4.1051e-09  Tolerance :   2.0000e-06
  Last Orbital Rotation      ...    1.7648e-11  Tolerance :   2.0000e-06

================================================================================
                                        WARNING
Number of found core electrons (2) does not match given number of chemical core electrons (10)
================================================================================
             **** THE GBW FILE WAS UPDATED (Ar_def2-qzvpp_137.035989_.gbw) ****
             **** DENSITY FILE WAS UPDATED (Ar_def2-qzvpp_137.035989_.scfp) ****
             **** ENERGY FILE WAS UPDATED (Ar_def2-qzvpp_137.035989_.en.tmp) ****
             **** THE GBW FILE WAS UPDATED (Ar_def2-qzvpp_137.035989_.gbw) ****
             **** DENSITY FILE WAS UPDATED (Ar_def2-qzvpp_137.035989_.scfp) ****
----------------
ORBITAL ENERGIES
----------------

  NO   OCC          E(Eh)            E(eV) 
   0   2.0000    -147.591157     -4016.1596 
   1   0.0000     -34.326441      -934.0699 
   2   0.0000     -33.103963      -900.8046 
   3   0.0000     -33.103963      -900.8046 
   4   0.0000     -33.103963      -900.8046 
   5   0.0000     -14.862626      -404.4326 
   6   0.0000     -14.006312      -381.1311 
   7   0.0000     -14.006312      -381.1311 
   8   0.0000     -14.006312      -381.1311 
   9   0.0000     -14.006312      -381.1311 
  10   0.0000     -14.006312      -381.1311 
  11   0.0000     -13.956437      -379.7740 
  12   0.0000     -13.956437      -379.7740 
  13   0.0000     -13.956437      -379.7740 
  14   0.0000      -8.238723      -224.1870 
  15   0.0000      -7.857554      -213.8149 
  16   0.0000      -7.857554      -213.8149 
  17   0.0000      -7.857554      -213.8149 
  18   0.0000      -7.857554      -213.8149 
  19   0.0000      -7.857554      -213.8149 
  20   0.0000      -7.667178      -208.6345 
  21   0.0000      -7.667178      -208.6345 
  22   0.0000      -7.667178      -208.6345 
  23   0.0000      -7.509717      -204.3498 
  24   0.0000      -7.509717      -204.3498 
  25   0.0000      -7.509717      -204.3498 
  26   0.0000      -7.509717      -204.3498 
  27   0.0000      -7.509717      -204.3498 
  28   0.0000      -7.509717      -204.3498 
  29   0.0000      -7.509717      -204.3498 
  30   0.0000      -5.143591      -139.9642 
  31   0.0000      -4.990837      -135.8076 
  32   0.0000      -4.990837      -135.8076 
  33   0.0000      -4.990837      -135.8076 
  34   0.0000      -4.990837      -135.8076 
  35   0.0000      -4.990837      -135.8076 
  36   0.0000      -4.877393      -132.7206 
  37   0.0000      -4.877393      -132.7206 
  38   0.0000      -4.877393      -132.7206 
  39   0.0000      -4.877393      -132.7206 
  40   0.0000      -4.877393      -132.7206 
  41   0.0000      -4.877393      -132.7206 
  42   0.0000      -4.877393      -132.7206 
  43   0.0000      -4.877393      -132.7206 
  44   0.0000      -4.877393      -132.7206 
  45   0.0000      -4.852193      -132.0349 
  46   0.0000      -4.852193      -132.0349 
  47   0.0000      -4.852193      -132.0349 
  48   0.0000      -4.683587      -127.4469 
  49   0.0000      -4.683587      -127.4469 
  50   0.0000      -4.683587      -127.4469 
  51   0.0000      -4.683587      -127.4469 
  52   0.0000      -4.683587      -127.4469 
  53   0.0000      -4.683587      -127.4469 
  54   0.0000      -4.683587      -127.4469 
  55   0.0000      -3.296653       -89.7065 
  56   0.0000      -3.272417       -89.0470 
  57   0.0000      -3.272417       -89.0470 
  58   0.0000      -3.272417       -89.0470 
  59   0.0000      -2.652886       -72.1887 
  60   0.0000      -2.652886       -72.1887 
  61   0.0000      -2.652886       -72.1887 
  62   0.0000      -2.652886       -72.1887 
  63   0.0000      -2.652886       -72.1887 
  64   0.0000      12.463904       339.1601 
  65   0.0000      26.211963       713.2638 
  66   0.0000      26.211963       713.2638 
  67   0.0000      26.211963       713.2638 
  68   0.0000      84.697540      2304.7372 
  69   0.0000     551.515434     15007.4979 

                    ********************************
                    * MULLIKEN POPULATION ANALYSIS *
                    ********************************

-----------------------
MULLIKEN ATOMIC CHARGES
-----------------------
   0 Ar:   16.000000
Sum of atomic charges:   16.0000000

--------------------------------
MULLIKEN REDUCED ORBITAL CHARGES
--------------------------------
  0 Ars       :     2.000000  s :     2.000000
      pz      :     0.000000  p :     0.000000
      px      :     0.000000
      py      :     0.000000
      dz2     :     0.000000  d :     0.000000
      dxz     :     0.000000
      dyz     :     0.000000
      dx2y2   :     0.000000
      dxy     :     0.000000
      f0      :     0.000000  f :     0.000000
      f+1     :     0.000000
      f-1     :     0.000000
      f+2     :     0.000000
      f-2     :     0.000000
      f+3     :     0.000000
      f-3     :     0.000000
      g0      :     0.000000  g :     0.000000
      g+1     :     0.000000
      g-1     :     0.000000
      g+2     :     0.000000
      g-2     :     0.000000
      g+3     :     0.000000
      g-3     :     0.000000
      g+4     :     0.000000
      g-4     :     0.000000


                     *******************************
                     * LOEWDIN POPULATION ANALYSIS *
                     *******************************

----------------------
LOEWDIN ATOMIC CHARGES
----------------------
   0 Ar:   16.000000

-------------------------------
LOEWDIN REDUCED ORBITAL CHARGES
-------------------------------
  0 Ars       :     2.000000  s :     2.000000
      pz      :     0.000000  p :     0.000000
      px      :     0.000000
      py      :     0.000000
      dz2     :     0.000000  d :     0.000000
      dxz     :     0.000000
      dyz     :     0.000000
      dx2y2   :     0.000000
      dxy     :     0.000000
      f0      :     0.000000  f :     0.000000
      f+1     :     0.000000
      f-1     :     0.000000
      f+2     :     0.000000
      f-2     :     0.000000
      f+3     :     0.000000
      f-3     :     0.000000
      g0      :     0.000000  g :     0.000000
      g+1     :     0.000000
      g-1     :     0.000000
      g+2     :     0.000000
      g-2     :     0.000000
      g+3     :     0.000000
      g-3     :     0.000000
      g+4     :     0.000000
      g-4     :     0.000000


                      *****************************
                      * MAYER POPULATION ANALYSIS *
                      *****************************

  NA   - Mulliken gross atomic population
  ZA   - Total nuclear charge
  QA   - Mulliken gross atomic charge
  VA   - Mayer's total valence
  BVA  - Mayer's bonded valence
  FA   - Mayer's free valence

  ATOM       NA         ZA         QA         VA         BVA        FA
  0 Ar     2.0000    18.0000    16.0000     0.0000     0.0000     0.0000

  Mayer bond orders larger than 0.100000


--------------------------
ATOM BASIS FOR ELEMENT Ar
--------------------------
 NewGTO Ar
 S 20
    1    1673421.949400000041         0.000011765604
    2     250601.753729999997         0.000091467583
    3      57030.912120000001         0.000480852280
    4      16153.303915000000         0.002025857026
    5       5269.410928800000         0.007322801490
    6       1902.031554100000         0.023342963524
    7        741.576771590000         0.065710029821
    8        307.209019060000         0.157988663526
    9        133.527862030000         0.300403324143
   10         60.253381291000         0.380666265827
   11        522.024262060000        -0.000758903609
   12        161.512904690000        -0.006907835282
   13         62.126369433000        -0.026833629051
   14         27.590930012000         0.233570708746
   15         11.175528881000         0.006271572331
   16          5.295906513700         0.011695132646
   17          2.478279889500        -0.007482508676
   18          0.912620950600         0.003746420981
   19          0.404260675500        -0.001973858687
   20          0.165628863100         0.000532251646
 S 20
    1    1673421.949400000041         0.000004060439
    2     250601.753729999997         0.000031566467
    3      57030.912120000001         0.000165947401
    4      16153.303915000000         0.000699145502
    5       5269.410928800000         0.002527179192
    6       1902.031554100000         0.008055912995
    7        741.576771590000         0.022677252723
    8        307.209019060000         0.054523622343
    9        133.527862030000         0.103672485295
   10         60.253381291000         0.131372107679
   11        522.024262060000         0.002586797886
   12        161.512904690000         0.023546038647
   13         62.126369433000         0.091465074210
   14         27.590930012000         0.172178778624
   15         11.175528881000        -0.420206992511
   16          5.295906513700        -0.661052154203
   17          2.478279889500        -0.124818571977
   18          0.912620950600         0.005224756594
   19          0.404260675500        -0.002163889585
   20          0.165628863100         0.000517641222
 S 20
    1    1673421.949400000041        -0.000002143618
    2     250601.753729999997        -0.000016664809
    3      57030.912120000001        -0.000087608210
    4      16153.303915000000        -0.000369098193
    5       5269.410928800000        -0.001334167595
    6       1902.031554100000        -0.004252938652
    7        741.576771590000        -0.011971947150
    8        307.209019060000        -0.028784523995
    9        133.527862030000        -0.054731564272
   10         60.253381291000        -0.069354958883
   11        522.024262060000        -0.001836649022
   12        161.512904690000        -0.016717892454
   13         62.126369433000        -0.064940999070
   14         27.590930012000        -0.098621313089
   15         11.175528881000         0.334037616752
   16          5.295906513700         1.120100755358
   17          2.478279889500        -0.953015740904
   18          0.912620950600        -0.862358595968
   19          0.404260675500         0.178495332099
   20          0.165628863100        -0.041502540737
 S 20
    1    1673421.949400000041        -0.000001365518
    2     250601.753729999997        -0.000010615743
    3      57030.912120000001        -0.000055807797
    4      16153.303915000000        -0.000235121310
    5       5269.410928800000        -0.000849885582
    6       1902.031554100000        -0.002709188304
    7        741.576771590000        -0.007626317201
    8        307.209019060000        -0.018336191072
    9        133.527862030000        -0.034864860726
   10         60.253381291000        -0.044180191344
   11        522.024262060000        -0.001420736712
   12        161.512904690000        -0.012932097136
   13         62.126369433000        -0.050234998844
   14         27.590930012000        -0.045850810406
   15         11.175528881000         0.165308272061
   16          5.295906513700         1.337176852754
   17          2.478279889500        -2.067831766440
   18          0.912620950600        -0.241103442370
   19          0.404260675500         1.647478890189
   20          0.165628863100        -0.190860732189
 S 20
    1    1673421.949400000041         0.000001005602
    2     250601.753729999997         0.000007817700
    3      57030.912120000001         0.000041098264
    4      16153.303915000000         0.000173149239
    5       5269.410928800000         0.000625877093
    6       1902.031554100000         0.001995114324
    7        741.576771590000         0.005616211567
    8        307.209019060000         0.013503231727
    9        133.527862030000         0.025675359276
   10         60.253381291000         0.032535402753
   11        522.024262060000         0.001259342460
   12        161.512904690000         0.011463023989
   13         62.126369433000         0.044528353815
   14         27.590930012000         0.010451667880
   15         11.175528881000        -0.027713479725
   16          5.295906513700        -1.529512600010
   17          2.478279889500         2.977146503808
   18          0.912620950600        -2.131554785750
   19          0.404260675500        -0.528676686391
   20          0.165628863100         1.575687354665
 S 20
    1    1673421.949400000041         0.000001240326
    2     250601.753729999997         0.000009642484
    3      57030.912120000001         0.000050691299
    4      16153.303915000000         0.000213565225
    5       5269.410928800000         0.000771967481
    6       1902.031554100000         0.002460808035
    7        741.576771590000         0.006927131134
    8        307.209019060000         0.016655116317
    9        133.527862030000         0.031668426038
   10         60.253381291000         0.040129720664
   11        522.024262060000         0.001752677991
   12        161.512904690000         0.015953555532
   13         62.126369433000         0.061971916485
   14         27.590930012000        -0.010489563197
   15         11.175528881000         0.066853119090
   16          5.295906513700        -2.455553354576
   17          2.478279889500         5.392273140130
   18          0.912620950600        -7.319156156210
   19          0.404260675500         6.590351875182
   20          0.165628863100        -2.671790529230
 S 20
    1    1673421.949400000041        -0.000004867746
    2     250601.753729999997        -0.000037842589
    3      57030.912120000001        -0.000198941465
    4      16153.303915000000        -0.000838151304
    5       5269.410928800000        -0.003029639082
    6       1902.031554100000        -0.009657609136
    7        741.576771590000        -0.027185999056
    8        307.209019060000        -0.065364141047
    9        133.527862030000        -0.124284900018
   10         60.253381291000        -0.157491828440
   11        522.024262060000         0.001383701010
   12        161.512904690000         0.012594983794
   13         62.126369433000         0.048925475092
   14         27.590930012000        -1.334176595340
   15         11.175528881000         6.956994176242
   16          5.295906513700       -11.021417085015
   17          2.478279889500         8.476625892278
   18          0.912620950600        -4.714445508067
   19          0.404260675500         2.546425598066
   20          0.165628863100        -0.694079099514
 S 20
    1    1673421.949400000041        -0.000002474737
    2     250601.753729999997        -0.000019238981
    3      57030.912120000001        -0.000101140837
    4      16153.303915000000        -0.000426111894
    5       5269.410928800000        -0.001540253222
    6       1902.031554100000        -0.004909879754
    7        741.576771590000        -0.013821224742
    8        307.209019060000        -0.033230799488
    9        133.527862030000        -0.063185816041
   10         60.253381291000        -0.080068050892
   11        522.024262060000        -0.047087114667
   12        161.512904690000        -0.428605198628
   13         62.126369433000        -1.664925760397
   14         27.590930012000         6.145134368567
   15         11.175528881000        -8.680323250952
   16          5.295906513700         7.836720178304
   17          2.478279889500        -4.375440923975
   18          0.912620950600         2.022942561873
   19          0.404260675500        -1.034556745564
   20          0.165628863100         0.275125905571
 S 20
    1    1673421.949400000041        -0.000082019574
    2     250601.753729999997        -0.000637632540
    3      57030.912120000001        -0.003352084429
    4      16153.303915000000        -0.014122515537
    5       5269.410928800000        -0.051048211442
    6       1902.031554100000        -0.162726866109
    7        741.576771590000        -0.458073252503
    8        307.209019060000        -1.101359733922
    9        133.527862030000        -2.094151047071
   10         60.253381291000        -2.653674560495
   11        522.024262060000         0.195542446460
   12        161.512904690000         1.779903264361
   13         62.126369433000         6.914071050308
   14         27.590930012000        -5.382365237518
   15         11.175528881000         5.020219678983
   16          5.295906513700        -4.003365763675
   17          2.478279889500         2.161633349194
   18          0.912620950600        -0.999572312684
   19          0.404260675500         0.513586057077
   20          0.165628863100        -0.136948964881
 P 14
    1       2868.450458100000         0.000324343507
    2        679.718695900000         0.002823910174
    3        220.367588240000         0.015358169546
    4         83.620439734000         0.060655551603
    5         34.964322657000         0.178813293317
    6         15.525131784000         0.374309020372
    7          7.099297980600         0.521614496925
    8          3.302133660200         0.384894876610
    9        128.787656670000         0.009357165887
   10          8.435786797700        -0.196597889715
   11          1.461866185500        -0.348949974891
   12          0.646580101000         0.250782456126
   13          0.272292957500        -0.123021828159
   14          0.109051824500         0.037162894729
 P 14
    1       2868.450458100000         0.000174396481
    2        679.718695900000         0.001518390184
    3        220.367588240000         0.008257944640
    4         83.620439734000         0.032613924839
    5         34.964322657000         0.096146241429
    6         15.525131784000         0.201262472013
    7          7.099297980600         0.280467253994
    8          3.302133660200         0.206954388261
    9        128.787656670000         0.008015161597
   10          8.435786797700        -0.168401829643
   11          1.461866185500        -1.531792631222
   12          0.646580101000         0.537773202694
   13          0.272292957500        -0.275795580925
   14          0.109051824500         0.082326850387
 P 14
    1       2868.450458100000         0.000101707347
    2        679.718695900000         0.000885519225
    3        220.367588240000         0.004816001060
    4         83.620439734000         0.019020313584
    5         34.964322657000         0.056072112477
    6         15.525131784000         0.117375487595
    7          7.099297980600         0.163567407091
    8          3.302133660200         0.120694990919
    9        128.787656670000         0.005775696169
   10          8.435786797700        -0.121349743306
   11          1.461866185500        -1.632091327608
   12          0.646580101000         2.007540668184
   13          0.272292957500        -0.194438088235
   14          0.109051824500         0.080472511262
 P 14
    1       2868.450458100000         0.000063412897
    2        679.718695900000         0.000552107013
    3        220.367588240000         0.003002699305
    4         83.620439734000         0.011858860011
    5         34.964322657000         0.034960061487
    6         15.525131784000         0.073181731205
    7          7.099297980600         0.101981651067
    8          3.302133660200         0.075251388210
    9        128.787656670000         0.003981899912
   10          8.435786797700        -0.083661348870
   11          1.461866185500        -1.332876593427
   12          0.646580101000         2.758959848554
   13          0.272292957500        -2.168746956956
   14          0.109051824500         0.080780098951
 P 14
    1       2868.450458100000         0.000034426247
    2        679.718695900000         0.000299733547
    3        220.367588240000         0.001630136353
    4         83.620439734000         0.006438060174
    5         34.964322657000         0.018979478577
    6         15.525131784000         0.039729652654
    7          7.099297980600         0.055364850041
    8          3.302133660200         0.040853249384
    9        128.787656670000         0.002287739644
   10          8.435786797700        -0.048066347408
   11          1.461866185500        -0.805804316187
   12          0.646580101000         2.088714640739
   13          0.272292957500        -2.880684111672
   14          0.109051824500         2.025425906066
 P 14
    1       2868.450458100000         0.000944090415
    2        679.718695900000         0.008219762290
    3        220.367588240000         0.044704149608
    4         83.620439734000         0.176554559141
    5         34.964322657000         0.520484957042
    6         15.525131784000         1.089528696523
    7          7.099297980600         1.518301542284
    8          3.302133660200         1.120341724048
    9        128.787656670000         0.182603951661
   10          8.435786797700        -3.836583852783
   11          1.461866185500        -0.292972129778
   12          0.646580101000        -0.111550304835
   13          0.272292957500         0.124010587066
   14          0.109051824500        -0.046318602081
 D 4
    1          6.315000000000         0.621696941727
    2          1.562000000000         0.653730080497
    3          0.715000000000        -0.194690593456
    4          0.297000000000         0.063757964714
 D 4
    1          6.315000000000         0.522487441331
    2          1.562000000000        -0.034467048403
    3          0.715000000000        -0.960105038886
    4          0.297000000000         0.044356009571
 D 4
    1          6.315000000000         0.424213830126
    2          1.562000000000        -0.487486606858
    3          0.715000000000        -0.402529393387
    4          0.297000000000         1.178633248956
 D 4
    1          6.315000000000         0.776747824580
    2          1.562000000000        -1.959401452596
    3          0.715000000000         2.380619312940
    4          0.297000000000        -1.208047630508
 F 2
    1          0.543000000000         0.134514809843
    2          1.325000000000         0.907545001187
 F 2
    1          0.543000000000        -1.306375738322
    2          1.325000000000         0.949249110911
 G 1
    1          1.007000000000         1.000000000000
 end
  // -----------------------------------------------
  // The basis set
  // -----------------------------------------------
  BAS[ATNO] = new BFNGauss[NSH];
  // Basis function   1 L = s
  InitBFNGauss(BAS[ATNO][  0]);
  BAS[ATNO][  0].l  = 0;
  BAS[ATNO][  0].ng = 20;
  BAS[ATNO][  0].a[  0] =   1673421.949400000041;     BAS[ATNO][  0].d[  0] =         0.000011765604;
  BAS[ATNO][  0].a[  1] =    250601.753729999997;     BAS[ATNO][  0].d[  1] =         0.000091467583;
  BAS[ATNO][  0].a[  2] =     57030.912120000001;     BAS[ATNO][  0].d[  2] =         0.000480852280;
  BAS[ATNO][  0].a[  3] =     16153.303915000000;     BAS[ATNO][  0].d[  3] =         0.002025857026;
  BAS[ATNO][  0].a[  4] =      5269.410928800000;     BAS[ATNO][  0].d[  4] =         0.007322801490;
  BAS[ATNO][  0].a[  5] =      1902.031554100000;     BAS[ATNO][  0].d[  5] =         0.023342963524;
  BAS[ATNO][  0].a[  6] =       741.576771590000;     BAS[ATNO][  0].d[  6] =         0.065710029821;
  BAS[ATNO][  0].a[  7] =       307.209019060000;     BAS[ATNO][  0].d[  7] =         0.157988663526;
  BAS[ATNO][  0].a[  8] =       133.527862030000;     BAS[ATNO][  0].d[  8] =         0.300403324143;
  BAS[ATNO][  0].a[  9] =        60.253381291000;     BAS[ATNO][  0].d[  9] =         0.380666265827;
  BAS[ATNO][  0].a[ 10] =       522.024262060000;     BAS[ATNO][  0].d[ 10] =        -0.000758903609;
  BAS[ATNO][  0].a[ 11] =       161.512904690000;     BAS[ATNO][  0].d[ 11] =        -0.006907835282;
  BAS[ATNO][  0].a[ 12] =        62.126369433000;     BAS[ATNO][  0].d[ 12] =        -0.026833629051;
  BAS[ATNO][  0].a[ 13] =        27.590930012000;     BAS[ATNO][  0].d[ 13] =         0.233570708746;
  BAS[ATNO][  0].a[ 14] =        11.175528881000;     BAS[ATNO][  0].d[ 14] =         0.006271572331;
  BAS[ATNO][  0].a[ 15] =         5.295906513700;     BAS[ATNO][  0].d[ 15] =         0.011695132646;
  BAS[ATNO][  0].a[ 16] =         2.478279889500;     BAS[ATNO][  0].d[ 16] =        -0.007482508676;
  BAS[ATNO][  0].a[ 17] =         0.912620950600;     BAS[ATNO][  0].d[ 17] =         0.003746420981;
  BAS[ATNO][  0].a[ 18] =         0.404260675500;     BAS[ATNO][  0].d[ 18] =        -0.001973858687;
  BAS[ATNO][  0].a[ 19] =         0.165628863100;     BAS[ATNO][  0].d[ 19] =         0.000532251646;

  // Basis function   2 L = s
  InitBFNGauss(BAS[ATNO][  1]);
  BAS[ATNO][  1].l  = 0;
  BAS[ATNO][  1].ng = 20;
  BAS[ATNO][  1].a[  0] =   1673421.949400000041;     BAS[ATNO][  1].d[  0] =        -0.000004060439;
  BAS[ATNO][  1].a[  1] =    250601.753729999997;     BAS[ATNO][  1].d[  1] =        -0.000031566467;
  BAS[ATNO][  1].a[  2] =     57030.912120000001;     BAS[ATNO][  1].d[  2] =        -0.000165947401;
  BAS[ATNO][  1].a[  3] =     16153.303915000000;     BAS[ATNO][  1].d[  3] =        -0.000699145502;
  BAS[ATNO][  1].a[  4] =      5269.410928800000;     BAS[ATNO][  1].d[  4] =        -0.002527179192;
  BAS[ATNO][  1].a[  5] =      1902.031554100000;     BAS[ATNO][  1].d[  5] =        -0.008055912995;
  BAS[ATNO][  1].a[  6] =       741.576771590000;     BAS[ATNO][  1].d[  6] =        -0.022677252723;
  BAS[ATNO][  1].a[  7] =       307.209019060000;     BAS[ATNO][  1].d[  7] =        -0.054523622343;
  BAS[ATNO][  1].a[  8] =       133.527862030000;     BAS[ATNO][  1].d[  8] =        -0.103672485295;
  BAS[ATNO][  1].a[  9] =        60.253381291000;     BAS[ATNO][  1].d[  9] =        -0.131372107679;
  BAS[ATNO][  1].a[ 10] =       522.024262060000;     BAS[ATNO][  1].d[ 10] =        -0.002586797886;
  BAS[ATNO][  1].a[ 11] =       161.512904690000;     BAS[ATNO][  1].d[ 11] =        -0.023546038647;
  BAS[ATNO][  1].a[ 12] =        62.126369433000;     BAS[ATNO][  1].d[ 12] =        -0.091465074210;
  BAS[ATNO][  1].a[ 13] =        27.590930012000;     BAS[ATNO][  1].d[ 13] =        -0.172178778624;
  BAS[ATNO][  1].a[ 14] =        11.175528881000;     BAS[ATNO][  1].d[ 14] =         0.420206992511;
  BAS[ATNO][  1].a[ 15] =         5.295906513700;     BAS[ATNO][  1].d[ 15] =         0.661052154203;
  BAS[ATNO][  1].a[ 16] =         2.478279889500;     BAS[ATNO][  1].d[ 16] =         0.124818571977;
  BAS[ATNO][  1].a[ 17] =         0.912620950600;     BAS[ATNO][  1].d[ 17] =        -0.005224756594;
  BAS[ATNO][  1].a[ 18] =         0.404260675500;     BAS[ATNO][  1].d[ 18] =         0.002163889585;
  BAS[ATNO][  1].a[ 19] =         0.165628863100;     BAS[ATNO][  1].d[ 19] =        -0.000517641222;

  // Basis function   3 L = s
  InitBFNGauss(BAS[ATNO][  2]);
  BAS[ATNO][  2].l  = 0;
  BAS[ATNO][  2].ng = 20;
  BAS[ATNO][  2].a[  0] =   1673421.949400000041;     BAS[ATNO][  2].d[  0] =        -0.000002143618;
  BAS[ATNO][  2].a[  1] =    250601.753729999997;     BAS[ATNO][  2].d[  1] =        -0.000016664809;
  BAS[ATNO][  2].a[  2] =     57030.912120000001;     BAS[ATNO][  2].d[  2] =        -0.000087608210;
  BAS[ATNO][  2].a[  3] =     16153.303915000000;     BAS[ATNO][  2].d[  3] =        -0.000369098193;
  BAS[ATNO][  2].a[  4] =      5269.410928800000;     BAS[ATNO][  2].d[  4] =        -0.001334167595;
  BAS[ATNO][  2].a[  5] =      1902.031554100000;     BAS[ATNO][  2].d[  5] =        -0.004252938652;
  BAS[ATNO][  2].a[  6] =       741.576771590000;     BAS[ATNO][  2].d[  6] =        -0.011971947150;
  BAS[ATNO][  2].a[  7] =       307.209019060000;     BAS[ATNO][  2].d[  7] =        -0.028784523995;
  BAS[ATNO][  2].a[  8] =       133.527862030000;     BAS[ATNO][  2].d[  8] =        -0.054731564272;
  BAS[ATNO][  2].a[  9] =        60.253381291000;     BAS[ATNO][  2].d[  9] =        -0.069354958883;
  BAS[ATNO][  2].a[ 10] =       522.024262060000;     BAS[ATNO][  2].d[ 10] =        -0.001836649022;
  BAS[ATNO][  2].a[ 11] =       161.512904690000;     BAS[ATNO][  2].d[ 11] =        -0.016717892454;
  BAS[ATNO][  2].a[ 12] =        62.126369433000;     BAS[ATNO][  2].d[ 12] =        -0.064940999070;
  BAS[ATNO][  2].a[ 13] =        27.590930012000;     BAS[ATNO][  2].d[ 13] =        -0.098621313089;
  BAS[ATNO][  2].a[ 14] =        11.175528881000;     BAS[ATNO][  2].d[ 14] =         0.334037616752;
  BAS[ATNO][  2].a[ 15] =         5.295906513700;     BAS[ATNO][  2].d[ 15] =         1.120100755358;
  BAS[ATNO][  2].a[ 16] =         2.478279889500;     BAS[ATNO][  2].d[ 16] =        -0.953015740904;
  BAS[ATNO][  2].a[ 17] =         0.912620950600;     BAS[ATNO][  2].d[ 17] =        -0.862358595968;
  BAS[ATNO][  2].a[ 18] =         0.404260675500;     BAS[ATNO][  2].d[ 18] =         0.178495332099;
  BAS[ATNO][  2].a[ 19] =         0.165628863100;     BAS[ATNO][  2].d[ 19] =        -0.041502540737;

  // Basis function   4 L = s
  InitBFNGauss(BAS[ATNO][  3]);
  BAS[ATNO][  3].l  = 0;
  BAS[ATNO][  3].ng = 20;
  BAS[ATNO][  3].a[  0] =   1673421.949400000041;     BAS[ATNO][  3].d[  0] =         0.000001365518;
  BAS[ATNO][  3].a[  1] =    250601.753729999997;     BAS[ATNO][  3].d[  1] =         0.000010615743;
  BAS[ATNO][  3].a[  2] =     57030.912120000001;     BAS[ATNO][  3].d[  2] =         0.000055807797;
  BAS[ATNO][  3].a[  3] =     16153.303915000000;     BAS[ATNO][  3].d[  3] =         0.000235121310;
  BAS[ATNO][  3].a[  4] =      5269.410928800000;     BAS[ATNO][  3].d[  4] =         0.000849885582;
  BAS[ATNO][  3].a[  5] =      1902.031554100000;     BAS[ATNO][  3].d[  5] =         0.002709188304;
  BAS[ATNO][  3].a[  6] =       741.576771590000;     BAS[ATNO][  3].d[  6] =         0.007626317201;
  BAS[ATNO][  3].a[  7] =       307.209019060000;     BAS[ATNO][  3].d[  7] =         0.018336191072;
  BAS[ATNO][  3].a[  8] =       133.527862030000;     BAS[ATNO][  3].d[  8] =         0.034864860726;
  BAS[ATNO][  3].a[  9] =        60.253381291000;     BAS[ATNO][  3].d[  9] =         0.044180191344;
  BAS[ATNO][  3].a[ 10] =       522.024262060000;     BAS[ATNO][  3].d[ 10] =         0.001420736712;
  BAS[ATNO][  3].a[ 11] =       161.512904690000;     BAS[ATNO][  3].d[ 11] =         0.012932097136;
  BAS[ATNO][  3].a[ 12] =        62.126369433000;     BAS[ATNO][  3].d[ 12] =         0.050234998844;
  BAS[ATNO][  3].a[ 13] =        27.590930012000;     BAS[ATNO][  3].d[ 13] =         0.045850810406;
  BAS[ATNO][  3].a[ 14] =        11.175528881000;     BAS[ATNO][  3].d[ 14] =        -0.165308272061;
  BAS[ATNO][  3].a[ 15] =         5.295906513700;     BAS[ATNO][  3].d[ 15] =        -1.337176852754;
  BAS[ATNO][  3].a[ 16] =         2.478279889500;     BAS[ATNO][  3].d[ 16] =         2.067831766440;
  BAS[ATNO][  3].a[ 17] =         0.912620950600;     BAS[ATNO][  3].d[ 17] =         0.241103442370;
  BAS[ATNO][  3].a[ 18] =         0.404260675500;     BAS[ATNO][  3].d[ 18] =        -1.647478890189;
  BAS[ATNO][  3].a[ 19] =         0.165628863100;     BAS[ATNO][  3].d[ 19] =         0.190860732189;

  // Basis function   5 L = s
  InitBFNGauss(BAS[ATNO][  4]);
  BAS[ATNO][  4].l  = 0;
  BAS[ATNO][  4].ng = 20;
  BAS[ATNO][  4].a[  0] =   1673421.949400000041;     BAS[ATNO][  4].d[  0] =         0.000001005602;
  BAS[ATNO][  4].a[  1] =    250601.753729999997;     BAS[ATNO][  4].d[  1] =         0.000007817700;
  BAS[ATNO][  4].a[  2] =     57030.912120000001;     BAS[ATNO][  4].d[  2] =         0.000041098264;
  BAS[ATNO][  4].a[  3] =     16153.303915000000;     BAS[ATNO][  4].d[  3] =         0.000173149239;
  BAS[ATNO][  4].a[  4] =      5269.410928800000;     BAS[ATNO][  4].d[  4] =         0.000625877093;
  BAS[ATNO][  4].a[  5] =      1902.031554100000;     BAS[ATNO][  4].d[  5] =         0.001995114324;
  BAS[ATNO][  4].a[  6] =       741.576771590000;     BAS[ATNO][  4].d[  6] =         0.005616211567;
  BAS[ATNO][  4].a[  7] =       307.209019060000;     BAS[ATNO][  4].d[  7] =         0.013503231727;
  BAS[ATNO][  4].a[  8] =       133.527862030000;     BAS[ATNO][  4].d[  8] =         0.025675359276;
  BAS[ATNO][  4].a[  9] =        60.253381291000;     BAS[ATNO][  4].d[  9] =         0.032535402753;
  BAS[ATNO][  4].a[ 10] =       522.024262060000;     BAS[ATNO][  4].d[ 10] =         0.001259342460;
  BAS[ATNO][  4].a[ 11] =       161.512904690000;     BAS[ATNO][  4].d[ 11] =         0.011463023989;
  BAS[ATNO][  4].a[ 12] =        62.126369433000;     BAS[ATNO][  4].d[ 12] =         0.044528353815;
  BAS[ATNO][  4].a[ 13] =        27.590930012000;     BAS[ATNO][  4].d[ 13] =         0.010451667880;
  BAS[ATNO][  4].a[ 14] =        11.175528881000;     BAS[ATNO][  4].d[ 14] =        -0.027713479725;
  BAS[ATNO][  4].a[ 15] =         5.295906513700;     BAS[ATNO][  4].d[ 15] =        -1.529512600010;
  BAS[ATNO][  4].a[ 16] =         2.478279889500;     BAS[ATNO][  4].d[ 16] =         2.977146503808;
  BAS[ATNO][  4].a[ 17] =         0.912620950600;     BAS[ATNO][  4].d[ 17] =        -2.131554785750;
  BAS[ATNO][  4].a[ 18] =         0.404260675500;     BAS[ATNO][  4].d[ 18] =        -0.528676686391;
  BAS[ATNO][  4].a[ 19] =         0.165628863100;     BAS[ATNO][  4].d[ 19] =         1.575687354665;

  // Basis function   6 L = s
  InitBFNGauss(BAS[ATNO][  5]);
  BAS[ATNO][  5].l  = 0;
  BAS[ATNO][  5].ng = 20;
  BAS[ATNO][  5].a[  0] =   1673421.949400000041;     BAS[ATNO][  5].d[  0] =        -0.000001240326;
  BAS[ATNO][  5].a[  1] =    250601.753729999997;     BAS[ATNO][  5].d[  1] =        -0.000009642484;
  BAS[ATNO][  5].a[  2] =     57030.912120000001;     BAS[ATNO][  5].d[  2] =        -0.000050691299;
  BAS[ATNO][  5].a[  3] =     16153.303915000000;     BAS[ATNO][  5].d[  3] =        -0.000213565225;
  BAS[ATNO][  5].a[  4] =      5269.410928800000;     BAS[ATNO][  5].d[  4] =        -0.000771967481;
  BAS[ATNO][  5].a[  5] =      1902.031554100000;     BAS[ATNO][  5].d[  5] =        -0.002460808035;
  BAS[ATNO][  5].a[  6] =       741.576771590000;     BAS[ATNO][  5].d[  6] =        -0.006927131134;
  BAS[ATNO][  5].a[  7] =       307.209019060000;     BAS[ATNO][  5].d[  7] =        -0.016655116317;
  BAS[ATNO][  5].a[  8] =       133.527862030000;     BAS[ATNO][  5].d[  8] =        -0.031668426038;
  BAS[ATNO][  5].a[  9] =        60.253381291000;     BAS[ATNO][  5].d[  9] =        -0.040129720664;
  BAS[ATNO][  5].a[ 10] =       522.024262060000;     BAS[ATNO][  5].d[ 10] =        -0.001752677991;
  BAS[ATNO][  5].a[ 11] =       161.512904690000;     BAS[ATNO][  5].d[ 11] =        -0.015953555532;
  BAS[ATNO][  5].a[ 12] =        62.126369433000;     BAS[ATNO][  5].d[ 12] =        -0.061971916485;
  BAS[ATNO][  5].a[ 13] =        27.590930012000;     BAS[ATNO][  5].d[ 13] =         0.010489563197;
  BAS[ATNO][  5].a[ 14] =        11.175528881000;     BAS[ATNO][  5].d[ 14] =        -0.066853119090;
  BAS[ATNO][  5].a[ 15] =         5.295906513700;     BAS[ATNO][  5].d[ 15] =         2.455553354576;
  BAS[ATNO][  5].a[ 16] =         2.478279889500;     BAS[ATNO][  5].d[ 16] =        -5.392273140130;
  BAS[ATNO][  5].a[ 17] =         0.912620950600;     BAS[ATNO][  5].d[ 17] =         7.319156156210;
  BAS[ATNO][  5].a[ 18] =         0.404260675500;     BAS[ATNO][  5].d[ 18] =        -6.590351875182;
  BAS[ATNO][  5].a[ 19] =         0.165628863100;     BAS[ATNO][  5].d[ 19] =         2.671790529230;

  // Basis function   7 L = s
  InitBFNGauss(BAS[ATNO][  6]);
  BAS[ATNO][  6].l  = 0;
  BAS[ATNO][  6].ng = 20;
  BAS[ATNO][  6].a[  0] =   1673421.949400000041;     BAS[ATNO][  6].d[  0] =         0.000004867746;
  BAS[ATNO][  6].a[  1] =    250601.753729999997;     BAS[ATNO][  6].d[  1] =         0.000037842589;
  BAS[ATNO][  6].a[  2] =     57030.912120000001;     BAS[ATNO][  6].d[  2] =         0.000198941465;
  BAS[ATNO][  6].a[  3] =     16153.303915000000;     BAS[ATNO][  6].d[  3] =         0.000838151304;
  BAS[ATNO][  6].a[  4] =      5269.410928800000;     BAS[ATNO][  6].d[  4] =         0.003029639082;
  BAS[ATNO][  6].a[  5] =      1902.031554100000;     BAS[ATNO][  6].d[  5] =         0.009657609136;
  BAS[ATNO][  6].a[  6] =       741.576771590000;     BAS[ATNO][  6].d[  6] =         0.027185999056;
  BAS[ATNO][  6].a[  7] =       307.209019060000;     BAS[ATNO][  6].d[  7] =         0.065364141047;
  BAS[ATNO][  6].a[  8] =       133.527862030000;     BAS[ATNO][  6].d[  8] =         0.124284900018;
  BAS[ATNO][  6].a[  9] =        60.253381291000;     BAS[ATNO][  6].d[  9] =         0.157491828440;
  BAS[ATNO][  6].a[ 10] =       522.024262060000;     BAS[ATNO][  6].d[ 10] =        -0.001383701010;
  BAS[ATNO][  6].a[ 11] =       161.512904690000;     BAS[ATNO][  6].d[ 11] =        -0.012594983794;
  BAS[ATNO][  6].a[ 12] =        62.126369433000;     BAS[ATNO][  6].d[ 12] =        -0.048925475092;
  BAS[ATNO][  6].a[ 13] =        27.590930012000;     BAS[ATNO][  6].d[ 13] =         1.334176595340;
  BAS[ATNO][  6].a[ 14] =        11.175528881000;     BAS[ATNO][  6].d[ 14] =        -6.956994176242;
  BAS[ATNO][  6].a[ 15] =         5.295906513700;     BAS[ATNO][  6].d[ 15] =        11.021417085015;
  BAS[ATNO][  6].a[ 16] =         2.478279889500;     BAS[ATNO][  6].d[ 16] =        -8.476625892278;
  BAS[ATNO][  6].a[ 17] =         0.912620950600;     BAS[ATNO][  6].d[ 17] =         4.714445508067;
  BAS[ATNO][  6].a[ 18] =         0.404260675500;     BAS[ATNO][  6].d[ 18] =        -2.546425598066;
  BAS[ATNO][  6].a[ 19] =         0.165628863100;     BAS[ATNO][  6].d[ 19] =         0.694079099514;

  // Basis function   8 L = s
  InitBFNGauss(BAS[ATNO][  7]);
  BAS[ATNO][  7].l  = 0;
  BAS[ATNO][  7].ng = 20;
  BAS[ATNO][  7].a[  0] =   1673421.949400000041;     BAS[ATNO][  7].d[  0] =         0.000002474737;
  BAS[ATNO][  7].a[  1] =    250601.753729999997;     BAS[ATNO][  7].d[  1] =         0.000019238981;
  BAS[ATNO][  7].a[  2] =     57030.912120000001;     BAS[ATNO][  7].d[  2] =         0.000101140837;
  BAS[ATNO][  7].a[  3] =     16153.303915000000;     BAS[ATNO][  7].d[  3] =         0.000426111894;
  BAS[ATNO][  7].a[  4] =      5269.410928800000;     BAS[ATNO][  7].d[  4] =         0.001540253222;
  BAS[ATNO][  7].a[  5] =      1902.031554100000;     BAS[ATNO][  7].d[  5] =         0.004909879754;
  BAS[ATNO][  7].a[  6] =       741.576771590000;     BAS[ATNO][  7].d[  6] =         0.013821224742;
  BAS[ATNO][  7].a[  7] =       307.209019060000;     BAS[ATNO][  7].d[  7] =         0.033230799488;
  BAS[ATNO][  7].a[  8] =       133.527862030000;     BAS[ATNO][  7].d[  8] =         0.063185816041;
  BAS[ATNO][  7].a[  9] =        60.253381291000;     BAS[ATNO][  7].d[  9] =         0.080068050892;
  BAS[ATNO][  7].a[ 10] =       522.024262060000;     BAS[ATNO][  7].d[ 10] =         0.047087114667;
  BAS[ATNO][  7].a[ 11] =       161.512904690000;     BAS[ATNO][  7].d[ 11] =         0.428605198628;
  BAS[ATNO][  7].a[ 12] =        62.126369433000;     BAS[ATNO][  7].d[ 12] =         1.664925760397;
  BAS[ATNO][  7].a[ 13] =        27.590930012000;     BAS[ATNO][  7].d[ 13] =        -6.145134368567;
  BAS[ATNO][  7].a[ 14] =        11.175528881000;     BAS[ATNO][  7].d[ 14] =         8.680323250952;
  BAS[ATNO][  7].a[ 15] =         5.295906513700;     BAS[ATNO][  7].d[ 15] =        -7.836720178304;
  BAS[ATNO][  7].a[ 16] =         2.478279889500;     BAS[ATNO][  7].d[ 16] =         4.375440923975;
  BAS[ATNO][  7].a[ 17] =         0.912620950600;     BAS[ATNO][  7].d[ 17] =        -2.022942561873;
  BAS[ATNO][  7].a[ 18] =         0.404260675500;     BAS[ATNO][  7].d[ 18] =         1.034556745564;
  BAS[ATNO][  7].a[ 19] =         0.165628863100;     BAS[ATNO][  7].d[ 19] =        -0.275125905571;

  // Basis function   9 L = s
  InitBFNGauss(BAS[ATNO][  8]);
  BAS[ATNO][  8].l  = 0;
  BAS[ATNO][  8].ng = 20;
  BAS[ATNO][  8].a[  0] =   1673421.949400000041;     BAS[ATNO][  8].d[  0] =        -0.000082019574;
  BAS[ATNO][  8].a[  1] =    250601.753729999997;     BAS[ATNO][  8].d[  1] =        -0.000637632540;
  BAS[ATNO][  8].a[  2] =     57030.912120000001;     BAS[ATNO][  8].d[  2] =        -0.003352084429;
  BAS[ATNO][  8].a[  3] =     16153.303915000000;     BAS[ATNO][  8].d[  3] =        -0.014122515537;
  BAS[ATNO][  8].a[  4] =      5269.410928800000;     BAS[ATNO][  8].d[  4] =        -0.051048211442;
  BAS[ATNO][  8].a[  5] =      1902.031554100000;     BAS[ATNO][  8].d[  5] =        -0.162726866109;
  BAS[ATNO][  8].a[  6] =       741.576771590000;     BAS[ATNO][  8].d[  6] =        -0.458073252503;
  BAS[ATNO][  8].a[  7] =       307.209019060000;     BAS[ATNO][  8].d[  7] =        -1.101359733922;
  BAS[ATNO][  8].a[  8] =       133.527862030000;     BAS[ATNO][  8].d[  8] =        -2.094151047071;
  BAS[ATNO][  8].a[  9] =        60.253381291000;     BAS[ATNO][  8].d[  9] =        -2.653674560495;
  BAS[ATNO][  8].a[ 10] =       522.024262060000;     BAS[ATNO][  8].d[ 10] =         0.195542446460;
  BAS[ATNO][  8].a[ 11] =       161.512904690000;     BAS[ATNO][  8].d[ 11] =         1.779903264361;
  BAS[ATNO][  8].a[ 12] =        62.126369433000;     BAS[ATNO][  8].d[ 12] =         6.914071050308;
  BAS[ATNO][  8].a[ 13] =        27.590930012000;     BAS[ATNO][  8].d[ 13] =        -5.382365237518;
  BAS[ATNO][  8].a[ 14] =        11.175528881000;     BAS[ATNO][  8].d[ 14] =         5.020219678983;
  BAS[ATNO][  8].a[ 15] =         5.295906513700;     BAS[ATNO][  8].d[ 15] =        -4.003365763675;
  BAS[ATNO][  8].a[ 16] =         2.478279889500;     BAS[ATNO][  8].d[ 16] =         2.161633349194;
  BAS[ATNO][  8].a[ 17] =         0.912620950600;     BAS[ATNO][  8].d[ 17] =        -0.999572312684;
  BAS[ATNO][  8].a[ 18] =         0.404260675500;     BAS[ATNO][  8].d[ 18] =         0.513586057077;
  BAS[ATNO][  8].a[ 19] =         0.165628863100;     BAS[ATNO][  8].d[ 19] =        -0.136948964881;

  // Basis function  10 L = p
  InitBFNGauss(BAS[ATNO][  9]);
  BAS[ATNO][  9].l  = 1;
  BAS[ATNO][  9].ng = 14;
  BAS[ATNO][  9].a[  0] =      2868.450458100000;     BAS[ATNO][  9].d[  0] =         0.000324343507;
  BAS[ATNO][  9].a[  1] =       679.718695900000;     BAS[ATNO][  9].d[  1] =         0.002823910174;
  BAS[ATNO][  9].a[  2] =       220.367588240000;     BAS[ATNO][  9].d[  2] =         0.015358169546;
  BAS[ATNO][  9].a[  3] =        83.620439734000;     BAS[ATNO][  9].d[  3] =         0.060655551603;
  BAS[ATNO][  9].a[  4] =        34.964322657000;     BAS[ATNO][  9].d[  4] =         0.178813293317;
  BAS[ATNO][  9].a[  5] =        15.525131784000;     BAS[ATNO][  9].d[  5] =         0.374309020372;
  BAS[ATNO][  9].a[  6] =         7.099297980600;     BAS[ATNO][  9].d[  6] =         0.521614496925;
  BAS[ATNO][  9].a[  7] =         3.302133660200;     BAS[ATNO][  9].d[  7] =         0.384894876610;
  BAS[ATNO][  9].a[  8] =       128.787656670000;     BAS[ATNO][  9].d[  8] =         0.009357165887;
  BAS[ATNO][  9].a[  9] =         8.435786797700;     BAS[ATNO][  9].d[  9] =        -0.196597889715;
  BAS[ATNO][  9].a[ 10] =         1.461866185500;     BAS[ATNO][  9].d[ 10] =        -0.348949974891;
  BAS[ATNO][  9].a[ 11] =         0.646580101000;     BAS[ATNO][  9].d[ 11] =         0.250782456126;
  BAS[ATNO][  9].a[ 12] =         0.272292957500;     BAS[ATNO][  9].d[ 12] =        -0.123021828159;
  BAS[ATNO][  9].a[ 13] =         0.109051824500;     BAS[ATNO][  9].d[ 13] =         0.037162894729;

  // Basis function  11 L = p
  InitBFNGauss(BAS[ATNO][ 10]);
  BAS[ATNO][ 10].l  = 1;
  BAS[ATNO][ 10].ng = 14;
  BAS[ATNO][ 10].a[  0] =      2868.450458100000;     BAS[ATNO][ 10].d[  0] =        -0.000174396481;
  BAS[ATNO][ 10].a[  1] =       679.718695900000;     BAS[ATNO][ 10].d[  1] =        -0.001518390184;
  BAS[ATNO][ 10].a[  2] =       220.367588240000;     BAS[ATNO][ 10].d[  2] =        -0.008257944640;
  BAS[ATNO][ 10].a[  3] =        83.620439734000;     BAS[ATNO][ 10].d[  3] =        -0.032613924839;
  BAS[ATNO][ 10].a[  4] =        34.964322657000;     BAS[ATNO][ 10].d[  4] =        -0.096146241429;
  BAS[ATNO][ 10].a[  5] =        15.525131784000;     BAS[ATNO][ 10].d[  5] =        -0.201262472013;
  BAS[ATNO][ 10].a[  6] =         7.099297980600;     BAS[ATNO][ 10].d[  6] =        -0.280467253994;
  BAS[ATNO][ 10].a[  7] =         3.302133660200;     BAS[ATNO][ 10].d[  7] =        -0.206954388261;
  BAS[ATNO][ 10].a[  8] =       128.787656670000;     BAS[ATNO][ 10].d[  8] =        -0.008015161597;
  BAS[ATNO][ 10].a[  9] =         8.435786797700;     BAS[ATNO][ 10].d[  9] =         0.168401829643;
  BAS[ATNO][ 10].a[ 10] =         1.461866185500;     BAS[ATNO][ 10].d[ 10] =         1.531792631222;
  BAS[ATNO][ 10].a[ 11] =         0.646580101000;     BAS[ATNO][ 10].d[ 11] =        -0.537773202694;
  BAS[ATNO][ 10].a[ 12] =         0.272292957500;     BAS[ATNO][ 10].d[ 12] =         0.275795580925;
  BAS[ATNO][ 10].a[ 13] =         0.109051824500;     BAS[ATNO][ 10].d[ 13] =        -0.082326850387;

  // Basis function  12 L = p
  InitBFNGauss(BAS[ATNO][ 11]);
  BAS[ATNO][ 11].l  = 1;
  BAS[ATNO][ 11].ng = 14;
  BAS[ATNO][ 11].a[  0] =      2868.450458100000;     BAS[ATNO][ 11].d[  0] =         0.000101707347;
  BAS[ATNO][ 11].a[  1] =       679.718695900000;     BAS[ATNO][ 11].d[  1] =         0.000885519225;
  BAS[ATNO][ 11].a[  2] =       220.367588240000;     BAS[ATNO][ 11].d[  2] =         0.004816001060;
  BAS[ATNO][ 11].a[  3] =        83.620439734000;     BAS[ATNO][ 11].d[  3] =         0.019020313584;
  BAS[ATNO][ 11].a[  4] =        34.964322657000;     BAS[ATNO][ 11].d[  4] =         0.056072112477;
  BAS[ATNO][ 11].a[  5] =        15.525131784000;     BAS[ATNO][ 11].d[  5] =         0.117375487595;
  BAS[ATNO][ 11].a[  6] =         7.099297980600;     BAS[ATNO][ 11].d[  6] =         0.163567407091;
  BAS[ATNO][ 11].a[  7] =         3.302133660200;     BAS[ATNO][ 11].d[  7] =         0.120694990919;
  BAS[ATNO][ 11].a[  8] =       128.787656670000;     BAS[ATNO][ 11].d[  8] =         0.005775696169;
  BAS[ATNO][ 11].a[  9] =         8.435786797700;     BAS[ATNO][ 11].d[  9] =        -0.121349743306;
  BAS[ATNO][ 11].a[ 10] =         1.461866185500;     BAS[ATNO][ 11].d[ 10] =        -1.632091327608;
  BAS[ATNO][ 11].a[ 11] =         0.646580101000;     BAS[ATNO][ 11].d[ 11] =         2.007540668184;
  BAS[ATNO][ 11].a[ 12] =         0.272292957500;     BAS[ATNO][ 11].d[ 12] =        -0.194438088235;
  BAS[ATNO][ 11].a[ 13] =         0.109051824500;     BAS[ATNO][ 11].d[ 13] =         0.080472511262;

  // Basis function  13 L = p
  InitBFNGauss(BAS[ATNO][ 12]);
  BAS[ATNO][ 12].l  = 1;
  BAS[ATNO][ 12].ng = 14;
  BAS[ATNO][ 12].a[  0] =      2868.450458100000;     BAS[ATNO][ 12].d[  0] =         0.000063412897;
  BAS[ATNO][ 12].a[  1] =       679.718695900000;     BAS[ATNO][ 12].d[  1] =         0.000552107013;
  BAS[ATNO][ 12].a[  2] =       220.367588240000;     BAS[ATNO][ 12].d[  2] =         0.003002699305;
  BAS[ATNO][ 12].a[  3] =        83.620439734000;     BAS[ATNO][ 12].d[  3] =         0.011858860011;
  BAS[ATNO][ 12].a[  4] =        34.964322657000;     BAS[ATNO][ 12].d[  4] =         0.034960061487;
  BAS[ATNO][ 12].a[  5] =        15.525131784000;     BAS[ATNO][ 12].d[  5] =         0.073181731205;
  BAS[ATNO][ 12].a[  6] =         7.099297980600;     BAS[ATNO][ 12].d[  6] =         0.101981651067;
  BAS[ATNO][ 12].a[  7] =         3.302133660200;     BAS[ATNO][ 12].d[  7] =         0.075251388210;
  BAS[ATNO][ 12].a[  8] =       128.787656670000;     BAS[ATNO][ 12].d[  8] =         0.003981899912;
  BAS[ATNO][ 12].a[  9] =         8.435786797700;     BAS[ATNO][ 12].d[  9] =        -0.083661348870;
  BAS[ATNO][ 12].a[ 10] =         1.461866185500;     BAS[ATNO][ 12].d[ 10] =        -1.332876593427;
  BAS[ATNO][ 12].a[ 11] =         0.646580101000;     BAS[ATNO][ 12].d[ 11] =         2.758959848554;
  BAS[ATNO][ 12].a[ 12] =         0.272292957500;     BAS[ATNO][ 12].d[ 12] =        -2.168746956956;
  BAS[ATNO][ 12].a[ 13] =         0.109051824500;     BAS[ATNO][ 12].d[ 13] =         0.080780098951;

  // Basis function  14 L = p
  InitBFNGauss(BAS[ATNO][ 13]);
  BAS[ATNO][ 13].l  = 1;
  BAS[ATNO][ 13].ng = 14;
  BAS[ATNO][ 13].a[  0] =      2868.450458100000;     BAS[ATNO][ 13].d[  0] =        -0.000034426247;
  BAS[ATNO][ 13].a[  1] =       679.718695900000;     BAS[ATNO][ 13].d[  1] =        -0.000299733547;
  BAS[ATNO][ 13].a[  2] =       220.367588240000;     BAS[ATNO][ 13].d[  2] =        -0.001630136353;
  BAS[ATNO][ 13].a[  3] =        83.620439734000;     BAS[ATNO][ 13].d[  3] =        -0.006438060174;
  BAS[ATNO][ 13].a[  4] =        34.964322657000;     BAS[ATNO][ 13].d[  4] =        -0.018979478577;
  BAS[ATNO][ 13].a[  5] =        15.525131784000;     BAS[ATNO][ 13].d[  5] =        -0.039729652654;
  BAS[ATNO][ 13].a[  6] =         7.099297980600;     BAS[ATNO][ 13].d[  6] =        -0.055364850041;
  BAS[ATNO][ 13].a[  7] =         3.302133660200;     BAS[ATNO][ 13].d[  7] =        -0.040853249384;
  BAS[ATNO][ 13].a[  8] =       128.787656670000;     BAS[ATNO][ 13].d[  8] =        -0.002287739644;
  BAS[ATNO][ 13].a[  9] =         8.435786797700;     BAS[ATNO][ 13].d[  9] =         0.048066347408;
  BAS[ATNO][ 13].a[ 10] =         1.461866185500;     BAS[ATNO][ 13].d[ 10] =         0.805804316187;
  BAS[ATNO][ 13].a[ 11] =         0.646580101000;     BAS[ATNO][ 13].d[ 11] =        -2.088714640739;
  BAS[ATNO][ 13].a[ 12] =         0.272292957500;     BAS[ATNO][ 13].d[ 12] =         2.880684111672;
  BAS[ATNO][ 13].a[ 13] =         0.109051824500;     BAS[ATNO][ 13].d[ 13] =        -2.025425906066;

  // Basis function  15 L = p
  InitBFNGauss(BAS[ATNO][ 14]);
  BAS[ATNO][ 14].l  = 1;
  BAS[ATNO][ 14].ng = 14;
  BAS[ATNO][ 14].a[  0] =      2868.450458100000;     BAS[ATNO][ 14].d[  0] =        -0.000944090415;
  BAS[ATNO][ 14].a[  1] =       679.718695900000;     BAS[ATNO][ 14].d[  1] =        -0.008219762290;
  BAS[ATNO][ 14].a[  2] =       220.367588240000;     BAS[ATNO][ 14].d[  2] =        -0.044704149608;
  BAS[ATNO][ 14].a[  3] =        83.620439734000;     BAS[ATNO][ 14].d[  3] =        -0.176554559141;
  BAS[ATNO][ 14].a[  4] =        34.964322657000;     BAS[ATNO][ 14].d[  4] =        -0.520484957042;
  BAS[ATNO][ 14].a[  5] =        15.525131784000;     BAS[ATNO][ 14].d[  5] =        -1.089528696523;
  BAS[ATNO][ 14].a[  6] =         7.099297980600;     BAS[ATNO][ 14].d[  6] =        -1.518301542284;
  BAS[ATNO][ 14].a[  7] =         3.302133660200;     BAS[ATNO][ 14].d[  7] =        -1.120341724048;
  BAS[ATNO][ 14].a[  8] =       128.787656670000;     BAS[ATNO][ 14].d[  8] =        -0.182603951661;
  BAS[ATNO][ 14].a[  9] =         8.435786797700;     BAS[ATNO][ 14].d[  9] =         3.836583852783;
  BAS[ATNO][ 14].a[ 10] =         1.461866185500;     BAS[ATNO][ 14].d[ 10] =         0.292972129778;
  BAS[ATNO][ 14].a[ 11] =         0.646580101000;     BAS[ATNO][ 14].d[ 11] =         0.111550304835;
  BAS[ATNO][ 14].a[ 12] =         0.272292957500;     BAS[ATNO][ 14].d[ 12] =        -0.124010587066;
  BAS[ATNO][ 14].a[ 13] =         0.109051824500;     BAS[ATNO][ 14].d[ 13] =         0.046318602081;

  // Basis function  16 L = d
  InitBFNGauss(BAS[ATNO][ 15]);
  BAS[ATNO][ 15].l  = 2;
  BAS[ATNO][ 15].ng = 4;
  BAS[ATNO][ 15].a[  0] =         6.315000000000;     BAS[ATNO][ 15].d[  0] =         0.621696941727;
  BAS[ATNO][ 15].a[  1] =         1.562000000000;     BAS[ATNO][ 15].d[  1] =         0.653730080497;
  BAS[ATNO][ 15].a[  2] =         0.715000000000;     BAS[ATNO][ 15].d[  2] =        -0.194690593456;
  BAS[ATNO][ 15].a[  3] =         0.297000000000;     BAS[ATNO][ 15].d[  3] =         0.063757964714;

  // Basis function  17 L = d
  InitBFNGauss(BAS[ATNO][ 16]);
  BAS[ATNO][ 16].l  = 2;
  BAS[ATNO][ 16].ng = 4;
  BAS[ATNO][ 16].a[  0] =         6.315000000000;     BAS[ATNO][ 16].d[  0] =        -0.522487441331;
  BAS[ATNO][ 16].a[  1] =         1.562000000000;     BAS[ATNO][ 16].d[  1] =         0.034467048403;
  BAS[ATNO][ 16].a[  2] =         0.715000000000;     BAS[ATNO][ 16].d[  2] =         0.960105038886;
  BAS[ATNO][ 16].a[  3] =         0.297000000000;     BAS[ATNO][ 16].d[  3] =        -0.044356009571;

  // Basis function  18 L = d
  InitBFNGauss(BAS[ATNO][ 17]);
  BAS[ATNO][ 17].l  = 2;
  BAS[ATNO][ 17].ng = 4;
  BAS[ATNO][ 17].a[  0] =         6.315000000000;     BAS[ATNO][ 17].d[  0] =         0.424213830126;
  BAS[ATNO][ 17].a[  1] =         1.562000000000;     BAS[ATNO][ 17].d[  1] =        -0.487486606858;
  BAS[ATNO][ 17].a[  2] =         0.715000000000;     BAS[ATNO][ 17].d[  2] =        -0.402529393387;
  BAS[ATNO][ 17].a[  3] =         0.297000000000;     BAS[ATNO][ 17].d[  3] =         1.178633248956;

  // Basis function  19 L = d
  InitBFNGauss(BAS[ATNO][ 18]);
  BAS[ATNO][ 18].l  = 2;
  BAS[ATNO][ 18].ng = 4;
  BAS[ATNO][ 18].a[  0] =         6.315000000000;     BAS[ATNO][ 18].d[  0] =         0.776747824580;
  BAS[ATNO][ 18].a[  1] =         1.562000000000;     BAS[ATNO][ 18].d[  1] =        -1.959401452596;
  BAS[ATNO][ 18].a[  2] =         0.715000000000;     BAS[ATNO][ 18].d[  2] =         2.380619312940;
  BAS[ATNO][ 18].a[  3] =         0.297000000000;     BAS[ATNO][ 18].d[  3] =        -1.208047630508;

  // Basis function  20 L = f
  InitBFNGauss(BAS[ATNO][ 19]);
  BAS[ATNO][ 19].l  = 3;
  BAS[ATNO][ 19].ng = 2;
  BAS[ATNO][ 19].a[  0] =         0.543000000000;     BAS[ATNO][ 19].d[  0] =         0.134514809843;
  BAS[ATNO][ 19].a[  1] =         1.325000000000;     BAS[ATNO][ 19].d[  1] =         0.907545001187;

  // Basis function  21 L = f
  InitBFNGauss(BAS[ATNO][ 20]);
  BAS[ATNO][ 20].l  = 3;
  BAS[ATNO][ 20].ng = 2;
  BAS[ATNO][ 20].a[  0] =         0.543000000000;     BAS[ATNO][ 20].d[  0] =         1.306375738322;
  BAS[ATNO][ 20].a[  1] =         1.325000000000;     BAS[ATNO][ 20].d[  1] =        -0.949249110911;

  // Basis function  22 L = g
  InitBFNGauss(BAS[ATNO][ 21]);
  BAS[ATNO][ 21].l  = 4;
  BAS[ATNO][ 21].ng = 1;
  BAS[ATNO][ 21].a[  0] =         1.007000000000;     BAS[ATNO][ 21].d[  0] =         1.000000000000;

-------
TIMINGS
-------

Total SCF time: 0 days 0 hours 0 min 1 sec 

Total time                  ....       1.858 sec
Sum of individual times     ....       1.676 sec  ( 90.2%)

Fock matrix formation       ....       1.204 sec  ( 64.8%)
  XC integration            ....       0.030 sec  (  2.5% of F)
    Basis function eval.    ....       0.005 sec  ( 16.2% of XC)
    Density eval.           ....       0.002 sec  (  8.2% of XC)
    XC-Functional eval.     ....       0.002 sec  (  6.6% of XC)
    XC-Potential eval.      ....       0.004 sec  ( 12.4% of XC)
Diagonalization             ....       0.003 sec  (  0.2%)
Density matrix formation    ....       0.001 sec  (  0.0%)
Population analysis         ....       0.001 sec  (  0.1%)
Initial guess               ....       0.095 sec  (  5.1%)
Orbital Transformation      ....       0.000 sec  (  0.0%)
Orbital Orthonormalization  ....       0.000 sec  (  0.0%)
DIIS solution               ....       0.000 sec  (  0.0%)
SOSCF solution              ....       0.001 sec  (  0.1%)
Grid generation             ....       0.370 sec  ( 19.9%)

-------------------------   --------------------
FINAL SINGLE POINT ENERGY      -314.213000294580
-------------------------   --------------------


                            ***************************************
                            *     ORCA property calculations      *
                            ***************************************

                                    ---------------------
                                    Active property flags
                                    ---------------------
   (+) Dipole Moment


------------------------------------------------------------------------------
                       ORCA ELECTRIC PROPERTIES CALCULATION
------------------------------------------------------------------------------

Dipole Moment Calculation                       ... on
Quadrupole Moment Calculation                   ... off
Polarizability Calculation                      ... off
GBWName                                         ... Ar_def2-qzvpp_137.035989_.gbw
Electron density file                           ... Ar_def2-qzvpp_137.035989_.scfp
The origin for moment calculation is the CENTER OF MASS  = ( 0.000000,  0.000000  0.000000)

-------------
DIPOLE MOMENT
-------------
                                X             Y             Z
Electronic contribution:     -0.00000      -0.00000      -0.00000
Nuclear contribution   :      0.00000       0.00000       0.00000
                        -----------------------------------------
Total Dipole Moment    :     -0.00000      -0.00000      -0.00000
                        -----------------------------------------
Magnitude (a.u.)       :      0.00000
Magnitude (Debye)      :      0.00000



--------------------
Rotational spectrum 
--------------------
 
Rotational constants in cm-1:     0.000000     0.000000     0.000000 
Rotational constants in MHz :     0.000000     0.000000     0.000000 

 Dipole components along the rotational axes: 
x,y,z [a.u.] :    -0.000000    -0.000000    -0.000000 
x,y,z [Debye]:    -0.000000    -0.000000    -0.000000 

 

Timings for individual modules:

Sum of individual times         ...        3.012 sec (=   0.050 min)
GTO integral calculation        ...        0.510 sec (=   0.008 min)  16.9 %
Relativistic integrals          ...        0.372 sec (=   0.006 min)  12.4 %
SCF iterations                  ...        2.130 sec (=   0.036 min)  70.7 %
                             ****ORCA TERMINATED NORMALLY****
TOTAL RUN TIME: 0 days 0 hours 0 minutes 3 seconds 335 msec
