
                                 *****************
                                 * O   R   C   A *
                                 *****************

           --- An Ab Initio, DFT and Semiempirical electronic structure package ---

                  #######################################################
                  #                        -***-                        #
                  #          Department of theory and spectroscopy      #
                  #               Directorship: Frank Neese             #
                  #        Max Planck Institute fuer Kohlenforschung    #
                  #                Kaiser Wilhelm Platz 1               #
                  #                 D-45470 Muelheim/Ruhr               #
                  #                      Germany                        #
                  #                                                     #
                  #                  All rights reserved                #
                  #                        -***-                        #
                  #######################################################


                         Program Version 4.2.1 -  RELEASE  -


 With contributions from (in alphabetic order):
   Daniel Aravena         : Magnetic Suceptibility
   Michael Atanasov       : Ab Initio Ligand Field Theory (pilot matlab implementation)
   Alexander A. Auer      : GIAO ZORA, VPT2
   Ute Becker             : Parallelization
   Giovanni Bistoni       : ED, misc. LED, open-shell LED, HFLD
   Martin Brehm           : Molecular dynamics
   Dmytro Bykov           : SCF Hessian
   Vijay G. Chilkuri      : MRCI spin determinant printing, contributions to CSF-ICE
   Dipayan Datta          : RHF DLPNO-CCSD density
   Achintya Kumar Dutta   : EOM-CC, STEOM-CC
   Dmitry Ganyushin       : Spin-Orbit,Spin-Spin,Magnetic field MRCI
   Miquel Garcia          : C-PCM Hessian, Gaussian charge scheme
   Yang Guo               : DLPNO-NEVPT2, CIM, IAO-localization
   Andreas Hansen         : Spin unrestricted coupled pair/coupled cluster methods
   Benjamin Helmich-Paris : CASSCF linear response (MC-RPA)
   Lee Huntington         : MR-EOM, pCC
   Robert Izsak           : Overlap fitted RIJCOSX, COSX-SCS-MP3, EOM
   Christian Kollmar      : KDIIS, OOCD, Brueckner-CCSD(T), CCSD density
   Simone Kossmann        : Meta GGA functionals, TD-DFT gradient, OOMP2, MP2 Hessian
   Martin Krupicka        : AUTO-CI
   Lucas Lang             : DCDCAS
   Dagmar Lenk            : GEPOL surface, SMD
   Dimitrios Liakos       : Extrapolation schemes; Compound Job, initial MDCI parallelization
   Dimitrios Manganas     : Further ROCIS development; embedding schemes
   Dimitrios Pantazis     : SARC Basis sets
   Taras Petrenko         : DFT Hessian,TD-DFT gradient, ASA, ECA, R-Raman, ABS, FL, XAS/XES, NRVS
   Peter Pinski           : DLPNO-MP2, DLPNO-MP2 Gradient
   Christoph Reimann      : Effective Core Potentials
   Marius Retegan         : Local ZFS, SOC
   Christoph Riplinger    : Optimizer, TS searches, QM/MM, DLPNO-CCSD(T), (RO)-DLPNO pert. Triples
   Tobias Risthaus        : Range-separated hybrids, TD-DFT gradient, RPA, STAB
   Michael Roemelt        : Original ROCIS implementation
   Masaaki Saitow         : Open-shell DLPNO-CCSD energy and density
   Barbara Sandhoefer     : DKH picture change effects
   Avijit Sen             : IP-ROCIS
   Kantharuban Sivalingam : CASSCF convergence, NEVPT2, FIC-MRCI
   Bernardo de Souza      : ESD, SOC TD-DFT
   Georgi Stoychev        : AutoAux, RI-MP2 NMR
   Willem Van den Heuvel  : Paramagnetic NMR
   Boris Wezisla          : Elementary symmetry handling
   Frank Wennmohs         : Technical directorship


 We gratefully acknowledge several colleagues who have allowed us to
 interface, adapt or use parts of their codes:
   Stefan Grimme, W. Hujo, H. Kruse,             : VdW corrections, initial TS optimization,
                  C. Bannwarth                     DFT functionals, gCP, sTDA/sTD-DF
   Ed Valeev, F. Pavosevic, A. Kumar             : LibInt (2-el integral package), F12 methods
   Garnet Chan, S. Sharma, J. Yang, R. Olivares  : DMRG
   Ulf Ekstrom                                   : XCFun DFT Library
   Mihaly Kallay                                 : mrcc  (arbitrary order and MRCC methods)
   Andreas Klamt, Michael Diedenhofen            : otool_cosmo (COSMO solvation model)
   Jiri Pittner, Ondrej Demel                    : Mk-CCSD
   Frank Weinhold                                : gennbo (NPA and NBO analysis)
   Christopher J. Cramer and Donald G. Truhlar   : smd solvation model
   Lars Goerigk                                  : TD-DFT with DH, B97 family of functionals
   V. Asgeirsson, H. Jonsson                     : NEB implementation
   FAccTs GmbH                                   : IRC, NEB, NEB-TS, Multilevel, MM, QM/MM, CI optimization
   S Lehtola, MJT Oliveira, MAL Marques          : LibXC Library


 Your calculation uses the libint2 library for the computation of 2-el integrals
 For citations please refer to: http://libint.valeyev.net

 Your ORCA version has been built with support for libXC version: 4.2.3
 For citations please refer to: https://tddft.org/programs/libxc/

 This ORCA versions uses:
   CBLAS   interface :  Fast vector & matrix operations
   LAPACKE interface :  Fast linear algebra routines
   SCALAPACK package :  Parallel linear algebra routines


----- Orbital basis set information -----
Your calculation utilizes the basis: pc-4
   H, C-F              : F. Jensen, J. Chem. Phys. 115, 9113 (2001).
                         F. Jensen, J. Chem. Phys. 116, 7372 (2002).
                         F. Jensen, J. Chem. Phys. 117, 9234 (2002).
   Si-Cl               : F. Jensen, T. Helgaker, J. Chem. Phys. 121, 3463 (2004).
   He-B, Ne-Mg, Al, Ar : F. Jensen, J. Phys. Chem. A 111, 11198 (2007).
   K, Ca, Ga-Kr        : F. Jensen, J. Chem. Phys. 136, 094110 (2012).
   Sc-Zn               : F. Jensen, J. Chem. Phys. 138, 014107 (2013).

================================================================================
                                        WARNINGS
                       Please study these warnings very carefully!
================================================================================


INFO   : the flag for use of LIBINT has been found!

================================================================================
                                       INPUT FILE
================================================================================
NAME = Ar_pc-4_1096.287912_.inp
|  1> ! LDA pc-4 nori grid5 finalgrid6 verytightscf
|  2> %Pal NProcs 18 End
|  3> 
|  4> % REL
|  5>   Method ZORA
|  6>   ModelPot 1, 0, 0, 0
|  7>   velit 1096.287912
|  8> END
|  9> 
| 10> *xyz 16 1
| 11> Ar 0.0 0.0 0.0
| 12> **                         ****END OF INPUT****
================================================================================

                       ****************************
                       * Single Point Calculation *
                       ****************************

---------------------------------
CARTESIAN COORDINATES (ANGSTROEM)
---------------------------------
  Ar     0.000000    0.000000    0.000000

----------------------------
CARTESIAN COORDINATES (A.U.)
----------------------------
  NO LB      ZA    FRAG     MASS         X           Y           Z
   0 Ar   18.0000    0    39.948    0.000000    0.000000    0.000000

--------------------------------
INTERNAL COORDINATES (ANGSTROEM)
--------------------------------
 Ar     0   0   0     0.000000000000     0.00000000     0.00000000

---------------------------
INTERNAL COORDINATES (A.U.)
---------------------------
 Ar     0   0   0     0.000000000000     0.00000000     0.00000000

---------------------
BASIS SET INFORMATION
---------------------
There are 1 groups of distinct atoms

 Group   1 Type Ar  : 43s26p6d3f2g1h contracted to 7s6p6d3f2g1h pattern {1512121111/11111111/111111/111/11/1}

Atom   0Ar   basis set group =>   1


           ************************************************************
           *        Program running with 18 parallel MPI-processes    *
           *              working on a common directory               *
           ************************************************************
------------------------------------------------------------------------------
                           ORCA GTO INTEGRAL CALCULATION
------------------------------------------------------------------------------

                         BASIS SET STATISTICS AND STARTUP INFO

 # of primitive gaussian shells          ...   81
 # of primitive gaussian functions       ...  201
 # of contracted shells                  ...   25
 # of contracted basis functions         ...  105
 Highest angular momentum                ...    5
 Maximum contraction depth               ...   15
 Integral package used                   ... LIBINT
 Integral threshhold            Thresh   ...  1.000e-12
 Primitive cut-off              TCut     ...  1.000e-14


------------------------------ INTEGRAL EVALUATION ----------------------------


 * One electron integrals 
 Pre-screening matrix                    ... done
 Shell pair data                         ... done (   0.000 sec)



           ************************************************************
           *        Program running with 18 parallel MPI-processes    *
           *              working on a common directory               *
           ************************************************************
------------------------------------------------------------------------------
                          ORCA RELATIVISTIC HAMILTONIAN
------------------------------------------------------------------------------

Relativistic Method            ... ZORA(MP)
Treatment of potential         ... Van Wuellen
Nucleus model                  ... Point Nucleus
Speed of light used            ... 1096.28791200000001


            *************************************************
            *         ZERO ORDER REGULAR APPROXIMATION      *
            *                     ZORA(MP)                  *
            *            Programmed by FN according to      *
            *                   C. van Wuellen              *
            *       J. Chem. Phys. (1998) vol 109, 392-399  *
            *************************************************

Terms included in model potential: +V(e,N)
Basis function cutoff value   ... 1.000000e-12
Loading the fitted atomic densities  (DKH4)  ... done
Calculating the cutoffs                      ... done
Number of fit functions                      ... 15
Setting up the integration grid ... done


           ************************************************************
           *        Program running with 18 parallel MPI-processes    *
           *              working on a common directory               *
           ************************************************************
-------------------------------------------------------------------------------
                                 ORCA SCF
-------------------------------------------------------------------------------

------------
SCF SETTINGS
------------
Hamiltonian:
 Density Functional     Method          .... DFT(GTOs)
 Exchange Functional    Exchange        .... Slater
   X-Alpha parameter    XAlpha          ....  0.666667
 Correlation Functional Correlation     .... VWN-5
 Gradients option       PostSCFGGA      .... off
   Density functional embedding theory  .... OFF

Relativistic Settings:
 Scalar relativistic method             .... ZORA
 Speed of light used       Velit        ....       1096.28791
Orbital energies will be scaled


General Settings:
 Integral files         IntName         .... Ar_pc-4_1096.287912_
 Hartree-Fock type      HFTyp           .... RHF
 Total Charge           Charge          ....   16
 Multiplicity           Mult            ....    1
 Number of Electrons    NEL             ....    2
 Basis Dimension        Dim             ....  105
 Nuclear Repulsion      ENuc            ....      0.0000000000 Eh

Convergence Acceleration:
 DIIS                   CNVDIIS         .... on
   Start iteration      DIISMaxIt       ....    12
   Startup error        DIISStart       ....  0.200000
   # of expansion vecs  DIISMaxEq       ....     5
   Bias factor          DIISBfac        ....   1.050
   Max. coefficient     DIISMaxC        ....  10.000
 Newton-Raphson         CNVNR           .... off
 SOSCF                  CNVSOSCF        .... on
   Start iteration      SOSCFMaxIt      ....   150
   Startup grad/error   SOSCFStart      ....  0.003300
 Level Shifting         CNVShift        .... on
   Level shift para.    LevelShift      ....    0.2500
   Turn off err/grad.   ShiftErr        ....    0.0010
 Zerner damping         CNVZerner       .... off
 Static damping         CNVDamp         .... on
   Fraction old density DampFac         ....    0.7000
   Max. Damping (<1)    DampMax         ....    0.9800
   Min. Damping (>=0)   DampMin         ....    0.0000
   Turn off err/grad.   DampErr         ....    0.1000
 Fernandez-Rico         CNVRico         .... off

SCF Procedure:
 Maximum # iterations   MaxIter         ....   125
 SCF integral mode      SCFMode         .... Direct
   Integral package                     .... LIBINT
 Reset frequency        DirectResetFreq ....    20
 Integral Threshold     Thresh          ....  1.000e-12 Eh
 Primitive CutOff       TCut            ....  1.000e-14 Eh

Convergence Tolerance:
 Convergence Check Mode ConvCheckMode   .... Total+1el-Energy
 Convergence forced     ConvForced      .... 0
 Energy Change          TolE            ....  1.000e-09 Eh
 1-El. energy change                    ....  1.000e-06 Eh
 Orbital Gradient       TolG            ....  2.000e-06
 Orbital Rotation angle TolX            ....  2.000e-06
 DIIS Error             TolErr          ....  1.000e-08


Diagonalization of the overlap matrix:
Smallest eigenvalue                        ... 6.886e-04
Time for diagonalization                   ...    0.002 sec
Threshold for overlap eigenvalues          ... 1.000e-08
Number of eigenvalues below threshold      ... 0
Time for construction of square roots      ...    0.001 sec
Total time needed                          ...    0.003 sec

-------------------
DFT GRID GENERATION
-------------------

General Integration Accuracy     IntAcc      ...  5.010
Radial Grid Type                 RadialGrid  ... Gauss-Chebyshev
Angular Grid (max. acc.)         AngularGrid ... Lebedev-434
Angular grid pruning method      GridPruning ... 3 (G Style)
Weight generation scheme         WeightScheme... Becke
Basis function cutoff            BFCut       ...    1.0000e-12
Integration weight cutoff        WCut        ...    1.0000e-14
Grids for H and He will be reduced by one unit

# of grid points (after initial pruning)     ...  11992 (   0.0 sec)
# of grid points (after weights+screening)   ...  11992 (   0.0 sec)
Grid point division into batches done        ...    0.1 sec
Reduced shell lists constructed in    0.1 sec

Total number of grid points                  ...    11992
Total number of batches                      ...      188
Average number of points per batch           ...       63
Average number of grid points per atom       ...    11992
Average number of shells per batch           ...     1.75 ( 7.00%)
Average number of basis functions per batch  ...     5.25 ( 5.00%)
Average number of large shells per batch     ...     0.92 (52.38%)
Average number of large basis fcns per batch ...     2.75 (52.38%)
Maximum spatial batch extension              ...  18.71, 18.71, 18.71 au
Average spatial batch extension              ...   0.97,  0.98,  0.97 au

Time for grid setup =    0.154 sec

------------------------------
INITIAL GUESS: MODEL POTENTIAL
------------------------------
Loading ZORA relativistic densities                ... done
Calculating cut-offs                               ... done
Setting up the integral package                    ... done
Initializing the effective Hamiltonian             ... done
Starting the Coulomb interaction                   ... done (   0.0 sec)
Reading the grid                                   ... done
Mapping shells                                     ... done
Starting the XC term evaluation                    ... done (   0.0 sec)
  promolecular density results
     # of electrons  =     18.000000116
     EX              =    -28.047870263
     EC              =     -1.433252902
     EX+EC           =    -29.481123164
Transforming the Hamiltonian                       ... done (   0.0 sec)
Diagonalizing the Hamiltonian                      ... done (   0.0 sec)
Back transforming the eigenvectors                 ... done (   0.0 sec)
Now organizing SCF variables                       ... done
                      ------------------
                      INITIAL GUESS DONE (   0.2 sec)
                      ------------------
--------------
SCF ITERATIONS
--------------
ITER       Energy         Delta-E        Max-DP      RMS-DP      [F,P]     Damp
               ***  Starting incremental Fock matrix formation  ***
  0   -311.5489485462   0.000000000000 0.02070340  0.00025035  2.0713956 0.7000
                      *** Initiating the SOSCF procedure ***
                      *** Re-Reading the Fockian *** 
                      *** Removing any level shift *** 
ITER      Energy       Delta-E        Grad      Rot      Max-DP    RMS-DP
  1   -311.55590882  -0.0069602720  0.000924  0.000924  0.048520  0.000587
               *** Restarting incremental Fock matrix formation ***
  2   -311.57203449  -0.0161256676  0.005326  0.000047  0.000525  0.000008
  3   -311.57203511  -0.0000006213  0.000040  0.000000  0.000004  0.000000
                 **** Energy Check signals convergence ****
              ***Rediagonalizing the Fockian in SOSCF/NRSCF***

               *****************************************************
               *                     SUCCESS                       *
               *           SCF CONVERGED AFTER   4 CYCLES          *
               *****************************************************

Setting up the final grid:

General Integration Accuracy     IntAcc      ...  5.340
Radial Grid Type                 RadialGrid  ... Gauss-Chebyshev
Angular Grid (max. acc.)         AngularGrid ... Lebedev-590
Angular grid pruning method      GridPruning ... 3 (G Style)
Weight generation scheme         WeightScheme... Becke
Basis function cutoff            BFCut       ...    1.0000e-12
Integration weight cutoff        WCut        ...    1.0000e-14
Grids for H and He will be reduced by one unit

# of grid points (after initial pruning)     ...  18110 (   0.0 sec)
# of grid points (after weights+screening)   ...  18110 (   0.0 sec)
Grid point division into batches done        ...    0.2 sec
Reduced shell lists constructed in    0.2 sec

Total number of grid points                  ...    18110
Total number of batches                      ...      283
Average number of points per batch           ...       63
Average number of grid points per atom       ...    18110
Average number of shells per batch           ...     0.59 ( 2.35%)
Average number of basis functions per batch  ...     1.76 ( 1.68%)
Average number of large shells per batch     ...     0.59 (100.00%)
Average number of large basis fcns per batch ...     1.76 (100.00%)
Maximum spatial batch extension              ...  19.03, 19.03, 19.03 au
Average spatial batch extension              ...   0.84,  0.84,  0.80 au

Final grid set up in    0.3 sec
Final integration                            ... done (   0.0 sec)
Change in XC energy                          ...    -0.000009167
Integrated number of electrons               ...     1.999999894
Previous integrated no of electrons          ...     1.999999729

----------------
TOTAL SCF ENERGY
----------------

Total Energy       :         -311.57204427 Eh           -8478.30635 eV

Components:
Nuclear Repulsion  :            0.00000000 Eh               0.00000 eV
Electronic Energy  :         -311.57204427 Eh           -8478.30635 eV
One Electron Energy:         -323.85124131 Eh           -8812.44029 eV
Two Electron Energy:           12.27919704 Eh             334.13394 eV

Virial components:
Potential Energy   :         -621.26328903 Eh          -16905.43355 eV
Kinetic Energy     :          309.69124476 Eh            8427.12720 eV
Virial Ratio       :            2.00607314


DFT components:
N(Alpha)           :        0.999999946946 electrons
N(Beta)            :        0.999999946946 electrons
N(Total)           :        1.999999893892 electrons
E(X)               :       -9.406328241815 Eh       
E(C)               :       -0.236740052456 Eh       
E(XC)              :       -9.643068294270 Eh       
DFET-embed. en.    :        0.000000000000 Eh       

---------------
SCF CONVERGENCE
---------------

  Last Energy change         ...   -3.5016e-11  Tolerance :   1.0000e-09
  Last MAX-Density change    ...    0.0000e+00  Tolerance :   1.0000e-08
  Last RMS-Density change    ...    0.0000e+00  Tolerance :   1.0000e-09
  Last Orbital Gradient      ...    2.7339e-10  Tolerance :   2.0000e-06
  Last Orbital Rotation      ...    0.0000e+00  Tolerance :   2.0000e-06

================================================================================
                                        WARNING
Number of found core electrons (2) does not match given number of chemical core electrons (10)
================================================================================
             **** THE GBW FILE WAS UPDATED (Ar_pc-4_1096.287912_.gbw) ****
             **** DENSITY FILE WAS UPDATED (Ar_pc-4_1096.287912_.scfp) ****
             **** ENERGY FILE WAS UPDATED (Ar_pc-4_1096.287912_.en.tmp) ****
             **** THE GBW FILE WAS UPDATED (Ar_pc-4_1096.287912_.gbw) ****
             **** DENSITY FILE WAS UPDATED (Ar_pc-4_1096.287912_.scfp) ****
----------------
ORBITAL ENERGIES
----------------

  NO   OCC          E(Eh)            E(eV) 
   0   2.0000    -146.402154     -3983.8051 
   1   0.0000     -33.939799      -923.5489 
   2   0.0000     -32.948185      -896.5657 
   3   0.0000     -32.948185      -896.5657 
   4   0.0000     -32.948185      -896.5657 
   5   0.0000     -14.475969      -393.9111 
   6   0.0000     -14.315498      -389.5445 
   7   0.0000     -14.315498      -389.5445 
   8   0.0000     -14.315498      -389.5445 
   9   0.0000     -14.315498      -389.5445 
  10   0.0000     -14.315498      -389.5445 
  11   0.0000     -14.005165      -381.0999 
  12   0.0000     -14.005165      -381.0999 
  13   0.0000     -14.005165      -381.0999 
  14   0.0000      -8.019661      -218.2261 
  15   0.0000      -8.019661      -218.2261 
  16   0.0000      -8.019661      -218.2261 
  17   0.0000      -8.019661      -218.2261 
  18   0.0000      -8.019661      -218.2261 
  19   0.0000      -7.980725      -217.1666 
  20   0.0000      -7.798012      -212.1947 
  21   0.0000      -7.798012      -212.1947 
  22   0.0000      -7.798012      -212.1947 
  23   0.0000      -7.798012      -212.1947 
  24   0.0000      -7.798012      -212.1947 
  25   0.0000      -7.798012      -212.1947 
  26   0.0000      -7.798012      -212.1947 
  27   0.0000      -7.730787      -210.3654 
  28   0.0000      -7.730787      -210.3654 
  29   0.0000      -7.730787      -210.3654 
  30   0.0000      -5.105420      -138.9255 
  31   0.0000      -5.105420      -138.9255 
  32   0.0000      -5.105420      -138.9255 
  33   0.0000      -5.105420      -138.9255 
  34   0.0000      -5.105420      -138.9255 
  35   0.0000      -5.089216      -138.4846 
  36   0.0000      -5.089216      -138.4846 
  37   0.0000      -5.089216      -138.4846 
  38   0.0000      -5.089216      -138.4846 
  39   0.0000      -5.089216      -138.4846 
  40   0.0000      -5.089216      -138.4846 
  41   0.0000      -5.089216      -138.4846 
  42   0.0000      -5.089216      -138.4846 
  43   0.0000      -5.089216      -138.4846 
  44   0.0000      -5.062912      -137.7688 
  45   0.0000      -4.931524      -134.1936 
  46   0.0000      -4.931524      -134.1936 
  47   0.0000      -4.931524      -134.1936 
  48   0.0000      -4.931524      -134.1936 
  49   0.0000      -4.931524      -134.1936 
  50   0.0000      -4.931524      -134.1936 
  51   0.0000      -4.931524      -134.1936 
  52   0.0000      -4.926253      -134.0502 
  53   0.0000      -4.926253      -134.0502 
  54   0.0000      -4.926253      -134.0502 
  55   0.0000      -3.500149       -95.2439 
  56   0.0000      -3.500149       -95.2439 
  57   0.0000      -3.500149       -95.2439 
  58   0.0000      -3.500149       -95.2439 
  59   0.0000      -3.500149       -95.2439 
  60   0.0000      -3.479094       -94.6710 
  61   0.0000      -3.419754       -93.0562 
  62   0.0000      -3.419754       -93.0562 
  63   0.0000      -3.419754       -93.0562 
  64   0.0000      -2.704607       -73.5961 
  65   0.0000      -2.704607       -73.5961 
  66   0.0000      -2.704607       -73.5961 
  67   0.0000      -2.704607       -73.5961 
  68   0.0000      -2.704607       -73.5961 
  69   0.0000      -2.704607       -73.5961 
  70   0.0000      -2.704607       -73.5961 
  71   0.0000      -2.704607       -73.5961 
  72   0.0000      -2.704607       -73.5961 
  73   0.0000      -2.704607       -73.5961 
  74   0.0000      -2.704607       -73.5961 
  75   0.0000      -2.482172       -67.5433 
  76   0.0000      -2.482172       -67.5433 
  77   0.0000      -2.482172       -67.5433 
  78   0.0000      -1.831695       -49.8430 
  79   0.0000      -1.831695       -49.8430 
  80   0.0000      -1.831695       -49.8430 
  81   0.0000      -1.831695       -49.8430 
  82   0.0000      -1.831695       -49.8430 
  83   0.0000      -1.831695       -49.8430 
  84   0.0000      -1.831695       -49.8430 
  85   0.0000      -1.831695       -49.8430 
  86   0.0000      -1.831695       -49.8430 
  87   0.0000      -1.542181       -41.9649 
  88   0.0000      -1.542181       -41.9649 
  89   0.0000      -1.542181       -41.9649 
  90   0.0000      -1.542181       -41.9649 
  91   0.0000      -1.542181       -41.9649 
  92   0.0000      -1.542181       -41.9649 
  93   0.0000      -1.542181       -41.9649 
  94   0.0000       0.658236        17.9115 
  95   0.0000       0.658236        17.9115 
  96   0.0000       0.658236        17.9115 
  97   0.0000       0.658236        17.9115 
  98   0.0000       0.658236        17.9115 
  99   0.0000      30.684810       834.9761 
 100   0.0000      43.496195      1183.5916 
 101   0.0000      43.496195      1183.5916 
 102   0.0000      43.496195      1183.5916 
 103   0.0000      43.496195      1183.5916 
 104   0.0000      43.496195      1183.5916 

                    ********************************
                    * MULLIKEN POPULATION ANALYSIS *
                    ********************************

-----------------------
MULLIKEN ATOMIC CHARGES
-----------------------
   0 Ar:   16.000000
Sum of atomic charges:   16.0000000

--------------------------------
MULLIKEN REDUCED ORBITAL CHARGES
--------------------------------
  0 Ars       :     2.000000  s :     2.000000
      pz      :     0.000000  p :     0.000000
      px      :     0.000000
      py      :     0.000000
      dz2     :     0.000000  d :     0.000000
      dxz     :     0.000000
      dyz     :     0.000000
      dx2y2   :     0.000000
      dxy     :     0.000000
      f0      :     0.000000  f :     0.000000
      f+1     :     0.000000
      f-1     :     0.000000
      f+2     :     0.000000
      f-2     :     0.000000
      f+3     :     0.000000
      f-3     :     0.000000
      g0      :     0.000000  g :     0.000000
      g+1     :     0.000000
      g-1     :     0.000000
      g+2     :     0.000000
      g-2     :     0.000000
      g+3     :     0.000000
      g-3     :     0.000000
      g+4     :     0.000000
      g-4     :     0.000000
      h0      :     0.000000  h :     0.000000
      h+1     :     0.000000
      h-1     :     0.000000
      h+2     :     0.000000
      h-2     :     0.000000
      h+3     :     0.000000
      h-3     :     0.000000
      h+4     :     0.000000
      h-4     :     0.000000
      h+5     :     0.000000
      h-5     :     0.000000


                     *******************************
                     * LOEWDIN POPULATION ANALYSIS *
                     *******************************

----------------------
LOEWDIN ATOMIC CHARGES
----------------------
   0 Ar:   16.000000

-------------------------------
LOEWDIN REDUCED ORBITAL CHARGES
-------------------------------
  0 Ars       :     2.000000  s :     2.000000
      pz      :     0.000000  p :     0.000000
      px      :     0.000000
      py      :     0.000000
      dz2     :     0.000000  d :     0.000000
      dxz     :     0.000000
      dyz     :     0.000000
      dx2y2   :     0.000000
      dxy     :     0.000000
      f0      :     0.000000  f :     0.000000
      f+1     :     0.000000
      f-1     :     0.000000
      f+2     :     0.000000
      f-2     :     0.000000
      f+3     :     0.000000
      f-3     :     0.000000
      g0      :     0.000000  g :     0.000000
      g+1     :     0.000000
      g-1     :     0.000000
      g+2     :     0.000000
      g-2     :     0.000000
      g+3     :     0.000000
      g-3     :     0.000000
      g+4     :     0.000000
      g-4     :     0.000000
      h0      :     0.000000  h :     0.000000
      h+1     :     0.000000
      h-1     :     0.000000
      h+2     :     0.000000
      h-2     :     0.000000
      h+3     :     0.000000
      h-3     :     0.000000
      h+4     :     0.000000
      h-4     :     0.000000
      h+5     :     0.000000
      h-5     :     0.000000


                      *****************************
                      * MAYER POPULATION ANALYSIS *
                      *****************************

  NA   - Mulliken gross atomic population
  ZA   - Total nuclear charge
  QA   - Mulliken gross atomic charge
  VA   - Mayer's total valence
  BVA  - Mayer's bonded valence
  FA   - Mayer's free valence

  ATOM       NA         ZA         QA         VA         BVA        FA
  0 Ar     2.0000    18.0000    16.0000    -0.0000     0.0000    -0.0000

  Mayer bond orders larger than 0.100000


--------------------------
ATOM BASIS FOR ELEMENT Ar
--------------------------
 NewGTO Ar
 S 43
    1    9445100.000000000000         0.000001293283
    2    1414100.000000000000         0.000010060066
    3     321810.000000000000         0.000052926469
    4      91158.000000000000         0.000223641411
    5      29743.000000000000         0.000815241895
    6      10740.000000000000         0.002659913801
    7       4190.000000000000         0.007925979527
    8       1738.900000000000         0.021710604570
    9        759.290000000000         0.054279509300
   10        345.500000000000         0.120942237408
   11        162.360000000000         0.226859129593
   12         78.888000000000         0.316315694130
   13         39.321000000000         0.277803004259
   14         19.918000000000         0.111211137928
   15          9.576400000000         0.010268118669
   16      29743.000000000000         0.000000050808
   17      10740.000000000000         0.000000036508
   18       4190.000000000000         0.000002135850
   19       1738.900000000000         0.000009268680
   20        759.290000000000         0.000070317206
   21        345.500000000000         0.000304592639
   22        162.360000000000         0.001397659523
   23         78.888000000000         0.003763353090
   24         39.321000000000         0.008072878516
   25         19.918000000000         0.000958916125
   26          9.576400000000        -0.018144657507
   27          4.916100000000        -0.033151306680
   28      10740.000000000000        -0.000000103980
   29       4190.000000000000        -0.000000779936
   30       1738.900000000000        -0.000005211578
   31        759.290000000000        -0.000030067077
   32        345.500000000000        -0.000148048568
   33        162.360000000000        -0.000625563456
   34         78.888000000000        -0.001808907699
   35         39.321000000000        -0.003693236914
   36         19.918000000000        -0.000896331532
   37          9.576400000000         0.010521301442
   38          4.916100000000         0.021413425336
   39          2.464800000000         0.014734028218
   40          1.183000000000        -0.009331646655
   41          0.575210000000         0.004328681123
   42          0.270410000000        -0.001472054640
   43          0.123120000000         0.000310728679
 S 43
    1    9445100.000000000000         0.000000332725
    2    1414100.000000000000         0.000002588168
    3     321810.000000000000         0.000013616471
    4      91158.000000000000         0.000057536556
    5      29743.000000000000         0.000209738487
    6      10740.000000000000         0.000684319954
    7       4190.000000000000         0.002039128464
    8       1738.900000000000         0.005585519317
    9        759.290000000000         0.013964569560
   10        345.500000000000         0.031114988121
   11        162.360000000000         0.058364383475
   12         78.888000000000         0.081379006014
   13         39.321000000000         0.071470789385
   14         19.918000000000         0.028611453779
   15          9.576400000000         0.002641694062
   16      29743.000000000000         0.000000521092
   17      10740.000000000000         0.000000374431
   18       4190.000000000000         0.000021905679
   19       1738.900000000000         0.000095061330
   20        759.290000000000         0.000721186528
   21        345.500000000000         0.003123959565
   22        162.360000000000         0.014334659745
   23         78.888000000000         0.038597659267
   24         39.321000000000         0.082796965057
   25         19.918000000000         0.009834824687
   26          9.576400000000        -0.186095030492
   27          4.916100000000        -0.340006055512
   28      10740.000000000000         0.000001735195
   29       4190.000000000000         0.000013015373
   30       1738.900000000000         0.000086969511
   31        759.290000000000         0.000501751836
   32        345.500000000000         0.002470597317
   33        162.360000000000         0.010439245863
   34         78.888000000000         0.030186597416
   35         39.321000000000         0.061631810146
   36         19.918000000000         0.014957755520
   37          9.576400000000        -0.175576836287
   38          4.916100000000        -0.357341864535
   39          2.464800000000        -0.245877762810
   40          1.183000000000         0.299841737868
   41          0.575210000000        -0.268591041138
   42          0.270410000000         0.141684592460
   43          0.123120000000        -0.039052634868
 S 43
    1    9445100.000000000000         0.000000087814
    2    1414100.000000000000         0.000000683080
    3     321810.000000000000         0.000003593714
    4      91158.000000000000         0.000015185281
    5      29743.000000000000         0.000055355032
    6      10740.000000000000         0.000180608496
    7       4190.000000000000         0.000538175050
    8       1738.900000000000         0.001474152900
    9        759.290000000000         0.003685585806
   10        345.500000000000         0.008211993795
   11        162.360000000000         0.015403764677
   12         78.888000000000         0.021477877151
   13         39.321000000000         0.018862860454
   14         19.918000000000         0.007551250863
   15          9.576400000000         0.000697206605
   16      29743.000000000000        -0.000000105724
   17      10740.000000000000        -0.000000075968
   18       4190.000000000000        -0.000004444447
   19       1738.900000000000        -0.000019287008
   20        759.290000000000        -0.000146321647
   21        345.500000000000        -0.000633820641
   22        162.360000000000        -0.002908361342
   23         78.888000000000        -0.007831085085
   24         39.321000000000        -0.016798689103
   25         19.918000000000        -0.001995389109
   26          9.576400000000         0.037756849646
   27          4.916100000000         0.068983881423
   28      10740.000000000000         0.000003489359
   29       4190.000000000000         0.000026173033
   30       1738.900000000000         0.000174889787
   31        759.290000000000         0.001008988903
   32        345.500000000000         0.004968203598
   33        162.360000000000         0.020992615231
   34         78.888000000000         0.060703199541
   35         39.321000000000         0.123937389093
   36         19.918000000000         0.030079031615
   37          9.576400000000        -0.353073106616
   38          4.916100000000        -0.718590247455
   39          2.464800000000        -0.494443500628
   40          1.183000000000         2.407315327945
   41          0.575210000000        -1.080407005739
   42          0.270410000000         0.549067649229
   43          0.123120000000        -0.146767020164
 S 43
    1    9445100.000000000000         0.000000032625
    2    1414100.000000000000         0.000000253784
    3     321810.000000000000         0.000001335168
    4      91158.000000000000         0.000005641770
    5      29743.000000000000         0.000020565991
    6      10740.000000000000         0.000067101265
    7       4190.000000000000         0.000199947551
    8       1738.900000000000         0.000547690314
    9        759.290000000000         0.001369301412
   10        345.500000000000         0.003050992513
   11        162.360000000000         0.005722942792
   12         78.888000000000         0.007979650741
   13         39.321000000000         0.007008096626
   14         19.918000000000         0.002805507459
   15          9.576400000000         0.000259032360
   16      29743.000000000000        -0.000000261787
   17      10740.000000000000        -0.000000188107
   18       4190.000000000000        -0.000011004995
   19       1738.900000000000        -0.000047757000
   20        759.290000000000        -0.000362310360
   21        345.500000000000        -0.001569417717
   22        162.360000000000        -0.007201459721
   23         78.888000000000        -0.019390728031
   24         39.321000000000        -0.041595616463
   25         19.918000000000        -0.004940828391
   26          9.576400000000         0.093490594838
   27          4.916100000000         0.170812559015
   28      10740.000000000000         0.000003126697
   29       4190.000000000000         0.000023452770
   30       1738.900000000000         0.000156712825
   31        759.290000000000         0.000904120838
   32        345.500000000000         0.004451839249
   33        162.360000000000         0.018810772663
   34         78.888000000000         0.054394084488
   35         39.321000000000         0.111056103542
   36         19.918000000000         0.026952803137
   37          9.576400000000        -0.316376872009
   38          4.916100000000        -0.643904422303
   39          2.464800000000        -0.443054101779
   40          1.183000000000         3.757101095775
   41          0.575210000000        -3.633479119765
   42          0.270410000000         0.574759928522
   43          0.123120000000        -0.188220594361
 S 43
    1    9445100.000000000000         0.000000016764
    2    1414100.000000000000         0.000000130406
    3     321810.000000000000         0.000000686072
    4      91158.000000000000         0.000002899007
    5      29743.000000000000         0.000010567773
    6      10740.000000000000         0.000034479786
    7       4190.000000000000         0.000102742455
    8       1738.900000000000         0.000281429042
    9        759.290000000000         0.000703611465
   10        345.500000000000         0.001567743444
   11        162.360000000000         0.002940717161
   12         78.888000000000         0.004100319841
   13         39.321000000000         0.003601089643
   14         19.918000000000         0.001441601678
   15          9.576400000000         0.000133103009
   16      29743.000000000000        -0.000000271350
   17      10740.000000000000        -0.000000194978
   18       4190.000000000000        -0.000011407010
   19       1738.900000000000        -0.000049501571
   20        759.290000000000        -0.000375545621
   21        345.500000000000        -0.001626748822
   22        162.360000000000        -0.007464530310
   23         78.888000000000        -0.020099074735
   24         39.321000000000        -0.043115111643
   25         19.918000000000        -0.005121317721
   26          9.576400000000         0.096905822701
   27          4.916100000000         0.177052371821
   28      10740.000000000000         0.000002507342
   29       4190.000000000000         0.000018807104
   30       1738.900000000000         0.000125670204
   31        759.290000000000         0.000725027131
   32        345.500000000000         0.003569992091
   33        162.360000000000         0.015084621405
   34         78.888000000000         0.043619376293
   35         39.321000000000         0.089057441000
   36         19.918000000000         0.021613829394
   37          9.576400000000        -0.253707033779
   38          4.916100000000        -0.516355952262
   39          2.464800000000        -0.355291274145
   40          1.183000000000         4.058501169610
   41          0.575210000000        -6.705530667778
   42          0.270410000000         3.890586760975
   43          0.123120000000        -0.090047133097
 S 43
    1    9445100.000000000000        -0.000000007575
    2    1414100.000000000000        -0.000000058927
    3     321810.000000000000        -0.000000310017
    4      91158.000000000000        -0.000001309980
    5      29743.000000000000        -0.000004775282
    6      10740.000000000000        -0.000015580453
    7       4190.000000000000        -0.000046426449
    8       1738.900000000000        -0.000127169932
    9        759.290000000000        -0.000317942390
   10        345.500000000000        -0.000708419521
   11        162.360000000000        -0.001328828037
   12         78.888000000000        -0.001852820134
   13         39.321000000000        -0.001627231937
   14         19.918000000000        -0.000651419576
   15          9.576400000000        -0.000060145536
   16      29743.000000000000         0.000000188153
   17      10740.000000000000         0.000000135197
   18       4190.000000000000         0.000007909579
   19       1738.900000000000         0.000034324209
   20        759.290000000000         0.000260401963
   21        345.500000000000         0.001127981697
   22        162.360000000000         0.005175878080
   23         78.888000000000         0.013936625081
   24         39.321000000000         0.029895861089
   25         19.918000000000         0.003551103020
   26          9.576400000000        -0.067194143858
   27          4.916100000000        -0.122767468569
   28      10740.000000000000        -0.000001700472
   29       4190.000000000000        -0.000012754920
   30       1738.900000000000        -0.000085229147
   31        759.290000000000        -0.000491711179
   32        345.500000000000        -0.002421157697
   33        162.360000000000        -0.010230344015
   34         78.888000000000        -0.029582527346
   35         39.321000000000        -0.060398483601
   36         19.918000000000        -0.014658432867
   37          9.576400000000         0.172063332914
   38          4.916100000000         0.350191024634
   39          2.464800000000         0.240957453461
   40          1.183000000000        -3.344414928413
   41          0.575210000000         7.393333581933
   42          0.270410000000        -8.040973354266
   43          0.123120000000         3.893008818633
 S 43
    1    9445100.000000000000        -0.000001871704
    2    1414100.000000000000        -0.000014559435
    3     321810.000000000000        -0.000076597856
    4      91158.000000000000        -0.000323665136
    5      29743.000000000000        -0.001179859209
    6      10740.000000000000        -0.003849561474
    7       4190.000000000000        -0.011470877523
    8       1738.900000000000        -0.031420682468
    9        759.290000000000        -0.078556044845
   10        345.500000000000        -0.175033708816
   11        162.360000000000        -0.328321979835
   12         78.888000000000        -0.457788034081
   13         39.321000000000        -0.402050525919
   14         19.918000000000        -0.160950370610
   15          9.576400000000        -0.014860539475
   16      29743.000000000000         0.000023106678
   17      10740.000000000000         0.000016603306
   18       4190.000000000000         0.000971359095
   19       1738.900000000000         0.004215285442
   20        759.290000000000         0.031979429079
   21        345.500000000000         0.138525110364
   22        162.360000000000         0.635638932619
   23         78.888000000000         1.711528238219
   24         39.321000000000         3.671449160997
   25         19.918000000000         0.436103652130
   26          9.576400000000        -8.251974490840
   27          4.916100000000       -15.076820103120
   28      10740.000000000000        -0.000064633690
   29       4190.000000000000        -0.000484805264
   30       1738.900000000000        -0.003239498105
   31        759.290000000000        -0.018689585524
   32        345.500000000000        -0.092026449254
   33        162.360000000000        -0.388847961236
   34         78.888000000000        -1.124410423498
   35         39.321000000000        -2.295702585888
   36         19.918000000000        -0.557156409099
   37          9.576400000000         6.540002575482
   38          4.916100000000        13.310507033850
   39          2.464800000000         9.158618164189
   40          1.183000000000       -12.601006055020
   41          0.575210000000        10.138092379231
   42          0.270410000000        -5.131971321001
   43          0.123120000000         1.392011643504
 P 26
    1      13006.000000000000         0.000019209255
    2       3078.100000000000         0.000171503942
    3        999.560000000000         0.000999907469
    4        380.970000000000         0.004551060648
    5        160.280000000000         0.016766111846
    6         74.494000000000         0.048222017702
    7         36.065000000000         0.120062261285
    8         18.164000000000         0.230746177638
    9          9.466500000000         0.323623613437
   10          5.163000000000         0.318784175312
   11          2.808500000000         0.208557685303
   12       3078.100000000000        -0.000001233860
   13        999.560000000000         0.000000817859
   14        380.970000000000        -0.000020320241
   15        160.280000000000         0.000114366815
   16         74.494000000000         0.000246037928
   17         36.065000000000         0.003739357555
   18         18.164000000000         0.007387225239
   19          9.466500000000         0.034260360774
   20          5.163000000000        -0.000743288065
   21          2.808500000000        -0.000537793936
   22          1.523500000000        -0.381218241849
   23          0.743790000000         0.352395015366
   24          0.356800000000        -0.222938492232
   25          0.162210000000         0.101143217058
   26          0.069956000000        -0.028396683482
 P 26
    1      13006.000000000000         0.000006633925
    2       3078.100000000000         0.000059228967
    3        999.560000000000         0.000345318514
    4        380.970000000000         0.001571710933
    5        160.280000000000         0.005790184604
    6         74.494000000000         0.016653496471
    7         36.065000000000         0.041463558347
    8         18.164000000000         0.079688300865
    9          9.466500000000         0.111763566957
   10          5.163000000000         0.110092264727
   11          2.808500000000         0.072025494611
   12       3078.100000000000        -0.000005054374
   13        999.560000000000         0.000003350269
   14        380.970000000000        -0.000083239667
   15        160.280000000000         0.000468491286
   16         74.494000000000         0.001007867756
   17         36.065000000000         0.015317873681
   18         18.164000000000         0.030260969001
   19          9.466500000000         0.140343861443
   20          5.163000000000        -0.003044799147
   21          2.808500000000        -0.002203014679
   22          1.523500000000        -1.561619285518
   23          0.743790000000         0.712880940975
   24          0.356800000000        -0.478147601195
   25          0.162210000000         0.214488302659
   26          0.069956000000        -0.059637607294
 P 26
    1      13006.000000000000        -0.000001783511
    2       3078.100000000000        -0.000015923532
    3        999.560000000000        -0.000092837860
    4        380.970000000000        -0.000422549829
    5        160.280000000000        -0.001556673980
    6         74.494000000000        -0.004477243197
    7         36.065000000000        -0.011147354842
    8         18.164000000000        -0.021423963642
    9          9.466500000000        -0.030047303921
   10          5.163000000000        -0.029597979267
   11          2.808500000000        -0.019363840879
   12       3078.100000000000         0.000005721637
   13        999.560000000000        -0.000003792561
   14        380.970000000000         0.000094228710
   15        160.280000000000        -0.000530340052
   16         74.494000000000        -0.001140923329
   17         36.065000000000        -0.017340091833
   18         18.164000000000        -0.034255928229
   19          9.466500000000        -0.158871622547
   20          5.163000000000         0.003446764082
   21          2.808500000000         0.002493849840
   22          1.523500000000         1.767779417924
   23          0.743790000000        -2.086696903395
   24          0.356800000000         0.179310649665
   25          0.162210000000        -0.187521641836
   26          0.069956000000         0.053705991016
 P 26
    1      13006.000000000000        -0.000000036761
    2       3078.100000000000        -0.000000328212
    3        999.560000000000        -0.000001913553
    4        380.970000000000        -0.000008709503
    5        160.280000000000        -0.000032085818
    6         74.494000000000        -0.000092283941
    7         36.065000000000        -0.000229766798
    8         18.164000000000        -0.000441585973
    9          9.466500000000        -0.000619328345
   10          5.163000000000        -0.000610066965
   11          2.808500000000        -0.000399123181
   12       3078.100000000000         0.000005406172
   13        999.560000000000        -0.000003583457
   14        380.970000000000         0.000089033374
   15        160.280000000000        -0.000501099551
   16         74.494000000000        -0.001078018087
   17         36.065000000000        -0.016384039256
   18         18.164000000000        -0.032367214560
   19          9.466500000000        -0.150112175042
   20          5.163000000000         0.003256725430
   21          2.808500000000         0.002356350478
   22          1.523500000000         1.670312225461
   23          0.743790000000        -3.320358398172
   24          0.356800000000         2.015807815847
   25          0.162210000000         0.292983781242
   26          0.069956000000        -0.007377050327
 P 26
    1      13006.000000000000        -0.000000578985
    2       3078.100000000000        -0.000005169288
    3        999.560000000000        -0.000030138136
    4        380.970000000000        -0.000137173180
    5        160.280000000000        -0.000505346127
    6         74.494000000000        -0.001453456241
    7         36.065000000000        -0.003618787668
    8         18.164000000000        -0.006954903340
    9          9.466500000000        -0.009754315209
   10          5.163000000000        -0.009608450065
   11          2.808500000000        -0.006286121647
   12       3078.100000000000        -0.000004740039
   13        999.560000000000         0.000003141914
   14        380.970000000000        -0.000078062936
   15        160.280000000000         0.000439355495
   16         74.494000000000         0.000945187775
   17         36.065000000000         0.014365244699
   18         18.164000000000         0.028379018758
   19          9.466500000000         0.131615781253
   20          5.163000000000        -0.002855441017
   21          2.808500000000        -0.002066007697
   22          1.523500000000        -1.464501120109
   23          0.743790000000         3.838735376206
   24          0.356800000000        -4.523960846772
   25          0.162210000000         2.375232595841
   26          0.069956000000         0.104307747577
 P 26
    1      13006.000000000000        -0.000000535622
    2       3078.100000000000        -0.000004782138
    3        999.560000000000        -0.000027880967
    4        380.970000000000        -0.000126899712
    5        160.280000000000        -0.000467498662
    6         74.494000000000        -0.001344600880
    7         36.065000000000        -0.003347761664
    8         18.164000000000        -0.006434021809
    9          9.466500000000        -0.009023774122
   10          5.163000000000        -0.008888833424
   11          2.808500000000        -0.005815327947
   12       3078.100000000000        -0.000003071618
   13        999.560000000000         0.000002036008
   14        380.970000000000        -0.000050585976
   15        160.280000000000         0.000284709080
   16         74.494000000000         0.000612496133
   17         36.065000000000         0.009308898252
   18         18.164000000000         0.018390038154
   19          9.466500000000         0.085289039046
   20          5.163000000000        -0.001850369447
   21          2.808500000000        -0.001338804583
   22          1.523500000000        -0.949019122376
   23          0.743790000000         2.828290866393
   24          0.356800000000        -4.352248518270
   25          0.162210000000         4.345404961434
   26          0.069956000000        -2.410287451193
 D 6
    1         26.330000000000         0.064389086067
    2          7.530000000000         0.412992962027
    3          2.600000000000         0.628246932432
    4          0.930000000000         0.066053394013
    5          0.410000000000        -0.000840419409
    6          0.170000000000        -0.000987324932
 D 6
    1         26.330000000000         0.049182213799
    2          7.530000000000         0.366649287264
    3          2.600000000000         0.262189171824
    4          0.930000000000        -1.012560749384
    5          0.410000000000        -0.074427603175
    6          0.170000000000        -0.012571440145
 D 6
    1         26.330000000000         0.036244087135
    2          7.530000000000         0.296813680565
    3          2.600000000000         0.044758367223
    4          0.930000000000        -1.188620693614
    5          0.410000000000         1.412359888884
    6          0.170000000000         0.087809336403
 D 6
    1         26.330000000000         0.024555232158
    2          7.530000000000         0.219370230963
    3          2.600000000000        -0.066644333935
    4          0.930000000000        -0.822579240102
    5          0.410000000000         1.822878676017
    6          0.170000000000        -1.617841632024
 D 6
    1         26.330000000000         0.097767997952
    2          7.530000000000         1.109199770222
    3          2.600000000000        -1.866834942406
    4          0.930000000000         1.951878906466
    5          0.410000000000        -1.437282179093
    6          0.170000000000         0.546418054021
 D 6
    1         26.330000000000         1.235296268305
    2          7.530000000000        -1.134110110674
    3          2.600000000000         0.765751138391
    4          0.930000000000        -0.503279498009
    5          0.410000000000         0.302430123848
    6          0.170000000000        -0.101312665502
 F 3
    1          4.530000000000         0.340512975338
    2          1.060000000000         0.858216904245
    3          0.440000000000        -0.042213467100
 F 3
    1          4.530000000000         0.328429831129
    2          1.060000000000         0.452224413210
    3          0.440000000000        -1.154478144876
 F 3
    1          4.530000000000         0.973768504634
    2          1.060000000000        -1.050660285845
    3          0.440000000000         0.701955688962
 G 2
    1          2.180000000000         0.303437171151
    2          0.730000000000         0.824428485180
 G 2
    1          2.180000000000         1.082001834687
    2          0.730000000000        -0.763622786411
 H 1
    1          1.120000000000         1.000000000000
 end
  // -----------------------------------------------
  // The basis set
  // -----------------------------------------------
  BAS[ATNO] = new BFNGauss[NSH];
  // Basis function   1 L = s
  InitBFNGauss(BAS[ATNO][  0]);
  BAS[ATNO][  0].l  = 0;
  BAS[ATNO][  0].ng = 43;
  BAS[ATNO][  0].a[  0] =   9445100.000000000000;     BAS[ATNO][  0].d[  0] =         0.000001293283;
  BAS[ATNO][  0].a[  1] =   1414100.000000000000;     BAS[ATNO][  0].d[  1] =         0.000010060066;
  BAS[ATNO][  0].a[  2] =    321810.000000000000;     BAS[ATNO][  0].d[  2] =         0.000052926469;
  BAS[ATNO][  0].a[  3] =     91158.000000000000;     BAS[ATNO][  0].d[  3] =         0.000223641411;
  BAS[ATNO][  0].a[  4] =     29743.000000000000;     BAS[ATNO][  0].d[  4] =         0.000815241895;
  BAS[ATNO][  0].a[  5] =     10740.000000000000;     BAS[ATNO][  0].d[  5] =         0.002659913801;
  BAS[ATNO][  0].a[  6] =      4190.000000000000;     BAS[ATNO][  0].d[  6] =         0.007925979527;
  BAS[ATNO][  0].a[  7] =      1738.900000000000;     BAS[ATNO][  0].d[  7] =         0.021710604570;
  BAS[ATNO][  0].a[  8] =       759.290000000000;     BAS[ATNO][  0].d[  8] =         0.054279509300;
  BAS[ATNO][  0].a[  9] =       345.500000000000;     BAS[ATNO][  0].d[  9] =         0.120942237408;
  BAS[ATNO][  0].a[ 10] =       162.360000000000;     BAS[ATNO][  0].d[ 10] =         0.226859129593;
  BAS[ATNO][  0].a[ 11] =        78.888000000000;     BAS[ATNO][  0].d[ 11] =         0.316315694130;
  BAS[ATNO][  0].a[ 12] =        39.321000000000;     BAS[ATNO][  0].d[ 12] =         0.277803004259;
  BAS[ATNO][  0].a[ 13] =        19.918000000000;     BAS[ATNO][  0].d[ 13] =         0.111211137928;
  BAS[ATNO][  0].a[ 14] =         9.576400000000;     BAS[ATNO][  0].d[ 14] =         0.010268118669;
  BAS[ATNO][  0].a[ 15] =     29743.000000000000;     BAS[ATNO][  0].d[ 15] =         0.000000050808;
  BAS[ATNO][  0].a[ 16] =     10740.000000000000;     BAS[ATNO][  0].d[ 16] =         0.000000036508;
  BAS[ATNO][  0].a[ 17] =      4190.000000000000;     BAS[ATNO][  0].d[ 17] =         0.000002135850;
  BAS[ATNO][  0].a[ 18] =      1738.900000000000;     BAS[ATNO][  0].d[ 18] =         0.000009268680;
  BAS[ATNO][  0].a[ 19] =       759.290000000000;     BAS[ATNO][  0].d[ 19] =         0.000070317206;
  BAS[ATNO][  0].a[ 20] =       345.500000000000;     BAS[ATNO][  0].d[ 20] =         0.000304592639;
  BAS[ATNO][  0].a[ 21] =       162.360000000000;     BAS[ATNO][  0].d[ 21] =         0.001397659523;
  BAS[ATNO][  0].a[ 22] =        78.888000000000;     BAS[ATNO][  0].d[ 22] =         0.003763353090;
  BAS[ATNO][  0].a[ 23] =        39.321000000000;     BAS[ATNO][  0].d[ 23] =         0.008072878516;
  BAS[ATNO][  0].a[ 24] =        19.918000000000;     BAS[ATNO][  0].d[ 24] =         0.000958916125;
  BAS[ATNO][  0].a[ 25] =         9.576400000000;     BAS[ATNO][  0].d[ 25] =        -0.018144657507;
  BAS[ATNO][  0].a[ 26] =         4.916100000000;     BAS[ATNO][  0].d[ 26] =        -0.033151306680;
  BAS[ATNO][  0].a[ 27] =     10740.000000000000;     BAS[ATNO][  0].d[ 27] =        -0.000000103980;
  BAS[ATNO][  0].a[ 28] =      4190.000000000000;     BAS[ATNO][  0].d[ 28] =        -0.000000779936;
  BAS[ATNO][  0].a[ 29] =      1738.900000000000;     BAS[ATNO][  0].d[ 29] =        -0.000005211578;
  BAS[ATNO][  0].a[ 30] =       759.290000000000;     BAS[ATNO][  0].d[ 30] =        -0.000030067077;
  BAS[ATNO][  0].a[ 31] =       345.500000000000;     BAS[ATNO][  0].d[ 31] =        -0.000148048568;
  BAS[ATNO][  0].a[ 32] =       162.360000000000;     BAS[ATNO][  0].d[ 32] =        -0.000625563456;
  BAS[ATNO][  0].a[ 33] =        78.888000000000;     BAS[ATNO][  0].d[ 33] =        -0.001808907699;
  BAS[ATNO][  0].a[ 34] =        39.321000000000;     BAS[ATNO][  0].d[ 34] =        -0.003693236914;
  BAS[ATNO][  0].a[ 35] =        19.918000000000;     BAS[ATNO][  0].d[ 35] =        -0.000896331532;
  BAS[ATNO][  0].a[ 36] =         9.576400000000;     BAS[ATNO][  0].d[ 36] =         0.010521301442;
  BAS[ATNO][  0].a[ 37] =         4.916100000000;     BAS[ATNO][  0].d[ 37] =         0.021413425336;
  BAS[ATNO][  0].a[ 38] =         2.464800000000;     BAS[ATNO][  0].d[ 38] =         0.014734028218;
  BAS[ATNO][  0].a[ 39] =         1.183000000000;     BAS[ATNO][  0].d[ 39] =        -0.009331646655;
  BAS[ATNO][  0].a[ 40] =         0.575210000000;     BAS[ATNO][  0].d[ 40] =         0.004328681123;
  BAS[ATNO][  0].a[ 41] =         0.270410000000;     BAS[ATNO][  0].d[ 41] =        -0.001472054640;
  BAS[ATNO][  0].a[ 42] =         0.123120000000;     BAS[ATNO][  0].d[ 42] =         0.000310728679;

  // Basis function   2 L = s
  InitBFNGauss(BAS[ATNO][  1]);
  BAS[ATNO][  1].l  = 0;
  BAS[ATNO][  1].ng = 43;
  BAS[ATNO][  1].a[  0] =   9445100.000000000000;     BAS[ATNO][  1].d[  0] =        -0.000000332725;
  BAS[ATNO][  1].a[  1] =   1414100.000000000000;     BAS[ATNO][  1].d[  1] =        -0.000002588168;
  BAS[ATNO][  1].a[  2] =    321810.000000000000;     BAS[ATNO][  1].d[  2] =        -0.000013616471;
  BAS[ATNO][  1].a[  3] =     91158.000000000000;     BAS[ATNO][  1].d[  3] =        -0.000057536556;
  BAS[ATNO][  1].a[  4] =     29743.000000000000;     BAS[ATNO][  1].d[  4] =        -0.000209738487;
  BAS[ATNO][  1].a[  5] =     10740.000000000000;     BAS[ATNO][  1].d[  5] =        -0.000684319954;
  BAS[ATNO][  1].a[  6] =      4190.000000000000;     BAS[ATNO][  1].d[  6] =        -0.002039128464;
  BAS[ATNO][  1].a[  7] =      1738.900000000000;     BAS[ATNO][  1].d[  7] =        -0.005585519317;
  BAS[ATNO][  1].a[  8] =       759.290000000000;     BAS[ATNO][  1].d[  8] =        -0.013964569560;
  BAS[ATNO][  1].a[  9] =       345.500000000000;     BAS[ATNO][  1].d[  9] =        -0.031114988121;
  BAS[ATNO][  1].a[ 10] =       162.360000000000;     BAS[ATNO][  1].d[ 10] =        -0.058364383475;
  BAS[ATNO][  1].a[ 11] =        78.888000000000;     BAS[ATNO][  1].d[ 11] =        -0.081379006014;
  BAS[ATNO][  1].a[ 12] =        39.321000000000;     BAS[ATNO][  1].d[ 12] =        -0.071470789385;
  BAS[ATNO][  1].a[ 13] =        19.918000000000;     BAS[ATNO][  1].d[ 13] =        -0.028611453779;
  BAS[ATNO][  1].a[ 14] =         9.576400000000;     BAS[ATNO][  1].d[ 14] =        -0.002641694062;
  BAS[ATNO][  1].a[ 15] =     29743.000000000000;     BAS[ATNO][  1].d[ 15] =        -0.000000521092;
  BAS[ATNO][  1].a[ 16] =     10740.000000000000;     BAS[ATNO][  1].d[ 16] =        -0.000000374431;
  BAS[ATNO][  1].a[ 17] =      4190.000000000000;     BAS[ATNO][  1].d[ 17] =        -0.000021905679;
  BAS[ATNO][  1].a[ 18] =      1738.900000000000;     BAS[ATNO][  1].d[ 18] =        -0.000095061330;
  BAS[ATNO][  1].a[ 19] =       759.290000000000;     BAS[ATNO][  1].d[ 19] =        -0.000721186528;
  BAS[ATNO][  1].a[ 20] =       345.500000000000;     BAS[ATNO][  1].d[ 20] =        -0.003123959565;
  BAS[ATNO][  1].a[ 21] =       162.360000000000;     BAS[ATNO][  1].d[ 21] =        -0.014334659745;
  BAS[ATNO][  1].a[ 22] =        78.888000000000;     BAS[ATNO][  1].d[ 22] =        -0.038597659267;
  BAS[ATNO][  1].a[ 23] =        39.321000000000;     BAS[ATNO][  1].d[ 23] =        -0.082796965057;
  BAS[ATNO][  1].a[ 24] =        19.918000000000;     BAS[ATNO][  1].d[ 24] =        -0.009834824687;
  BAS[ATNO][  1].a[ 25] =         9.576400000000;     BAS[ATNO][  1].d[ 25] =         0.186095030492;
  BAS[ATNO][  1].a[ 26] =         4.916100000000;     BAS[ATNO][  1].d[ 26] =         0.340006055512;
  BAS[ATNO][  1].a[ 27] =     10740.000000000000;     BAS[ATNO][  1].d[ 27] =        -0.000001735195;
  BAS[ATNO][  1].a[ 28] =      4190.000000000000;     BAS[ATNO][  1].d[ 28] =        -0.000013015373;
  BAS[ATNO][  1].a[ 29] =      1738.900000000000;     BAS[ATNO][  1].d[ 29] =        -0.000086969511;
  BAS[ATNO][  1].a[ 30] =       759.290000000000;     BAS[ATNO][  1].d[ 30] =        -0.000501751836;
  BAS[ATNO][  1].a[ 31] =       345.500000000000;     BAS[ATNO][  1].d[ 31] =        -0.002470597317;
  BAS[ATNO][  1].a[ 32] =       162.360000000000;     BAS[ATNO][  1].d[ 32] =        -0.010439245863;
  BAS[ATNO][  1].a[ 33] =        78.888000000000;     BAS[ATNO][  1].d[ 33] =        -0.030186597416;
  BAS[ATNO][  1].a[ 34] =        39.321000000000;     BAS[ATNO][  1].d[ 34] =        -0.061631810146;
  BAS[ATNO][  1].a[ 35] =        19.918000000000;     BAS[ATNO][  1].d[ 35] =        -0.014957755520;
  BAS[ATNO][  1].a[ 36] =         9.576400000000;     BAS[ATNO][  1].d[ 36] =         0.175576836287;
  BAS[ATNO][  1].a[ 37] =         4.916100000000;     BAS[ATNO][  1].d[ 37] =         0.357341864535;
  BAS[ATNO][  1].a[ 38] =         2.464800000000;     BAS[ATNO][  1].d[ 38] =         0.245877762810;
  BAS[ATNO][  1].a[ 39] =         1.183000000000;     BAS[ATNO][  1].d[ 39] =        -0.299841737868;
  BAS[ATNO][  1].a[ 40] =         0.575210000000;     BAS[ATNO][  1].d[ 40] =         0.268591041138;
  BAS[ATNO][  1].a[ 41] =         0.270410000000;     BAS[ATNO][  1].d[ 41] =        -0.141684592460;
  BAS[ATNO][  1].a[ 42] =         0.123120000000;     BAS[ATNO][  1].d[ 42] =         0.039052634868;

  // Basis function   3 L = s
  InitBFNGauss(BAS[ATNO][  2]);
  BAS[ATNO][  2].l  = 0;
  BAS[ATNO][  2].ng = 43;
  BAS[ATNO][  2].a[  0] =   9445100.000000000000;     BAS[ATNO][  2].d[  0] =         0.000000087814;
  BAS[ATNO][  2].a[  1] =   1414100.000000000000;     BAS[ATNO][  2].d[  1] =         0.000000683080;
  BAS[ATNO][  2].a[  2] =    321810.000000000000;     BAS[ATNO][  2].d[  2] =         0.000003593714;
  BAS[ATNO][  2].a[  3] =     91158.000000000000;     BAS[ATNO][  2].d[  3] =         0.000015185281;
  BAS[ATNO][  2].a[  4] =     29743.000000000000;     BAS[ATNO][  2].d[  4] =         0.000055355032;
  BAS[ATNO][  2].a[  5] =     10740.000000000000;     BAS[ATNO][  2].d[  5] =         0.000180608496;
  BAS[ATNO][  2].a[  6] =      4190.000000000000;     BAS[ATNO][  2].d[  6] =         0.000538175050;
  BAS[ATNO][  2].a[  7] =      1738.900000000000;     BAS[ATNO][  2].d[  7] =         0.001474152900;
  BAS[ATNO][  2].a[  8] =       759.290000000000;     BAS[ATNO][  2].d[  8] =         0.003685585806;
  BAS[ATNO][  2].a[  9] =       345.500000000000;     BAS[ATNO][  2].d[  9] =         0.008211993795;
  BAS[ATNO][  2].a[ 10] =       162.360000000000;     BAS[ATNO][  2].d[ 10] =         0.015403764677;
  BAS[ATNO][  2].a[ 11] =        78.888000000000;     BAS[ATNO][  2].d[ 11] =         0.021477877151;
  BAS[ATNO][  2].a[ 12] =        39.321000000000;     BAS[ATNO][  2].d[ 12] =         0.018862860454;
  BAS[ATNO][  2].a[ 13] =        19.918000000000;     BAS[ATNO][  2].d[ 13] =         0.007551250863;
  BAS[ATNO][  2].a[ 14] =         9.576400000000;     BAS[ATNO][  2].d[ 14] =         0.000697206605;
  BAS[ATNO][  2].a[ 15] =     29743.000000000000;     BAS[ATNO][  2].d[ 15] =        -0.000000105724;
  BAS[ATNO][  2].a[ 16] =     10740.000000000000;     BAS[ATNO][  2].d[ 16] =        -0.000000075968;
  BAS[ATNO][  2].a[ 17] =      4190.000000000000;     BAS[ATNO][  2].d[ 17] =        -0.000004444447;
  BAS[ATNO][  2].a[ 18] =      1738.900000000000;     BAS[ATNO][  2].d[ 18] =        -0.000019287008;
  BAS[ATNO][  2].a[ 19] =       759.290000000000;     BAS[ATNO][  2].d[ 19] =        -0.000146321647;
  BAS[ATNO][  2].a[ 20] =       345.500000000000;     BAS[ATNO][  2].d[ 20] =        -0.000633820641;
  BAS[ATNO][  2].a[ 21] =       162.360000000000;     BAS[ATNO][  2].d[ 21] =        -0.002908361342;
  BAS[ATNO][  2].a[ 22] =        78.888000000000;     BAS[ATNO][  2].d[ 22] =        -0.007831085085;
  BAS[ATNO][  2].a[ 23] =        39.321000000000;     BAS[ATNO][  2].d[ 23] =        -0.016798689103;
  BAS[ATNO][  2].a[ 24] =        19.918000000000;     BAS[ATNO][  2].d[ 24] =        -0.001995389109;
  BAS[ATNO][  2].a[ 25] =         9.576400000000;     BAS[ATNO][  2].d[ 25] =         0.037756849646;
  BAS[ATNO][  2].a[ 26] =         4.916100000000;     BAS[ATNO][  2].d[ 26] =         0.068983881423;
  BAS[ATNO][  2].a[ 27] =     10740.000000000000;     BAS[ATNO][  2].d[ 27] =         0.000003489359;
  BAS[ATNO][  2].a[ 28] =      4190.000000000000;     BAS[ATNO][  2].d[ 28] =         0.000026173033;
  BAS[ATNO][  2].a[ 29] =      1738.900000000000;     BAS[ATNO][  2].d[ 29] =         0.000174889787;
  BAS[ATNO][  2].a[ 30] =       759.290000000000;     BAS[ATNO][  2].d[ 30] =         0.001008988903;
  BAS[ATNO][  2].a[ 31] =       345.500000000000;     BAS[ATNO][  2].d[ 31] =         0.004968203598;
  BAS[ATNO][  2].a[ 32] =       162.360000000000;     BAS[ATNO][  2].d[ 32] =         0.020992615231;
  BAS[ATNO][  2].a[ 33] =        78.888000000000;     BAS[ATNO][  2].d[ 33] =         0.060703199541;
  BAS[ATNO][  2].a[ 34] =        39.321000000000;     BAS[ATNO][  2].d[ 34] =         0.123937389093;
  BAS[ATNO][  2].a[ 35] =        19.918000000000;     BAS[ATNO][  2].d[ 35] =         0.030079031615;
  BAS[ATNO][  2].a[ 36] =         9.576400000000;     BAS[ATNO][  2].d[ 36] =        -0.353073106616;
  BAS[ATNO][  2].a[ 37] =         4.916100000000;     BAS[ATNO][  2].d[ 37] =        -0.718590247455;
  BAS[ATNO][  2].a[ 38] =         2.464800000000;     BAS[ATNO][  2].d[ 38] =        -0.494443500628;
  BAS[ATNO][  2].a[ 39] =         1.183000000000;     BAS[ATNO][  2].d[ 39] =         2.407315327945;
  BAS[ATNO][  2].a[ 40] =         0.575210000000;     BAS[ATNO][  2].d[ 40] =        -1.080407005739;
  BAS[ATNO][  2].a[ 41] =         0.270410000000;     BAS[ATNO][  2].d[ 41] =         0.549067649229;
  BAS[ATNO][  2].a[ 42] =         0.123120000000;     BAS[ATNO][  2].d[ 42] =        -0.146767020164;

  // Basis function   4 L = s
  InitBFNGauss(BAS[ATNO][  3]);
  BAS[ATNO][  3].l  = 0;
  BAS[ATNO][  3].ng = 43;
  BAS[ATNO][  3].a[  0] =   9445100.000000000000;     BAS[ATNO][  3].d[  0] =         0.000000032625;
  BAS[ATNO][  3].a[  1] =   1414100.000000000000;     BAS[ATNO][  3].d[  1] =         0.000000253784;
  BAS[ATNO][  3].a[  2] =    321810.000000000000;     BAS[ATNO][  3].d[  2] =         0.000001335168;
  BAS[ATNO][  3].a[  3] =     91158.000000000000;     BAS[ATNO][  3].d[  3] =         0.000005641770;
  BAS[ATNO][  3].a[  4] =     29743.000000000000;     BAS[ATNO][  3].d[  4] =         0.000020565991;
  BAS[ATNO][  3].a[  5] =     10740.000000000000;     BAS[ATNO][  3].d[  5] =         0.000067101265;
  BAS[ATNO][  3].a[  6] =      4190.000000000000;     BAS[ATNO][  3].d[  6] =         0.000199947551;
  BAS[ATNO][  3].a[  7] =      1738.900000000000;     BAS[ATNO][  3].d[  7] =         0.000547690314;
  BAS[ATNO][  3].a[  8] =       759.290000000000;     BAS[ATNO][  3].d[  8] =         0.001369301412;
  BAS[ATNO][  3].a[  9] =       345.500000000000;     BAS[ATNO][  3].d[  9] =         0.003050992513;
  BAS[ATNO][  3].a[ 10] =       162.360000000000;     BAS[ATNO][  3].d[ 10] =         0.005722942792;
  BAS[ATNO][  3].a[ 11] =        78.888000000000;     BAS[ATNO][  3].d[ 11] =         0.007979650741;
  BAS[ATNO][  3].a[ 12] =        39.321000000000;     BAS[ATNO][  3].d[ 12] =         0.007008096626;
  BAS[ATNO][  3].a[ 13] =        19.918000000000;     BAS[ATNO][  3].d[ 13] =         0.002805507459;
  BAS[ATNO][  3].a[ 14] =         9.576400000000;     BAS[ATNO][  3].d[ 14] =         0.000259032360;
  BAS[ATNO][  3].a[ 15] =     29743.000000000000;     BAS[ATNO][  3].d[ 15] =        -0.000000261787;
  BAS[ATNO][  3].a[ 16] =     10740.000000000000;     BAS[ATNO][  3].d[ 16] =        -0.000000188107;
  BAS[ATNO][  3].a[ 17] =      4190.000000000000;     BAS[ATNO][  3].d[ 17] =        -0.000011004995;
  BAS[ATNO][  3].a[ 18] =      1738.900000000000;     BAS[ATNO][  3].d[ 18] =        -0.000047757000;
  BAS[ATNO][  3].a[ 19] =       759.290000000000;     BAS[ATNO][  3].d[ 19] =        -0.000362310360;
  BAS[ATNO][  3].a[ 20] =       345.500000000000;     BAS[ATNO][  3].d[ 20] =        -0.001569417717;
  BAS[ATNO][  3].a[ 21] =       162.360000000000;     BAS[ATNO][  3].d[ 21] =        -0.007201459721;
  BAS[ATNO][  3].a[ 22] =        78.888000000000;     BAS[ATNO][  3].d[ 22] =        -0.019390728031;
  BAS[ATNO][  3].a[ 23] =        39.321000000000;     BAS[ATNO][  3].d[ 23] =        -0.041595616463;
  BAS[ATNO][  3].a[ 24] =        19.918000000000;     BAS[ATNO][  3].d[ 24] =        -0.004940828391;
  BAS[ATNO][  3].a[ 25] =         9.576400000000;     BAS[ATNO][  3].d[ 25] =         0.093490594838;
  BAS[ATNO][  3].a[ 26] =         4.916100000000;     BAS[ATNO][  3].d[ 26] =         0.170812559015;
  BAS[ATNO][  3].a[ 27] =     10740.000000000000;     BAS[ATNO][  3].d[ 27] =         0.000003126697;
  BAS[ATNO][  3].a[ 28] =      4190.000000000000;     BAS[ATNO][  3].d[ 28] =         0.000023452770;
  BAS[ATNO][  3].a[ 29] =      1738.900000000000;     BAS[ATNO][  3].d[ 29] =         0.000156712825;
  BAS[ATNO][  3].a[ 30] =       759.290000000000;     BAS[ATNO][  3].d[ 30] =         0.000904120838;
  BAS[ATNO][  3].a[ 31] =       345.500000000000;     BAS[ATNO][  3].d[ 31] =         0.004451839249;
  BAS[ATNO][  3].a[ 32] =       162.360000000000;     BAS[ATNO][  3].d[ 32] =         0.018810772663;
  BAS[ATNO][  3].a[ 33] =        78.888000000000;     BAS[ATNO][  3].d[ 33] =         0.054394084488;
  BAS[ATNO][  3].a[ 34] =        39.321000000000;     BAS[ATNO][  3].d[ 34] =         0.111056103542;
  BAS[ATNO][  3].a[ 35] =        19.918000000000;     BAS[ATNO][  3].d[ 35] =         0.026952803137;
  BAS[ATNO][  3].a[ 36] =         9.576400000000;     BAS[ATNO][  3].d[ 36] =        -0.316376872009;
  BAS[ATNO][  3].a[ 37] =         4.916100000000;     BAS[ATNO][  3].d[ 37] =        -0.643904422303;
  BAS[ATNO][  3].a[ 38] =         2.464800000000;     BAS[ATNO][  3].d[ 38] =        -0.443054101779;
  BAS[ATNO][  3].a[ 39] =         1.183000000000;     BAS[ATNO][  3].d[ 39] =         3.757101095775;
  BAS[ATNO][  3].a[ 40] =         0.575210000000;     BAS[ATNO][  3].d[ 40] =        -3.633479119765;
  BAS[ATNO][  3].a[ 41] =         0.270410000000;     BAS[ATNO][  3].d[ 41] =         0.574759928522;
  BAS[ATNO][  3].a[ 42] =         0.123120000000;     BAS[ATNO][  3].d[ 42] =        -0.188220594361;

  // Basis function   5 L = s
  InitBFNGauss(BAS[ATNO][  4]);
  BAS[ATNO][  4].l  = 0;
  BAS[ATNO][  4].ng = 43;
  BAS[ATNO][  4].a[  0] =   9445100.000000000000;     BAS[ATNO][  4].d[  0] =        -0.000000016764;
  BAS[ATNO][  4].a[  1] =   1414100.000000000000;     BAS[ATNO][  4].d[  1] =        -0.000000130406;
  BAS[ATNO][  4].a[  2] =    321810.000000000000;     BAS[ATNO][  4].d[  2] =        -0.000000686072;
  BAS[ATNO][  4].a[  3] =     91158.000000000000;     BAS[ATNO][  4].d[  3] =        -0.000002899007;
  BAS[ATNO][  4].a[  4] =     29743.000000000000;     BAS[ATNO][  4].d[  4] =        -0.000010567773;
  BAS[ATNO][  4].a[  5] =     10740.000000000000;     BAS[ATNO][  4].d[  5] =        -0.000034479786;
  BAS[ATNO][  4].a[  6] =      4190.000000000000;     BAS[ATNO][  4].d[  6] =        -0.000102742455;
  BAS[ATNO][  4].a[  7] =      1738.900000000000;     BAS[ATNO][  4].d[  7] =        -0.000281429042;
  BAS[ATNO][  4].a[  8] =       759.290000000000;     BAS[ATNO][  4].d[  8] =        -0.000703611465;
  BAS[ATNO][  4].a[  9] =       345.500000000000;     BAS[ATNO][  4].d[  9] =        -0.001567743444;
  BAS[ATNO][  4].a[ 10] =       162.360000000000;     BAS[ATNO][  4].d[ 10] =        -0.002940717161;
  BAS[ATNO][  4].a[ 11] =        78.888000000000;     BAS[ATNO][  4].d[ 11] =        -0.004100319841;
  BAS[ATNO][  4].a[ 12] =        39.321000000000;     BAS[ATNO][  4].d[ 12] =        -0.003601089643;
  BAS[ATNO][  4].a[ 13] =        19.918000000000;     BAS[ATNO][  4].d[ 13] =        -0.001441601678;
  BAS[ATNO][  4].a[ 14] =         9.576400000000;     BAS[ATNO][  4].d[ 14] =        -0.000133103009;
  BAS[ATNO][  4].a[ 15] =     29743.000000000000;     BAS[ATNO][  4].d[ 15] =         0.000000271350;
  BAS[ATNO][  4].a[ 16] =     10740.000000000000;     BAS[ATNO][  4].d[ 16] =         0.000000194978;
  BAS[ATNO][  4].a[ 17] =      4190.000000000000;     BAS[ATNO][  4].d[ 17] =         0.000011407010;
  BAS[ATNO][  4].a[ 18] =      1738.900000000000;     BAS[ATNO][  4].d[ 18] =         0.000049501571;
  BAS[ATNO][  4].a[ 19] =       759.290000000000;     BAS[ATNO][  4].d[ 19] =         0.000375545621;
  BAS[ATNO][  4].a[ 20] =       345.500000000000;     BAS[ATNO][  4].d[ 20] =         0.001626748822;
  BAS[ATNO][  4].a[ 21] =       162.360000000000;     BAS[ATNO][  4].d[ 21] =         0.007464530310;
  BAS[ATNO][  4].a[ 22] =        78.888000000000;     BAS[ATNO][  4].d[ 22] =         0.020099074735;
  BAS[ATNO][  4].a[ 23] =        39.321000000000;     BAS[ATNO][  4].d[ 23] =         0.043115111643;
  BAS[ATNO][  4].a[ 24] =        19.918000000000;     BAS[ATNO][  4].d[ 24] =         0.005121317721;
  BAS[ATNO][  4].a[ 25] =         9.576400000000;     BAS[ATNO][  4].d[ 25] =        -0.096905822701;
  BAS[ATNO][  4].a[ 26] =         4.916100000000;     BAS[ATNO][  4].d[ 26] =        -0.177052371821;
  BAS[ATNO][  4].a[ 27] =     10740.000000000000;     BAS[ATNO][  4].d[ 27] =        -0.000002507342;
  BAS[ATNO][  4].a[ 28] =      4190.000000000000;     BAS[ATNO][  4].d[ 28] =        -0.000018807104;
  BAS[ATNO][  4].a[ 29] =      1738.900000000000;     BAS[ATNO][  4].d[ 29] =        -0.000125670204;
  BAS[ATNO][  4].a[ 30] =       759.290000000000;     BAS[ATNO][  4].d[ 30] =        -0.000725027131;
  BAS[ATNO][  4].a[ 31] =       345.500000000000;     BAS[ATNO][  4].d[ 31] =        -0.003569992091;
  BAS[ATNO][  4].a[ 32] =       162.360000000000;     BAS[ATNO][  4].d[ 32] =        -0.015084621405;
  BAS[ATNO][  4].a[ 33] =        78.888000000000;     BAS[ATNO][  4].d[ 33] =        -0.043619376293;
  BAS[ATNO][  4].a[ 34] =        39.321000000000;     BAS[ATNO][  4].d[ 34] =        -0.089057441000;
  BAS[ATNO][  4].a[ 35] =        19.918000000000;     BAS[ATNO][  4].d[ 35] =        -0.021613829394;
  BAS[ATNO][  4].a[ 36] =         9.576400000000;     BAS[ATNO][  4].d[ 36] =         0.253707033779;
  BAS[ATNO][  4].a[ 37] =         4.916100000000;     BAS[ATNO][  4].d[ 37] =         0.516355952262;
  BAS[ATNO][  4].a[ 38] =         2.464800000000;     BAS[ATNO][  4].d[ 38] =         0.355291274145;
  BAS[ATNO][  4].a[ 39] =         1.183000000000;     BAS[ATNO][  4].d[ 39] =        -4.058501169610;
[...]
  BAS[ATNO][  9].a[ 11] =      3078.100000000000;     BAS[ATNO][  9].d[ 11] =        -0.000005721637;
  BAS[ATNO][  9].a[ 12] =       999.560000000000;     BAS[ATNO][  9].d[ 12] =         0.000003792561;
  BAS[ATNO][  9].a[ 13] =       380.970000000000;     BAS[ATNO][  9].d[ 13] =        -0.000094228710;
  BAS[ATNO][  9].a[ 14] =       160.280000000000;     BAS[ATNO][  9].d[ 14] =         0.000530340052;
  BAS[ATNO][  9].a[ 15] =        74.494000000000;     BAS[ATNO][  9].d[ 15] =         0.001140923329;
  BAS[ATNO][  9].a[ 16] =        36.065000000000;     BAS[ATNO][  9].d[ 16] =         0.017340091833;
  BAS[ATNO][  9].a[ 17] =        18.164000000000;     BAS[ATNO][  9].d[ 17] =         0.034255928229;
  BAS[ATNO][  9].a[ 18] =         9.466500000000;     BAS[ATNO][  9].d[ 18] =         0.158871622547;
  BAS[ATNO][  9].a[ 19] =         5.163000000000;     BAS[ATNO][  9].d[ 19] =        -0.003446764082;
  BAS[ATNO][  9].a[ 20] =         2.808500000000;     BAS[ATNO][  9].d[ 20] =        -0.002493849840;
  BAS[ATNO][  9].a[ 21] =         1.523500000000;     BAS[ATNO][  9].d[ 21] =        -1.767779417924;
  BAS[ATNO][  9].a[ 22] =         0.743790000000;     BAS[ATNO][  9].d[ 22] =         2.086696903395;
  BAS[ATNO][  9].a[ 23] =         0.356800000000;     BAS[ATNO][  9].d[ 23] =        -0.179310649665;
  BAS[ATNO][  9].a[ 24] =         0.162210000000;     BAS[ATNO][  9].d[ 24] =         0.187521641836;
  BAS[ATNO][  9].a[ 25] =         0.069956000000;     BAS[ATNO][  9].d[ 25] =        -0.053705991016;

  // Basis function  11 L = p
  InitBFNGauss(BAS[ATNO][ 10]);
  BAS[ATNO][ 10].l  = 1;
  BAS[ATNO][ 10].ng = 26;
  BAS[ATNO][ 10].a[  0] =     13006.000000000000;     BAS[ATNO][ 10].d[  0] =         0.000000036761;
  BAS[ATNO][ 10].a[  1] =      3078.100000000000;     BAS[ATNO][ 10].d[  1] =         0.000000328212;
  BAS[ATNO][ 10].a[  2] =       999.560000000000;     BAS[ATNO][ 10].d[  2] =         0.000001913553;
  BAS[ATNO][ 10].a[  3] =       380.970000000000;     BAS[ATNO][ 10].d[  3] =         0.000008709503;
  BAS[ATNO][ 10].a[  4] =       160.280000000000;     BAS[ATNO][ 10].d[  4] =         0.000032085818;
  BAS[ATNO][ 10].a[  5] =        74.494000000000;     BAS[ATNO][ 10].d[  5] =         0.000092283941;
  BAS[ATNO][ 10].a[  6] =        36.065000000000;     BAS[ATNO][ 10].d[  6] =         0.000229766798;
  BAS[ATNO][ 10].a[  7] =        18.164000000000;     BAS[ATNO][ 10].d[  7] =         0.000441585973;
  BAS[ATNO][ 10].a[  8] =         9.466500000000;     BAS[ATNO][ 10].d[  8] =         0.000619328345;
  BAS[ATNO][ 10].a[  9] =         5.163000000000;     BAS[ATNO][ 10].d[  9] =         0.000610066965;
  BAS[ATNO][ 10].a[ 10] =         2.808500000000;     BAS[ATNO][ 10].d[ 10] =         0.000399123181;
  BAS[ATNO][ 10].a[ 11] =      3078.100000000000;     BAS[ATNO][ 10].d[ 11] =        -0.000005406172;
  BAS[ATNO][ 10].a[ 12] =       999.560000000000;     BAS[ATNO][ 10].d[ 12] =         0.000003583457;
  BAS[ATNO][ 10].a[ 13] =       380.970000000000;     BAS[ATNO][ 10].d[ 13] =        -0.000089033374;
  BAS[ATNO][ 10].a[ 14] =       160.280000000000;     BAS[ATNO][ 10].d[ 14] =         0.000501099551;
  BAS[ATNO][ 10].a[ 15] =        74.494000000000;     BAS[ATNO][ 10].d[ 15] =         0.001078018087;
  BAS[ATNO][ 10].a[ 16] =        36.065000000000;     BAS[ATNO][ 10].d[ 16] =         0.016384039256;
  BAS[ATNO][ 10].a[ 17] =        18.164000000000;     BAS[ATNO][ 10].d[ 17] =         0.032367214560;
  BAS[ATNO][ 10].a[ 18] =         9.466500000000;     BAS[ATNO][ 10].d[ 18] =         0.150112175042;
  BAS[ATNO][ 10].a[ 19] =         5.163000000000;     BAS[ATNO][ 10].d[ 19] =        -0.003256725430;
  BAS[ATNO][ 10].a[ 20] =         2.808500000000;     BAS[ATNO][ 10].d[ 20] =        -0.002356350478;
  BAS[ATNO][ 10].a[ 21] =         1.523500000000;     BAS[ATNO][ 10].d[ 21] =        -1.670312225461;
  BAS[ATNO][ 10].a[ 22] =         0.743790000000;     BAS[ATNO][ 10].d[ 22] =         3.320358398172;
  BAS[ATNO][ 10].a[ 23] =         0.356800000000;     BAS[ATNO][ 10].d[ 23] =        -2.015807815847;
  BAS[ATNO][ 10].a[ 24] =         0.162210000000;     BAS[ATNO][ 10].d[ 24] =        -0.292983781242;
  BAS[ATNO][ 10].a[ 25] =         0.069956000000;     BAS[ATNO][ 10].d[ 25] =         0.007377050327;

  // Basis function  12 L = p
  InitBFNGauss(BAS[ATNO][ 11]);
  BAS[ATNO][ 11].l  = 1;
  BAS[ATNO][ 11].ng = 26;
  BAS[ATNO][ 11].a[  0] =     13006.000000000000;     BAS[ATNO][ 11].d[  0] =         0.000000578985;
  BAS[ATNO][ 11].a[  1] =      3078.100000000000;     BAS[ATNO][ 11].d[  1] =         0.000005169288;
  BAS[ATNO][ 11].a[  2] =       999.560000000000;     BAS[ATNO][ 11].d[  2] =         0.000030138136;
  BAS[ATNO][ 11].a[  3] =       380.970000000000;     BAS[ATNO][ 11].d[  3] =         0.000137173180;
  BAS[ATNO][ 11].a[  4] =       160.280000000000;     BAS[ATNO][ 11].d[  4] =         0.000505346127;
  BAS[ATNO][ 11].a[  5] =        74.494000000000;     BAS[ATNO][ 11].d[  5] =         0.001453456241;
  BAS[ATNO][ 11].a[  6] =        36.065000000000;     BAS[ATNO][ 11].d[  6] =         0.003618787668;
  BAS[ATNO][ 11].a[  7] =        18.164000000000;     BAS[ATNO][ 11].d[  7] =         0.006954903340;
  BAS[ATNO][ 11].a[  8] =         9.466500000000;     BAS[ATNO][ 11].d[  8] =         0.009754315209;
  BAS[ATNO][ 11].a[  9] =         5.163000000000;     BAS[ATNO][ 11].d[  9] =         0.009608450065;
  BAS[ATNO][ 11].a[ 10] =         2.808500000000;     BAS[ATNO][ 11].d[ 10] =         0.006286121647;
  BAS[ATNO][ 11].a[ 11] =      3078.100000000000;     BAS[ATNO][ 11].d[ 11] =         0.000004740039;
  BAS[ATNO][ 11].a[ 12] =       999.560000000000;     BAS[ATNO][ 11].d[ 12] =        -0.000003141914;
  BAS[ATNO][ 11].a[ 13] =       380.970000000000;     BAS[ATNO][ 11].d[ 13] =         0.000078062936;
  BAS[ATNO][ 11].a[ 14] =       160.280000000000;     BAS[ATNO][ 11].d[ 14] =        -0.000439355495;
  BAS[ATNO][ 11].a[ 15] =        74.494000000000;     BAS[ATNO][ 11].d[ 15] =        -0.000945187775;
  BAS[ATNO][ 11].a[ 16] =        36.065000000000;     BAS[ATNO][ 11].d[ 16] =        -0.014365244699;
  BAS[ATNO][ 11].a[ 17] =        18.164000000000;     BAS[ATNO][ 11].d[ 17] =        -0.028379018758;
  BAS[ATNO][ 11].a[ 18] =         9.466500000000;     BAS[ATNO][ 11].d[ 18] =        -0.131615781253;
  BAS[ATNO][ 11].a[ 19] =         5.163000000000;     BAS[ATNO][ 11].d[ 19] =         0.002855441017;
  BAS[ATNO][ 11].a[ 20] =         2.808500000000;     BAS[ATNO][ 11].d[ 20] =         0.002066007697;
  BAS[ATNO][ 11].a[ 21] =         1.523500000000;     BAS[ATNO][ 11].d[ 21] =         1.464501120109;
  BAS[ATNO][ 11].a[ 22] =         0.743790000000;     BAS[ATNO][ 11].d[ 22] =        -3.838735376206;
  BAS[ATNO][ 11].a[ 23] =         0.356800000000;     BAS[ATNO][ 11].d[ 23] =         4.523960846772;
  BAS[ATNO][ 11].a[ 24] =         0.162210000000;     BAS[ATNO][ 11].d[ 24] =        -2.375232595841;
  BAS[ATNO][ 11].a[ 25] =         0.069956000000;     BAS[ATNO][ 11].d[ 25] =        -0.104307747577;

  // Basis function  13 L = p
  InitBFNGauss(BAS[ATNO][ 12]);
  BAS[ATNO][ 12].l  = 1;
  BAS[ATNO][ 12].ng = 26;
  BAS[ATNO][ 12].a[  0] =     13006.000000000000;     BAS[ATNO][ 12].d[  0] =         0.000000535622;
  BAS[ATNO][ 12].a[  1] =      3078.100000000000;     BAS[ATNO][ 12].d[  1] =         0.000004782138;
  BAS[ATNO][ 12].a[  2] =       999.560000000000;     BAS[ATNO][ 12].d[  2] =         0.000027880967;
  BAS[ATNO][ 12].a[  3] =       380.970000000000;     BAS[ATNO][ 12].d[  3] =         0.000126899712;
  BAS[ATNO][ 12].a[  4] =       160.280000000000;     BAS[ATNO][ 12].d[  4] =         0.000467498662;
  BAS[ATNO][ 12].a[  5] =        74.494000000000;     BAS[ATNO][ 12].d[  5] =         0.001344600880;
  BAS[ATNO][ 12].a[  6] =        36.065000000000;     BAS[ATNO][ 12].d[  6] =         0.003347761664;
  BAS[ATNO][ 12].a[  7] =        18.164000000000;     BAS[ATNO][ 12].d[  7] =         0.006434021809;
  BAS[ATNO][ 12].a[  8] =         9.466500000000;     BAS[ATNO][ 12].d[  8] =         0.009023774122;
  BAS[ATNO][ 12].a[  9] =         5.163000000000;     BAS[ATNO][ 12].d[  9] =         0.008888833424;
  BAS[ATNO][ 12].a[ 10] =         2.808500000000;     BAS[ATNO][ 12].d[ 10] =         0.005815327947;
  BAS[ATNO][ 12].a[ 11] =      3078.100000000000;     BAS[ATNO][ 12].d[ 11] =         0.000003071618;
  BAS[ATNO][ 12].a[ 12] =       999.560000000000;     BAS[ATNO][ 12].d[ 12] =        -0.000002036008;
  BAS[ATNO][ 12].a[ 13] =       380.970000000000;     BAS[ATNO][ 12].d[ 13] =         0.000050585976;
  BAS[ATNO][ 12].a[ 14] =       160.280000000000;     BAS[ATNO][ 12].d[ 14] =        -0.000284709080;
  BAS[ATNO][ 12].a[ 15] =        74.494000000000;     BAS[ATNO][ 12].d[ 15] =        -0.000612496133;
  BAS[ATNO][ 12].a[ 16] =        36.065000000000;     BAS[ATNO][ 12].d[ 16] =        -0.009308898252;
  BAS[ATNO][ 12].a[ 17] =        18.164000000000;     BAS[ATNO][ 12].d[ 17] =        -0.018390038154;
  BAS[ATNO][ 12].a[ 18] =         9.466500000000;     BAS[ATNO][ 12].d[ 18] =        -0.085289039046;
  BAS[ATNO][ 12].a[ 19] =         5.163000000000;     BAS[ATNO][ 12].d[ 19] =         0.001850369447;
  BAS[ATNO][ 12].a[ 20] =         2.808500000000;     BAS[ATNO][ 12].d[ 20] =         0.001338804583;
  BAS[ATNO][ 12].a[ 21] =         1.523500000000;     BAS[ATNO][ 12].d[ 21] =         0.949019122376;
  BAS[ATNO][ 12].a[ 22] =         0.743790000000;     BAS[ATNO][ 12].d[ 22] =        -2.828290866393;
  BAS[ATNO][ 12].a[ 23] =         0.356800000000;     BAS[ATNO][ 12].d[ 23] =         4.352248518270;
  BAS[ATNO][ 12].a[ 24] =         0.162210000000;     BAS[ATNO][ 12].d[ 24] =        -4.345404961434;
  BAS[ATNO][ 12].a[ 25] =         0.069956000000;     BAS[ATNO][ 12].d[ 25] =         2.410287451193;

  // Basis function  14 L = d
  InitBFNGauss(BAS[ATNO][ 13]);
  BAS[ATNO][ 13].l  = 2;
  BAS[ATNO][ 13].ng = 6;
  BAS[ATNO][ 13].a[  0] =        26.330000000000;     BAS[ATNO][ 13].d[  0] =         0.064389086067;
  BAS[ATNO][ 13].a[  1] =         7.530000000000;     BAS[ATNO][ 13].d[  1] =         0.412992962027;
  BAS[ATNO][ 13].a[  2] =         2.600000000000;     BAS[ATNO][ 13].d[  2] =         0.628246932432;
  BAS[ATNO][ 13].a[  3] =         0.930000000000;     BAS[ATNO][ 13].d[  3] =         0.066053394013;
  BAS[ATNO][ 13].a[  4] =         0.410000000000;     BAS[ATNO][ 13].d[  4] =        -0.000840419409;
  BAS[ATNO][ 13].a[  5] =         0.170000000000;     BAS[ATNO][ 13].d[  5] =        -0.000987324932;

  // Basis function  15 L = d
  InitBFNGauss(BAS[ATNO][ 14]);
  BAS[ATNO][ 14].l  = 2;
  BAS[ATNO][ 14].ng = 6;
  BAS[ATNO][ 14].a[  0] =        26.330000000000;     BAS[ATNO][ 14].d[  0] =        -0.049182213799;
  BAS[ATNO][ 14].a[  1] =         7.530000000000;     BAS[ATNO][ 14].d[  1] =        -0.366649287264;
  BAS[ATNO][ 14].a[  2] =         2.600000000000;     BAS[ATNO][ 14].d[  2] =        -0.262189171824;
  BAS[ATNO][ 14].a[  3] =         0.930000000000;     BAS[ATNO][ 14].d[  3] =         1.012560749384;
  BAS[ATNO][ 14].a[  4] =         0.410000000000;     BAS[ATNO][ 14].d[  4] =         0.074427603175;
  BAS[ATNO][ 14].a[  5] =         0.170000000000;     BAS[ATNO][ 14].d[  5] =         0.012571440145;

  // Basis function  16 L = d
  InitBFNGauss(BAS[ATNO][ 15]);
  BAS[ATNO][ 15].l  = 2;
  BAS[ATNO][ 15].ng = 6;
  BAS[ATNO][ 15].a[  0] =        26.330000000000;     BAS[ATNO][ 15].d[  0] =         0.036244087135;
  BAS[ATNO][ 15].a[  1] =         7.530000000000;     BAS[ATNO][ 15].d[  1] =         0.296813680565;
  BAS[ATNO][ 15].a[  2] =         2.600000000000;     BAS[ATNO][ 15].d[  2] =         0.044758367223;
  BAS[ATNO][ 15].a[  3] =         0.930000000000;     BAS[ATNO][ 15].d[  3] =        -1.188620693614;
  BAS[ATNO][ 15].a[  4] =         0.410000000000;     BAS[ATNO][ 15].d[  4] =         1.412359888884;
  BAS[ATNO][ 15].a[  5] =         0.170000000000;     BAS[ATNO][ 15].d[  5] =         0.087809336403;

  // Basis function  17 L = d
  InitBFNGauss(BAS[ATNO][ 16]);
  BAS[ATNO][ 16].l  = 2;
  BAS[ATNO][ 16].ng = 6;
  BAS[ATNO][ 16].a[  0] =        26.330000000000;     BAS[ATNO][ 16].d[  0] =         0.024555232158;
  BAS[ATNO][ 16].a[  1] =         7.530000000000;     BAS[ATNO][ 16].d[  1] =         0.219370230963;
  BAS[ATNO][ 16].a[  2] =         2.600000000000;     BAS[ATNO][ 16].d[  2] =        -0.066644333935;
  BAS[ATNO][ 16].a[  3] =         0.930000000000;     BAS[ATNO][ 16].d[  3] =        -0.822579240102;
  BAS[ATNO][ 16].a[  4] =         0.410000000000;     BAS[ATNO][ 16].d[  4] =         1.822878676017;
  BAS[ATNO][ 16].a[  5] =         0.170000000000;     BAS[ATNO][ 16].d[  5] =        -1.617841632024;

  // Basis function  18 L = d
  InitBFNGauss(BAS[ATNO][ 17]);
  BAS[ATNO][ 17].l  = 2;
  BAS[ATNO][ 17].ng = 6;
  BAS[ATNO][ 17].a[  0] =        26.330000000000;     BAS[ATNO][ 17].d[  0] =         0.097767997952;
  BAS[ATNO][ 17].a[  1] =         7.530000000000;     BAS[ATNO][ 17].d[  1] =         1.109199770222;
  BAS[ATNO][ 17].a[  2] =         2.600000000000;     BAS[ATNO][ 17].d[  2] =        -1.866834942406;
  BAS[ATNO][ 17].a[  3] =         0.930000000000;     BAS[ATNO][ 17].d[  3] =         1.951878906466;
  BAS[ATNO][ 17].a[  4] =         0.410000000000;     BAS[ATNO][ 17].d[  4] =        -1.437282179093;
  BAS[ATNO][ 17].a[  5] =         0.170000000000;     BAS[ATNO][ 17].d[  5] =         0.546418054021;

  // Basis function  19 L = d
  InitBFNGauss(BAS[ATNO][ 18]);
  BAS[ATNO][ 18].l  = 2;
  BAS[ATNO][ 18].ng = 6;
  BAS[ATNO][ 18].a[  0] =        26.330000000000;     BAS[ATNO][ 18].d[  0] =         1.235296268305;
  BAS[ATNO][ 18].a[  1] =         7.530000000000;     BAS[ATNO][ 18].d[  1] =        -1.134110110674;
  BAS[ATNO][ 18].a[  2] =         2.600000000000;     BAS[ATNO][ 18].d[  2] =         0.765751138391;
  BAS[ATNO][ 18].a[  3] =         0.930000000000;     BAS[ATNO][ 18].d[  3] =        -0.503279498009;
  BAS[ATNO][ 18].a[  4] =         0.410000000000;     BAS[ATNO][ 18].d[  4] =         0.302430123848;
  BAS[ATNO][ 18].a[  5] =         0.170000000000;     BAS[ATNO][ 18].d[  5] =        -0.101312665502;

  // Basis function  20 L = f
  InitBFNGauss(BAS[ATNO][ 19]);
  BAS[ATNO][ 19].l  = 3;
  BAS[ATNO][ 19].ng = 3;
  BAS[ATNO][ 19].a[  0] =         4.530000000000;     BAS[ATNO][ 19].d[  0] =         0.340512975338;
  BAS[ATNO][ 19].a[  1] =         1.060000000000;     BAS[ATNO][ 19].d[  1] =         0.858216904245;
  BAS[ATNO][ 19].a[  2] =         0.440000000000;     BAS[ATNO][ 19].d[  2] =        -0.042213467100;

  // Basis function  21 L = f
  InitBFNGauss(BAS[ATNO][ 20]);
  BAS[ATNO][ 20].l  = 3;
  BAS[ATNO][ 20].ng = 3;
  BAS[ATNO][ 20].a[  0] =         4.530000000000;     BAS[ATNO][ 20].d[  0] =        -0.328429831129;
  BAS[ATNO][ 20].a[  1] =         1.060000000000;     BAS[ATNO][ 20].d[  1] =        -0.452224413210;
  BAS[ATNO][ 20].a[  2] =         0.440000000000;     BAS[ATNO][ 20].d[  2] =         1.154478144876;

  // Basis function  22 L = f
  InitBFNGauss(BAS[ATNO][ 21]);
  BAS[ATNO][ 21].l  = 3;
  BAS[ATNO][ 21].ng = 3;
  BAS[ATNO][ 21].a[  0] =         4.530000000000;     BAS[ATNO][ 21].d[  0] =        -0.973768504634;
  BAS[ATNO][ 21].a[  1] =         1.060000000000;     BAS[ATNO][ 21].d[  1] =         1.050660285845;
  BAS[ATNO][ 21].a[  2] =         0.440000000000;     BAS[ATNO][ 21].d[  2] =        -0.701955688962;

  // Basis function  23 L = g
  InitBFNGauss(BAS[ATNO][ 22]);
  BAS[ATNO][ 22].l  = 4;
  BAS[ATNO][ 22].ng = 2;
  BAS[ATNO][ 22].a[  0] =         2.180000000000;     BAS[ATNO][ 22].d[  0] =         0.303437171151;
  BAS[ATNO][ 22].a[  1] =         0.730000000000;     BAS[ATNO][ 22].d[  1] =         0.824428485180;

  // Basis function  24 L = g
  InitBFNGauss(BAS[ATNO][ 23]);
  BAS[ATNO][ 23].l  = 4;
  BAS[ATNO][ 23].ng = 2;
  BAS[ATNO][ 23].a[  0] =         2.180000000000;     BAS[ATNO][ 23].d[  0] =         1.082001834687;
  BAS[ATNO][ 23].a[  1] =         0.730000000000;     BAS[ATNO][ 23].d[  1] =        -0.763622786411;

  // Basis function  25 L = h
  InitBFNGauss(BAS[ATNO][ 24]);
  BAS[ATNO][ 24].l  = 5;
  BAS[ATNO][ 24].ng = 1;
  BAS[ATNO][ 24].a[  0] =         1.120000000000;     BAS[ATNO][ 24].d[  0] =         1.000000000000;

-------
TIMINGS
-------

Total SCF time: 0 days 0 hours 0 min 2 sec 

Total time                  ....       2.004 sec
Sum of individual times     ....       1.762 sec  ( 88.0%)

Fock matrix formation       ....       1.239 sec  ( 61.9%)
  XC integration            ....       0.031 sec  (  2.5% of F)
    Basis function eval.    ....       0.005 sec  ( 16.7% of XC)
    Density eval.           ....       0.003 sec  (  8.3% of XC)
    XC-Functional eval.     ....       0.001 sec  (  4.0% of XC)
    XC-Potential eval.      ....       0.005 sec  ( 17.4% of XC)
Diagonalization             ....       0.002 sec  (  0.1%)
Density matrix formation    ....       0.001 sec  (  0.1%)
Population analysis         ....       0.002 sec  (  0.1%)
Initial guess               ....       0.088 sec  (  4.4%)
Orbital Transformation      ....       0.000 sec  (  0.0%)
Orbital Orthonormalization  ....       0.000 sec  (  0.0%)
DIIS solution               ....       0.000 sec  (  0.0%)
SOSCF solution              ....       0.002 sec  (  0.1%)
Grid generation             ....       0.428 sec  ( 21.3%)

-------------------------   --------------------
FINAL SINGLE POINT ENERGY      -311.572044274314
-------------------------   --------------------


                            ***************************************
                            *     ORCA property calculations      *
                            ***************************************

                                    ---------------------
                                    Active property flags
                                    ---------------------
   (+) Dipole Moment


------------------------------------------------------------------------------
                       ORCA ELECTRIC PROPERTIES CALCULATION
------------------------------------------------------------------------------

Dipole Moment Calculation                       ... on
Quadrupole Moment Calculation                   ... off
Polarizability Calculation                      ... off
GBWName                                         ... Ar_pc-4_1096.287912_.gbw
Electron density file                           ... Ar_pc-4_1096.287912_.scfp
The origin for moment calculation is the CENTER OF MASS  = ( 0.000000,  0.000000  0.000000)

-------------
DIPOLE MOMENT
-------------
                                X             Y             Z
Electronic contribution:     -0.00000       0.00000       0.00000
Nuclear contribution   :      0.00000       0.00000       0.00000
                        -----------------------------------------
Total Dipole Moment    :     -0.00000       0.00000       0.00000
                        -----------------------------------------
Magnitude (a.u.)       :      0.00000
Magnitude (Debye)      :      0.00000



--------------------
Rotational spectrum 
--------------------
 
Rotational constants in cm-1:     0.000000     0.000000     0.000000 
Rotational constants in MHz :     0.000000     0.000000     0.000000 

 Dipole components along the rotational axes: 
x,y,z [a.u.] :    -0.000000     0.000000     0.000000 
x,y,z [Debye]:    -0.000000     0.000000     0.000000 

 

Timings for individual modules:

Sum of individual times         ...        3.460 sec (=   0.058 min)
GTO integral calculation        ...        0.803 sec (=   0.013 min)  23.2 %
Relativistic integrals          ...        0.386 sec (=   0.006 min)  11.2 %
SCF iterations                  ...        2.271 sec (=   0.038 min)  65.6 %
                             ****ORCA TERMINATED NORMALLY****
TOTAL RUN TIME: 0 days 0 hours 0 minutes 3 seconds 801 msec
