
                                 *****************
                                 * O   R   C   A *
                                 *****************

           --- An Ab Initio, DFT and Semiempirical electronic structure package ---

                  #######################################################
                  #                        -***-                        #
                  #          Department of theory and spectroscopy      #
                  #               Directorship: Frank Neese             #
                  #        Max Planck Institute fuer Kohlenforschung    #
                  #                Kaiser Wilhelm Platz 1               #
                  #                 D-45470 Muelheim/Ruhr               #
                  #                      Germany                        #
                  #                                                     #
                  #                  All rights reserved                #
                  #                        -***-                        #
                  #######################################################


                         Program Version 4.2.1 -  RELEASE  -


 With contributions from (in alphabetic order):
   Daniel Aravena         : Magnetic Suceptibility
   Michael Atanasov       : Ab Initio Ligand Field Theory (pilot matlab implementation)
   Alexander A. Auer      : GIAO ZORA, VPT2
   Ute Becker             : Parallelization
   Giovanni Bistoni       : ED, misc. LED, open-shell LED, HFLD
   Martin Brehm           : Molecular dynamics
   Dmytro Bykov           : SCF Hessian
   Vijay G. Chilkuri      : MRCI spin determinant printing, contributions to CSF-ICE
   Dipayan Datta          : RHF DLPNO-CCSD density
   Achintya Kumar Dutta   : EOM-CC, STEOM-CC
   Dmitry Ganyushin       : Spin-Orbit,Spin-Spin,Magnetic field MRCI
   Miquel Garcia          : C-PCM Hessian, Gaussian charge scheme
   Yang Guo               : DLPNO-NEVPT2, CIM, IAO-localization
   Andreas Hansen         : Spin unrestricted coupled pair/coupled cluster methods
   Benjamin Helmich-Paris : CASSCF linear response (MC-RPA)
   Lee Huntington         : MR-EOM, pCC
   Robert Izsak           : Overlap fitted RIJCOSX, COSX-SCS-MP3, EOM
   Christian Kollmar      : KDIIS, OOCD, Brueckner-CCSD(T), CCSD density
   Simone Kossmann        : Meta GGA functionals, TD-DFT gradient, OOMP2, MP2 Hessian
   Martin Krupicka        : AUTO-CI
   Lucas Lang             : DCDCAS
   Dagmar Lenk            : GEPOL surface, SMD
   Dimitrios Liakos       : Extrapolation schemes; Compound Job, initial MDCI parallelization
   Dimitrios Manganas     : Further ROCIS development; embedding schemes
   Dimitrios Pantazis     : SARC Basis sets
   Taras Petrenko         : DFT Hessian,TD-DFT gradient, ASA, ECA, R-Raman, ABS, FL, XAS/XES, NRVS
   Peter Pinski           : DLPNO-MP2, DLPNO-MP2 Gradient
   Christoph Reimann      : Effective Core Potentials
   Marius Retegan         : Local ZFS, SOC
   Christoph Riplinger    : Optimizer, TS searches, QM/MM, DLPNO-CCSD(T), (RO)-DLPNO pert. Triples
   Tobias Risthaus        : Range-separated hybrids, TD-DFT gradient, RPA, STAB
   Michael Roemelt        : Original ROCIS implementation
   Masaaki Saitow         : Open-shell DLPNO-CCSD energy and density
   Barbara Sandhoefer     : DKH picture change effects
   Avijit Sen             : IP-ROCIS
   Kantharuban Sivalingam : CASSCF convergence, NEVPT2, FIC-MRCI
   Bernardo de Souza      : ESD, SOC TD-DFT
   Georgi Stoychev        : AutoAux, RI-MP2 NMR
   Willem Van den Heuvel  : Paramagnetic NMR
   Boris Wezisla          : Elementary symmetry handling
   Frank Wennmohs         : Technical directorship


 We gratefully acknowledge several colleagues who have allowed us to
 interface, adapt or use parts of their codes:
   Stefan Grimme, W. Hujo, H. Kruse,             : VdW corrections, initial TS optimization,
                  C. Bannwarth                     DFT functionals, gCP, sTDA/sTD-DF
   Ed Valeev, F. Pavosevic, A. Kumar             : LibInt (2-el integral package), F12 methods
   Garnet Chan, S. Sharma, J. Yang, R. Olivares  : DMRG
   Ulf Ekstrom                                   : XCFun DFT Library
   Mihaly Kallay                                 : mrcc  (arbitrary order and MRCC methods)
   Andreas Klamt, Michael Diedenhofen            : otool_cosmo (COSMO solvation model)
   Jiri Pittner, Ondrej Demel                    : Mk-CCSD
   Frank Weinhold                                : gennbo (NPA and NBO analysis)
   Christopher J. Cramer and Donald G. Truhlar   : smd solvation model
   Lars Goerigk                                  : TD-DFT with DH, B97 family of functionals
   V. Asgeirsson, H. Jonsson                     : NEB implementation
   FAccTs GmbH                                   : IRC, NEB, NEB-TS, Multilevel, MM, QM/MM, CI optimization
   S Lehtola, MJT Oliveira, MAL Marques          : LibXC Library


 Your calculation uses the libint2 library for the computation of 2-el integrals
 For citations please refer to: http://libint.valeyev.net

 Your ORCA version has been built with support for libXC version: 4.2.3
 For citations please refer to: https://tddft.org/programs/libxc/

 This ORCA versions uses:
   CBLAS   interface :  Fast vector & matrix operations
   LAPACKE interface :  Fast linear algebra routines
   SCALAPACK package :  Parallel linear algebra routines


----- Orbital basis set information -----
Your calculation utilizes the basis: pc-3
   H, C-F              : F. Jensen, J. Chem. Phys. 115, 9113 (2001).
                         F. Jensen, J. Chem. Phys. 116, 7372 (2002).
                         F. Jensen, J. Chem. Phys. 117, 9234 (2002).
   Si-Cl               : F. Jensen, T. Helgaker, J. Chem. Phys. 121, 3463 (2004).
   He-B, Ne-Mg, Al, Ar : F. Jensen, J. Phys. Chem. A 111, 11198 (2007).
   K, Ca, Ga-Kr        : F. Jensen, J. Chem. Phys. 136, 094110 (2012).
   Sc-Zn               : F. Jensen, J. Chem. Phys. 138, 014107 (2013).

================================================================================
                                        WARNINGS
                       Please study these warnings very carefully!
================================================================================


INFO   : the flag for use of LIBINT has been found!

================================================================================
                                       INPUT FILE
================================================================================
NAME = Ar_pc-3_4385.151648_.inp
|  1> ! LDA pc-3 nori grid5 finalgrid6 verytightscf
|  2> %Pal NProcs 18 End
|  3> 
|  4> % REL
|  5>   Method ZORA
|  6>   ModelPot 1, 0, 0, 0
|  7>   velit 4385.151648
|  8> END
|  9> 
| 10> *xyz 16 1
| 11> Ar 0.0 0.0 0.0
| 12> **                         ****END OF INPUT****
================================================================================

                       ****************************
                       * Single Point Calculation *
                       ****************************

---------------------------------
CARTESIAN COORDINATES (ANGSTROEM)
---------------------------------
  Ar     0.000000    0.000000    0.000000

----------------------------
CARTESIAN COORDINATES (A.U.)
----------------------------
  NO LB      ZA    FRAG     MASS         X           Y           Z
   0 Ar   18.0000    0    39.948    0.000000    0.000000    0.000000

--------------------------------
INTERNAL COORDINATES (ANGSTROEM)
--------------------------------
 Ar     0   0   0     0.000000000000     0.00000000     0.00000000

---------------------------
INTERNAL COORDINATES (A.U.)
---------------------------
 Ar     0   0   0     0.000000000000     0.00000000     0.00000000

---------------------
BASIS SET INFORMATION
---------------------
There are 1 groups of distinct atoms

 Group   1 Type Ar  : 35s21p4d2f1g contracted to 6s5p4d2f1g pattern {121010111/99111/1111/11/1}

Atom   0Ar   basis set group =>   1


           ************************************************************
           *        Program running with 18 parallel MPI-processes    *
           *              working on a common directory               *
           ************************************************************
------------------------------------------------------------------------------
                           ORCA GTO INTEGRAL CALCULATION
------------------------------------------------------------------------------

                         BASIS SET STATISTICS AND STARTUP INFO

 # of primitive gaussian shells          ...   63
 # of primitive gaussian functions       ...  141
 # of contracted shells                  ...   18
 # of contracted basis functions         ...   64
 Highest angular momentum                ...    4
 Maximum contraction depth               ...   12
 Integral package used                   ... LIBINT
 Integral threshhold            Thresh   ...  1.000e-12
 Primitive cut-off              TCut     ...  1.000e-14


------------------------------ INTEGRAL EVALUATION ----------------------------


 * One electron integrals 
 Pre-screening matrix                    ... done
 Shell pair data                         ... done (   0.000 sec)



           ************************************************************
           *        Program running with 18 parallel MPI-processes    *
           *              working on a common directory               *
           ************************************************************
------------------------------------------------------------------------------
                          ORCA RELATIVISTIC HAMILTONIAN
------------------------------------------------------------------------------

Relativistic Method            ... ZORA(MP)
Treatment of potential         ... Van Wuellen
Nucleus model                  ... Point Nucleus
Speed of light used            ... 4385.15164800000002


            *************************************************
            *         ZERO ORDER REGULAR APPROXIMATION      *
            *                     ZORA(MP)                  *
            *            Programmed by FN according to      *
            *                   C. van Wuellen              *
            *       J. Chem. Phys. (1998) vol 109, 392-399  *
            *************************************************

Terms included in model potential: +V(e,N)
Basis function cutoff value   ... 1.000000e-12
Loading the fitted atomic densities  (DKH4)  ... done
Calculating the cutoffs                      ... done
Number of fit functions                      ... 15
Setting up the integration grid ... done


           ************************************************************
           *        Program running with 18 parallel MPI-processes    *
           *              working on a common directory               *
           ************************************************************
-------------------------------------------------------------------------------
                                 ORCA SCF
-------------------------------------------------------------------------------

------------
SCF SETTINGS
------------
Hamiltonian:
 Density Functional     Method          .... DFT(GTOs)
 Exchange Functional    Exchange        .... Slater
   X-Alpha parameter    XAlpha          ....  0.666667
 Correlation Functional Correlation     .... VWN-5
 Gradients option       PostSCFGGA      .... off
   Density functional embedding theory  .... OFF

Relativistic Settings:
 Scalar relativistic method             .... ZORA
 Speed of light used       Velit        ....       4385.15165
Orbital energies will be scaled


General Settings:
 Integral files         IntName         .... Ar_pc-3_4385.151648_
 Hartree-Fock type      HFTyp           .... RHF
 Total Charge           Charge          ....   16
 Multiplicity           Mult            ....    1
 Number of Electrons    NEL             ....    2
 Basis Dimension        Dim             ....   64
 Nuclear Repulsion      ENuc            ....      0.0000000000 Eh

Convergence Acceleration:
 DIIS                   CNVDIIS         .... on
   Start iteration      DIISMaxIt       ....    12
   Startup error        DIISStart       ....  0.200000
   # of expansion vecs  DIISMaxEq       ....     5
   Bias factor          DIISBfac        ....   1.050
   Max. coefficient     DIISMaxC        ....  10.000
 Newton-Raphson         CNVNR           .... off
 SOSCF                  CNVSOSCF        .... on
   Start iteration      SOSCFMaxIt      ....   150
   Startup grad/error   SOSCFStart      ....  0.003300
 Level Shifting         CNVShift        .... on
   Level shift para.    LevelShift      ....    0.2500
   Turn off err/grad.   ShiftErr        ....    0.0010
 Zerner damping         CNVZerner       .... off
 Static damping         CNVDamp         .... on
   Fraction old density DampFac         ....    0.7000
   Max. Damping (<1)    DampMax         ....    0.9800
   Min. Damping (>=0)   DampMin         ....    0.0000
   Turn off err/grad.   DampErr         ....    0.1000
 Fernandez-Rico         CNVRico         .... off

SCF Procedure:
 Maximum # iterations   MaxIter         ....   125
 SCF integral mode      SCFMode         .... Direct
   Integral package                     .... LIBINT
 Reset frequency        DirectResetFreq ....    20
 Integral Threshold     Thresh          ....  1.000e-12 Eh
 Primitive CutOff       TCut            ....  1.000e-14 Eh

Convergence Tolerance:
 Convergence Check Mode ConvCheckMode   .... Total+1el-Energy
 Convergence forced     ConvForced      .... 0
 Energy Change          TolE            ....  1.000e-09 Eh
 1-El. energy change                    ....  1.000e-06 Eh
 Orbital Gradient       TolG            ....  2.000e-06
 Orbital Rotation angle TolX            ....  2.000e-06
 DIIS Error             TolErr          ....  1.000e-08


Diagonalization of the overlap matrix:
Smallest eigenvalue                        ... 4.993e-03
Time for diagonalization                   ...    0.002 sec
Threshold for overlap eigenvalues          ... 1.000e-08
Number of eigenvalues below threshold      ... 0
Time for construction of square roots      ...    0.001 sec
Total time needed                          ...    0.003 sec

-------------------
DFT GRID GENERATION
-------------------

General Integration Accuracy     IntAcc      ...  5.010
Radial Grid Type                 RadialGrid  ... Gauss-Chebyshev
Angular Grid (max. acc.)         AngularGrid ... Lebedev-434
Angular grid pruning method      GridPruning ... 3 (G Style)
Weight generation scheme         WeightScheme... Becke
Basis function cutoff            BFCut       ...    1.0000e-12
Integration weight cutoff        WCut        ...    1.0000e-14
Grids for H and He will be reduced by one unit

# of grid points (after initial pruning)     ...  11992 (   0.0 sec)
# of grid points (after weights+screening)   ...  11992 (   0.0 sec)
Grid point division into batches done        ...    0.1 sec
Reduced shell lists constructed in    0.1 sec

Total number of grid points                  ...    11992
Total number of batches                      ...      188
Average number of points per batch           ...       63
Average number of grid points per atom       ...    11992
Average number of shells per batch           ...     0.92 ( 5.09%)
Average number of basis functions per batch  ...     2.75 ( 4.30%)
Average number of large shells per batch     ...     0.92 (100.00%)
Average number of large basis fcns per batch ...     2.75 (100.00%)
Maximum spatial batch extension              ...  18.71, 18.71, 18.71 au
Average spatial batch extension              ...   0.97,  0.98,  0.97 au

Time for grid setup =    0.154 sec

------------------------------
INITIAL GUESS: MODEL POTENTIAL
------------------------------
Loading ZORA relativistic densities                ... done
Calculating cut-offs                               ... done
Setting up the integral package                    ... done
Initializing the effective Hamiltonian             ... done
Starting the Coulomb interaction                   ... done (   0.0 sec)
Reading the grid                                   ... done
Mapping shells                                     ... done
Starting the XC term evaluation                    ... done (   0.0 sec)
  promolecular density results
     # of electrons  =     18.000000116
     EX              =    -28.047870263
     EC              =     -1.433252902
     EX+EC           =    -29.481123164
Transforming the Hamiltonian                       ... done (   0.0 sec)
Diagonalizing the Hamiltonian                      ... done (   0.0 sec)
Back transforming the eigenvectors                 ... done (   0.0 sec)
Now organizing SCF variables                       ... done
                      ------------------
                      INITIAL GUESS DONE (   0.2 sec)
                      ------------------
--------------
SCF ITERATIONS
--------------
ITER       Energy         Delta-E        Max-DP      RMS-DP      [F,P]     Damp
               ***  Starting incremental Fock matrix formation  ***
  0   -311.5102011084   0.000000000000 0.01367279  0.00025686  2.1109345 0.7000
                      *** Initiating the SOSCF procedure ***
                      *** Re-Reading the Fockian *** 
                      *** Removing any level shift *** 
ITER      Energy       Delta-E        Grad      Rot      Max-DP    RMS-DP
  1   -311.51710736  -0.0069062520  0.000546  0.000546  0.031948  0.000601
               *** Restarting incremental Fock matrix formation ***
  2   -311.53311245  -0.0160050933  0.005133  0.000046  0.000112  0.000003
  3   -311.53311298  -0.0000005308  0.000035  0.000000  0.000001  0.000000
                 **** Energy Check signals convergence ****
              ***Rediagonalizing the Fockian in SOSCF/NRSCF***

               *****************************************************
               *                     SUCCESS                       *
               *           SCF CONVERGED AFTER   4 CYCLES          *
               *****************************************************

Setting up the final grid:

General Integration Accuracy     IntAcc      ...  5.340
Radial Grid Type                 RadialGrid  ... Gauss-Chebyshev
Angular Grid (max. acc.)         AngularGrid ... Lebedev-590
Angular grid pruning method      GridPruning ... 3 (G Style)
Weight generation scheme         WeightScheme... Becke
Basis function cutoff            BFCut       ...    1.0000e-12
Integration weight cutoff        WCut        ...    1.0000e-14
Grids for H and He will be reduced by one unit

# of grid points (after initial pruning)     ...  18110 (   0.0 sec)
# of grid points (after weights+screening)   ...  18110 (   0.0 sec)
Grid point division into batches done        ...    0.2 sec
Reduced shell lists constructed in    0.2 sec

Total number of grid points                  ...    18110
Total number of batches                      ...      283
Average number of points per batch           ...       63
Average number of grid points per atom       ...    18110
Average number of shells per batch           ...     0.00 ( 0.00%)
Average number of basis functions per batch  ...     0.00 ( 0.00%)
Average number of large shells per batch     ...     0.00 ( -nan%)
Average number of large basis fcns per batch ...     0.00 ( -nan%)
Maximum spatial batch extension              ...  19.03, 19.03, 19.03 au
Average spatial batch extension              ...   0.84,  0.84,  0.80 au

Final grid set up in    0.3 sec
Final integration                            ... done (   0.0 sec)
Change in XC energy                          ...    -0.000000958
Integrated number of electrons               ...     2.000000011
Previous integrated no of electrons          ...     1.999999894

----------------
TOTAL SCF ENERGY
----------------

Total Energy       :         -311.53311394 Eh           -8477.24701 eV

Components:
Nuclear Repulsion  :            0.00000000 Eh               0.00000 eV
Electronic Energy  :         -311.53311394 Eh           -8477.24701 eV
One Electron Energy:         -323.81160923 Eh           -8811.36185 eV
Two Electron Energy:           12.27849529 Eh             334.11484 eV

Virial components:
Potential Energy   :         -621.23938212 Eh          -16904.78301 eV
Kinetic Energy     :          309.70626818 Eh            8427.53600 eV
Virial Ratio       :            2.00589864


DFT components:
N(Alpha)           :        1.000000005425 electrons
N(Beta)            :        1.000000005425 electrons
N(Total)           :        2.000000010850 electrons
E(X)               :       -9.405849401867 Eh       
E(C)               :       -0.236736321317 Eh       
E(XC)              :       -9.642585723184 Eh       
DFET-embed. en.    :        0.000000000000 Eh       

---------------
SCF CONVERGENCE
---------------

  Last Energy change         ...   -2.4613e-11  Tolerance :   1.0000e-09
  Last MAX-Density change    ...    0.0000e+00  Tolerance :   1.0000e-08
  Last RMS-Density change    ...    0.0000e+00  Tolerance :   1.0000e-09
  Last Orbital Gradient      ...    1.1375e-10  Tolerance :   2.0000e-06
  Last Orbital Rotation      ...    0.0000e+00  Tolerance :   2.0000e-06

================================================================================
                                        WARNING
Number of found core electrons (2) does not match given number of chemical core electrons (10)
================================================================================
             **** THE GBW FILE WAS UPDATED (Ar_pc-3_4385.151648_.gbw) ****
             **** DENSITY FILE WAS UPDATED (Ar_pc-3_4385.151648_.scfp) ****
             **** ENERGY FILE WAS UPDATED (Ar_pc-3_4385.151648_.en.tmp) ****
             **** THE GBW FILE WAS UPDATED (Ar_pc-3_4385.151648_.gbw) ****
             **** DENSITY FILE WAS UPDATED (Ar_pc-3_4385.151648_.scfp) ****
----------------
ORBITAL ENERGIES
----------------

  NO   OCC          E(Eh)            E(eV) 
   0   2.0000    -146.383207     -3983.2896 
   1   0.0000     -33.907314      -922.6649 
   2   0.0000     -32.827519      -893.2822 
   3   0.0000     -32.827519      -893.2822 
   4   0.0000     -32.827519      -893.2822 
   5   0.0000     -14.231832      -387.2678 
   6   0.0000     -14.207721      -386.6117 
   7   0.0000     -14.207721      -386.6117 
   8   0.0000     -14.207721      -386.6117 
   9   0.0000     -14.207721      -386.6117 
  10   0.0000     -14.207721      -386.6117 
  11   0.0000     -13.687041      -372.4433 
  12   0.0000     -13.687041      -372.4433 
  13   0.0000     -13.687041      -372.4433 
  14   0.0000      -7.886178      -214.5938 
  15   0.0000      -7.886178      -214.5938 
  16   0.0000      -7.886178      -214.5938 
  17   0.0000      -7.886178      -214.5938 
  18   0.0000      -7.886178      -214.5938 
  19   0.0000      -7.787640      -211.9124 
  20   0.0000      -7.787640      -211.9124 
  21   0.0000      -7.787640      -211.9124 
  22   0.0000      -7.787640      -211.9124 
  23   0.0000      -7.787640      -211.9124 
  24   0.0000      -7.787640      -211.9124 
  25   0.0000      -7.787640      -211.9124 
  26   0.0000      -7.641922      -207.9473 
  27   0.0000      -7.442923      -202.5322 
  28   0.0000      -7.442923      -202.5322 
  29   0.0000      -7.442923      -202.5322 
  30   0.0000      -4.922987      -133.9613 
  31   0.0000      -4.922987      -133.9613 
  32   0.0000      -4.922987      -133.9613 
  33   0.0000      -4.922987      -133.9613 
  34   0.0000      -4.922987      -133.9613 
  35   0.0000      -4.893951      -133.1712 
  36   0.0000      -4.893951      -133.1712 
  37   0.0000      -4.893951      -133.1712 
  38   0.0000      -4.893951      -133.1712 
  39   0.0000      -4.893951      -133.1712 
  40   0.0000      -4.893951      -133.1712 
  41   0.0000      -4.893951      -133.1712 
  42   0.0000      -4.893951      -133.1712 
  43   0.0000      -4.893951      -133.1712 
  44   0.0000      -4.796615      -130.5225 
  45   0.0000      -4.796615      -130.5225 
  46   0.0000      -4.796615      -130.5225 
  47   0.0000      -4.796615      -130.5225 
  48   0.0000      -4.796615      -130.5225 
  49   0.0000      -4.796615      -130.5225 
  50   0.0000      -4.796615      -130.5225 
  51   0.0000      -4.653064      -126.6163 
  52   0.0000      -4.653064      -126.6163 
  53   0.0000      -4.653064      -126.6163 
  54   0.0000      -4.646076      -126.4262 
  55   0.0000      -3.064694       -83.3946 
  56   0.0000      -3.064694       -83.3946 
  57   0.0000      -3.064694       -83.3946 
  58   0.0000       2.308748        62.8242 
  59   0.0000       2.308748        62.8242 
  60   0.0000       2.308748        62.8242 
  61   0.0000       2.308748        62.8242 
  62   0.0000       2.308748        62.8242 
  63   0.0000      14.518886       395.0790 

                    ********************************
                    * MULLIKEN POPULATION ANALYSIS *
                    ********************************

-----------------------
MULLIKEN ATOMIC CHARGES
-----------------------
   0 Ar:   16.000000
Sum of atomic charges:   16.0000000

--------------------------------
MULLIKEN REDUCED ORBITAL CHARGES
--------------------------------
  0 Ars       :     2.000000  s :     2.000000
      pz      :     0.000000  p :     0.000000
      px      :     0.000000
      py      :     0.000000
      dz2     :     0.000000  d :     0.000000
      dxz     :     0.000000
      dyz     :     0.000000
      dx2y2   :     0.000000
      dxy     :     0.000000
      f0      :     0.000000  f :     0.000000
      f+1     :     0.000000
      f-1     :     0.000000
      f+2     :     0.000000
      f-2     :     0.000000
      f+3     :     0.000000
      f-3     :     0.000000
      g0      :     0.000000  g :     0.000000
      g+1     :     0.000000
      g-1     :     0.000000
      g+2     :     0.000000
      g-2     :     0.000000
      g+3     :     0.000000
      g-3     :     0.000000
      g+4     :     0.000000
      g-4     :     0.000000


                     *******************************
                     * LOEWDIN POPULATION ANALYSIS *
                     *******************************

----------------------
LOEWDIN ATOMIC CHARGES
----------------------
   0 Ar:   16.000000

-------------------------------
LOEWDIN REDUCED ORBITAL CHARGES
-------------------------------
  0 Ars       :     2.000000  s :     2.000000
      pz      :     0.000000  p :     0.000000
      px      :     0.000000
      py      :     0.000000
      dz2     :     0.000000  d :     0.000000
      dxz     :     0.000000
      dyz     :     0.000000
      dx2y2   :     0.000000
      dxy     :     0.000000
      f0      :     0.000000  f :     0.000000
      f+1     :     0.000000
      f-1     :     0.000000
      f+2     :     0.000000
      f-2     :     0.000000
      f+3     :     0.000000
      f-3     :     0.000000
      g0      :     0.000000  g :     0.000000
      g+1     :     0.000000
      g-1     :     0.000000
      g+2     :     0.000000
      g-2     :     0.000000
      g+3     :     0.000000
      g-3     :     0.000000
      g+4     :     0.000000
      g-4     :     0.000000


                      *****************************
                      * MAYER POPULATION ANALYSIS *
                      *****************************

  NA   - Mulliken gross atomic population
  ZA   - Total nuclear charge
  QA   - Mulliken gross atomic charge
  VA   - Mayer's total valence
  BVA  - Mayer's bonded valence
  FA   - Mayer's free valence

  ATOM       NA         ZA         QA         VA         BVA        FA
  0 Ar     2.0000    18.0000    16.0000    -0.0000     0.0000    -0.0000

  Mayer bond orders larger than 0.100000


--------------------------
ATOM BASIS FOR ELEMENT Ar
--------------------------
 NewGTO Ar
 S 35
    1    1702200.000000000000         0.000011012673
    2     254910.000000000000         0.000085608377
    3      58011.000000000000         0.000450135979
    4      16431.000000000000         0.001896374936
    5       5360.500000000000         0.006858263228
    6       1935.400000000000         0.021862262923
    7        755.090000000000         0.061537703416
    8        313.080000000000         0.147867560736
    9        135.880000000000         0.283535902816
   10         61.092000000000         0.361519767818
   11         28.024000000000         0.229994443477
   12         11.860000000000         0.037131271857
   13      16431.000000000000         0.000000262651
   14       5360.500000000000         0.000000436857
   15       1935.400000000000         0.000010786459
   16        755.090000000000         0.000048986311
   17        313.080000000000         0.000363382060
   18        135.880000000000         0.001435655917
   19         61.092000000000         0.004742821093
   20         28.024000000000         0.005423016793
   21         11.860000000000        -0.009511392296
   22          5.511700000000        -0.024737563225
   23       5360.500000000000        -0.000000124788
   24       1935.400000000000        -0.000001092442
   25        755.090000000000        -0.000008007657
   26        313.080000000000        -0.000047674241
   27        135.880000000000        -0.000221276119
   28         61.092000000000        -0.000692719509
   29         28.024000000000        -0.001015721359
   30         11.860000000000         0.002021996647
   31          5.511700000000         0.009296315625
   32          2.482200000000         0.011650153492
   33          0.917610000000        -0.006223249542
   34          0.407030000000         0.003152321856
   35          0.162380000000        -0.000805143576
 S 35
    1    1702200.000000000000         0.000002629436
    2     254910.000000000000         0.000020440248
    3      58011.000000000000         0.000107476526
    4      16431.000000000000         0.000452787158
    5       5360.500000000000         0.001637510312
    6       1935.400000000000         0.005219933939
    7        755.090000000000         0.014693023668
    8        313.080000000000         0.035305535453
    9        135.880000000000         0.067698329636
   10         61.092000000000         0.086318114103
   11         28.024000000000         0.054914525795
   12         11.860000000000         0.008865632384
   13      16431.000000000000         0.000005999350
   14       5360.500000000000         0.000009978480
   15       1935.400000000000         0.000246379080
   16        755.090000000000         0.001118921602
   17        313.080000000000         0.008300197131
   18        135.880000000000         0.032792557593
   19         61.092000000000         0.108333223902
   20         28.024000000000         0.123869924873
   21         11.860000000000        -0.217254619352
   22          5.511700000000        -0.565043446283
   23       5360.500000000000         0.000002676647
   24       1935.400000000000         0.000023432396
   25        755.090000000000         0.000171760695
   26        313.080000000000         0.001022591393
   27        135.880000000000         0.004746274978
   28         61.092000000000         0.014858527376
   29         28.024000000000         0.021786774323
   30         11.860000000000        -0.043370934610
   31          5.511700000000        -0.199401862379
   32          2.482200000000        -0.249890644551
   33          0.917610000000         0.148841638031
   34          0.407030000000        -0.101391128034
   35          0.162380000000         0.030177436688
 S 35
    1    1702200.000000000000         0.000000194085
    2     254910.000000000000         0.000001508741
    3      58011.000000000000         0.000007933086
    4      16431.000000000000         0.000033421247
    5       5360.500000000000         0.000120868351
    6       1935.400000000000         0.000385295165
    7        755.090000000000         0.001084525407
    8        313.080000000000         0.002605981660
    9        135.880000000000         0.004996967280
   10         61.092000000000         0.006371335809
   11         28.024000000000         0.004053365719
   12         11.860000000000         0.000654392437
   13      16431.000000000000         0.000005252027
   14       5360.500000000000         0.000008735488
   15       1935.400000000000         0.000215688306
   16        755.090000000000         0.000979540570
   17        313.080000000000         0.007266264068
   18        135.880000000000         0.028707677562
   19         61.092000000000         0.094838447784
   20         28.024000000000         0.108439784019
   21         11.860000000000        -0.190191800179
   22          5.511700000000        -0.494657515448
   23       5360.500000000000         0.000002180700
   24       1935.400000000000         0.000019090688
   25        755.090000000000         0.000139935750
   26        313.080000000000         0.000833118968
   27        135.880000000000         0.003866854089
   28         61.092000000000         0.012105442185
   29         28.024000000000         0.017749978198
   30         11.860000000000        -0.035334884015
   31          5.511700000000        -0.162455380379
   32          2.482200000000        -0.203589270578
   33          0.917610000000         1.895499851309
   34          0.407030000000        -0.717096755741
   35          0.162380000000         0.192539073489
 S 35
    1    1702200.000000000000        -0.000000246439
    2     254910.000000000000        -0.000001915728
    3      58011.000000000000        -0.000010073056
    4      16431.000000000000        -0.000042436713
    5       5360.500000000000        -0.000153472894
    6       1935.400000000000        -0.000489229509
    7        755.090000000000        -0.001377078876
    8        313.080000000000        -0.003308951798
    9        135.880000000000        -0.006344911830
   10         61.092000000000        -0.008090019743
   11         28.024000000000        -0.005146771364
   12         11.860000000000        -0.000830916451
   13      16431.000000000000         0.000003745293
   14       5360.500000000000         0.000006229397
   15       1935.400000000000         0.000153810310
   16        755.090000000000         0.000698523909
   17        313.080000000000         0.005181673263
   18        135.880000000000         0.020471841358
   19         61.092000000000         0.067630606951
   20         28.024000000000         0.077329907672
   21         11.860000000000        -0.135628399492
   22          5.511700000000        -0.352747106098
   23       5360.500000000000         0.000000737203
   24       1935.400000000000         0.000006453760
   25        755.090000000000         0.000047306404
   26        313.080000000000         0.000281642559
   27        135.880000000000         0.001307221084
   28         61.092000000000         0.004092341962
   29         28.024000000000         0.006000522698
   30         11.860000000000        -0.011945241353
   31          5.511700000000        -0.054919346186
   32          2.482200000000        -0.068824988157
   33          0.917610000000         2.603083304355
   34          0.407030000000        -2.982423817201
   35          0.162380000000         0.396526441445
 S 35
    1    1702200.000000000000         0.000000265934
    2     254910.000000000000         0.000002067273
    3      58011.000000000000         0.000010869895
    4      16431.000000000000         0.000045793708
    5       5360.500000000000         0.000165613506
    6       1935.400000000000         0.000527930454
    7        755.090000000000         0.001486013952
    8        313.080000000000         0.003570709436
    9        135.880000000000         0.006846831844
   10         61.092000000000         0.008729988104
   11         28.024000000000         0.005553911388
   12         11.860000000000         0.000896646852
   13      16431.000000000000        -0.000002463450
   14       5360.500000000000        -0.000004097358
   15       1935.400000000000        -0.000101168038
   16        755.090000000000        -0.000459450954
   17        313.080000000000        -0.003408222238
   18        135.880000000000        -0.013465261399
   19         61.092000000000        -0.044483726952
   20         28.024000000000        -0.050863398292
   21         11.860000000000         0.089208968571
   22          5.511700000000         0.232017819419
   23       5360.500000000000         0.000000081640
   24       1935.400000000000         0.000000714711
   25        755.090000000000         0.000005238867
   26        313.080000000000         0.000031190024
   27        135.880000000000         0.000144765967
   28         61.092000000000         0.000453199425
   29         28.024000000000         0.000664517643
   30         11.860000000000        -0.001322855363
   31          5.511700000000        -0.006081949245
   32          2.482200000000        -0.007621905828
   33          0.917610000000        -1.959301664265
   34          0.407030000000         3.885266830802
   35          0.162380000000        -2.644687820192
 S 35
    1    1702200.000000000000        -0.000011600269
    2     254910.000000000000        -0.000090176126
    3      58011.000000000000        -0.000474153587
    4      16431.000000000000        -0.001997558557
    5       5360.500000000000        -0.007224195036
    6       1935.400000000000        -0.023028753205
    7        755.090000000000        -0.064821129896
    8        313.080000000000        -0.155757232230
    9        135.880000000000        -0.298664340175
   10         61.092000000000        -0.380809138607
   11         28.024000000000        -0.242266104654
   12         11.860000000000        -0.039112460535
   13      16431.000000000000         0.000062676322
   14       5360.500000000000         0.000104247033
   15       1935.400000000000         0.002573968024
   16        755.090000000000         0.011689581865
   17        313.080000000000         0.086713701539
   18        135.880000000000         0.342589941780
   19         61.092000000000         1.131777317584
   20         28.024000000000         1.294092119227
   21         11.860000000000        -2.269699372606
   22          5.511700000000        -5.903113864052
   23       5360.500000000000        -0.000056116237
   24       1935.400000000000        -0.000491263136
   25        755.090000000000        -0.003600984689
   26        313.080000000000        -0.021438757795
   27        135.880000000000        -0.099506254769
   28         61.092000000000        -0.311510904328
   29         28.024000000000        -0.456762477206
   30         11.860000000000         0.909277125538
   31          5.511700000000         4.180485246167
   32          2.482200000000         5.238988945424
   33          0.917610000000        -5.851509500280
   34          0.407030000000         4.020981620800
   35          0.162380000000        -1.216706098324
 P 21
    1       4415.500000000000         0.000126016701
    2       1046.300000000000         0.001109361434
    3        339.540000000000         0.006230437100
    4        128.100000000000         0.026808413014
    5         53.823000000000         0.083430350823
    6         24.307000000000         0.201870473900
    7         11.440000000000         0.344421889167
    8          5.513200000000         0.393238456111
    9          2.633100000000         0.229827253202
   10       1046.300000000000        -0.000003233490
   11        339.540000000000         0.000009240635
   12        128.100000000000         0.000015180434
   13         53.823000000000         0.000816265933
   14         24.307000000000         0.002889324700
   15         11.440000000000         0.013104510967
   16          5.513200000000         0.011307593275
   17          2.633100000000        -0.030852407687
   18          1.210900000000        -0.290288139227
   19          0.534110000000         0.229204454570
   20          0.223140000000        -0.116820236263
   21          0.088792000000         0.036004142857
 P 21
    1       4415.500000000000         0.000045092091
    2       1046.300000000000         0.000396958709
    3        339.540000000000         0.002229414320
    4        128.100000000000         0.009592755520
    5         53.823000000000         0.029853574622
    6         24.307000000000         0.072234566883
    7         11.440000000000         0.123243213870
    8          5.513200000000         0.140711065913
    9          2.633100000000         0.082238238075
   10       1046.300000000000        -0.000015638902
   11        339.540000000000         0.000044692700
   12        128.100000000000         0.000073420775
   13         53.823000000000         0.003947902712
   14         24.307000000000         0.013974334050
   15         11.440000000000         0.063380489500
   16          5.513200000000         0.054689625476
   17          2.633100000000        -0.149218899227
   18          1.210900000000        -1.403990153182
   19          0.534110000000         0.610578627592
   20          0.223140000000        -0.300352945305
   21          0.088792000000         0.090066428787
 P 21
    1       4415.500000000000        -0.000016433874
    2       1046.300000000000        -0.000144672145
    3        339.540000000000        -0.000812513103
    4        128.100000000000        -0.003496092888
    5         53.823000000000        -0.010880176159
    6         24.307000000000        -0.026325986834
    7         11.440000000000        -0.044916158091
    8          5.513200000000        -0.051282340692
    9          2.633100000000        -0.029971838501
   10       1046.300000000000         0.000015230830
   11        339.540000000000        -0.000043526514
   12        128.100000000000        -0.000071504976
   13         53.823000000000        -0.003844888431
   14         24.307000000000        -0.013609695888
   15         11.440000000000        -0.061726675797
   16          5.513200000000        -0.053262586134
   17          2.633100000000         0.145325267887
   18          1.210900000000         1.367355249091
   19          0.534110000000        -2.081655104389
   20          0.223140000000         0.374292848519
   21          0.088792000000        -0.115252674797
 P 21
    1       4415.500000000000        -0.000006622363
    2       1046.300000000000        -0.000058298572
    3        339.540000000000        -0.000327418618
    4        128.100000000000        -0.001408821466
    5         53.823000000000        -0.004384387436
    6         24.307000000000        -0.010608589808
    7         11.440000000000        -0.018099875987
    8          5.513200000000        -0.020665258256
    9          2.633100000000        -0.012077759609
   10       1046.300000000000         0.000010969755
   11        339.540000000000        -0.000031349258
   12        128.100000000000        -0.000051500286
   13         53.823000000000        -0.002769217850
   14         24.307000000000        -0.009802160315
   15         11.440000000000        -0.044457626155
   16          5.513200000000        -0.038361504354
   17          2.633100000000         0.104668141401
   18          1.210900000000         0.984815198612
   19          0.534110000000        -2.519978767707
   20          0.223140000000         2.269765093608
   21          0.088792000000        -0.214200432477
 P 21
    1       4415.500000000000         0.000002659266
    2       1046.300000000000         0.000023410290
    3        339.540000000000         0.000131477744
    4        128.100000000000         0.000565724297
    5         53.823000000000         0.001760588237
    6         24.307000000000         0.004259969882
    7         11.440000000000         0.007268159856
    8          5.513200000000         0.008298311027
    9          2.633100000000         0.004849927569
   10       1046.300000000000        -0.000005868224
   11        339.540000000000         0.000016770153
   12        128.100000000000         0.000027549861
   13         53.823000000000         0.001481381401
   14         24.307000000000         0.005243624287
   15         11.440000000000         0.023782419463
   16          5.513200000000         0.020521324837
   17          2.633100000000        -0.055991780455
   18          1.210900000000        -0.526822733753
   19          0.534110000000         1.682198109342
   20          0.223140000000        -2.590605533068
   21          0.088792000000         1.976968341246
 D 4
    1         10.860000000000         0.320815970776
    2          2.860000000000         0.766328214621
    3          0.840000000000         0.077175861267
    4          0.310000000000        -0.006582928852
 D 4
    1         10.860000000000         0.264625363921
    2          2.860000000000         0.390669641183
    3          0.840000000000        -1.077530307826
    4          0.310000000000        -0.019935479121
 D 4
    1         10.860000000000         0.183422114352
    2          2.860000000000         0.148493365822
    3          0.840000000000        -0.978653774375
    4          0.310000000000         1.346400381532
 D 4
    1         10.860000000000         1.087574830447
    2          2.860000000000        -1.168313166937
    3          0.840000000000         0.838518599613
    4          0.310000000000        -0.399198797496
 F 2
    1          1.910000000000         0.786494515084
    2          0.630000000000         0.332718834559
 F 2
    1          1.910000000000         0.864151620471
    2          0.630000000000        -1.120102594654
 G 1
    1          0.930000000000         1.000000000000
 end
  // -----------------------------------------------
  // The basis set
  // -----------------------------------------------
  BAS[ATNO] = new BFNGauss[NSH];
  // Basis function   1 L = s
  InitBFNGauss(BAS[ATNO][  0]);
  BAS[ATNO][  0].l  = 0;
  BAS[ATNO][  0].ng = 35;
  BAS[ATNO][  0].a[  0] =   1702200.000000000000;     BAS[ATNO][  0].d[  0] =         0.000011012673;
  BAS[ATNO][  0].a[  1] =    254910.000000000000;     BAS[ATNO][  0].d[  1] =         0.000085608377;
  BAS[ATNO][  0].a[  2] =     58011.000000000000;     BAS[ATNO][  0].d[  2] =         0.000450135979;
  BAS[ATNO][  0].a[  3] =     16431.000000000000;     BAS[ATNO][  0].d[  3] =         0.001896374936;
  BAS[ATNO][  0].a[  4] =      5360.500000000000;     BAS[ATNO][  0].d[  4] =         0.006858263228;
  BAS[ATNO][  0].a[  5] =      1935.400000000000;     BAS[ATNO][  0].d[  5] =         0.021862262923;
  BAS[ATNO][  0].a[  6] =       755.090000000000;     BAS[ATNO][  0].d[  6] =         0.061537703416;
  BAS[ATNO][  0].a[  7] =       313.080000000000;     BAS[ATNO][  0].d[  7] =         0.147867560736;
  BAS[ATNO][  0].a[  8] =       135.880000000000;     BAS[ATNO][  0].d[  8] =         0.283535902816;
  BAS[ATNO][  0].a[  9] =        61.092000000000;     BAS[ATNO][  0].d[  9] =         0.361519767818;
  BAS[ATNO][  0].a[ 10] =        28.024000000000;     BAS[ATNO][  0].d[ 10] =         0.229994443477;
  BAS[ATNO][  0].a[ 11] =        11.860000000000;     BAS[ATNO][  0].d[ 11] =         0.037131271857;
  BAS[ATNO][  0].a[ 12] =     16431.000000000000;     BAS[ATNO][  0].d[ 12] =         0.000000262651;
  BAS[ATNO][  0].a[ 13] =      5360.500000000000;     BAS[ATNO][  0].d[ 13] =         0.000000436857;
  BAS[ATNO][  0].a[ 14] =      1935.400000000000;     BAS[ATNO][  0].d[ 14] =         0.000010786459;
  BAS[ATNO][  0].a[ 15] =       755.090000000000;     BAS[ATNO][  0].d[ 15] =         0.000048986311;
  BAS[ATNO][  0].a[ 16] =       313.080000000000;     BAS[ATNO][  0].d[ 16] =         0.000363382060;
  BAS[ATNO][  0].a[ 17] =       135.880000000000;     BAS[ATNO][  0].d[ 17] =         0.001435655917;
  BAS[ATNO][  0].a[ 18] =        61.092000000000;     BAS[ATNO][  0].d[ 18] =         0.004742821093;
  BAS[ATNO][  0].a[ 19] =        28.024000000000;     BAS[ATNO][  0].d[ 19] =         0.005423016793;
  BAS[ATNO][  0].a[ 20] =        11.860000000000;     BAS[ATNO][  0].d[ 20] =        -0.009511392296;
  BAS[ATNO][  0].a[ 21] =         5.511700000000;     BAS[ATNO][  0].d[ 21] =        -0.024737563225;
  BAS[ATNO][  0].a[ 22] =      5360.500000000000;     BAS[ATNO][  0].d[ 22] =        -0.000000124788;
  BAS[ATNO][  0].a[ 23] =      1935.400000000000;     BAS[ATNO][  0].d[ 23] =        -0.000001092442;
  BAS[ATNO][  0].a[ 24] =       755.090000000000;     BAS[ATNO][  0].d[ 24] =        -0.000008007657;
  BAS[ATNO][  0].a[ 25] =       313.080000000000;     BAS[ATNO][  0].d[ 25] =        -0.000047674241;
  BAS[ATNO][  0].a[ 26] =       135.880000000000;     BAS[ATNO][  0].d[ 26] =        -0.000221276119;
  BAS[ATNO][  0].a[ 27] =        61.092000000000;     BAS[ATNO][  0].d[ 27] =        -0.000692719509;
  BAS[ATNO][  0].a[ 28] =        28.024000000000;     BAS[ATNO][  0].d[ 28] =        -0.001015721359;
  BAS[ATNO][  0].a[ 29] =        11.860000000000;     BAS[ATNO][  0].d[ 29] =         0.002021996647;
  BAS[ATNO][  0].a[ 30] =         5.511700000000;     BAS[ATNO][  0].d[ 30] =         0.009296315625;
  BAS[ATNO][  0].a[ 31] =         2.482200000000;     BAS[ATNO][  0].d[ 31] =         0.011650153492;
  BAS[ATNO][  0].a[ 32] =         0.917610000000;     BAS[ATNO][  0].d[ 32] =        -0.006223249542;
  BAS[ATNO][  0].a[ 33] =         0.407030000000;     BAS[ATNO][  0].d[ 33] =         0.003152321856;
  BAS[ATNO][  0].a[ 34] =         0.162380000000;     BAS[ATNO][  0].d[ 34] =        -0.000805143576;

  // Basis function   2 L = s
  InitBFNGauss(BAS[ATNO][  1]);
  BAS[ATNO][  1].l  = 0;
  BAS[ATNO][  1].ng = 35;
  BAS[ATNO][  1].a[  0] =   1702200.000000000000;     BAS[ATNO][  1].d[  0] =        -0.000002629436;
  BAS[ATNO][  1].a[  1] =    254910.000000000000;     BAS[ATNO][  1].d[  1] =        -0.000020440248;
  BAS[ATNO][  1].a[  2] =     58011.000000000000;     BAS[ATNO][  1].d[  2] =        -0.000107476526;
  BAS[ATNO][  1].a[  3] =     16431.000000000000;     BAS[ATNO][  1].d[  3] =        -0.000452787158;
  BAS[ATNO][  1].a[  4] =      5360.500000000000;     BAS[ATNO][  1].d[  4] =        -0.001637510312;
  BAS[ATNO][  1].a[  5] =      1935.400000000000;     BAS[ATNO][  1].d[  5] =        -0.005219933939;
  BAS[ATNO][  1].a[  6] =       755.090000000000;     BAS[ATNO][  1].d[  6] =        -0.014693023668;
  BAS[ATNO][  1].a[  7] =       313.080000000000;     BAS[ATNO][  1].d[  7] =        -0.035305535453;
  BAS[ATNO][  1].a[  8] =       135.880000000000;     BAS[ATNO][  1].d[  8] =        -0.067698329636;
  BAS[ATNO][  1].a[  9] =        61.092000000000;     BAS[ATNO][  1].d[  9] =        -0.086318114103;
  BAS[ATNO][  1].a[ 10] =        28.024000000000;     BAS[ATNO][  1].d[ 10] =        -0.054914525795;
  BAS[ATNO][  1].a[ 11] =        11.860000000000;     BAS[ATNO][  1].d[ 11] =        -0.008865632384;
  BAS[ATNO][  1].a[ 12] =     16431.000000000000;     BAS[ATNO][  1].d[ 12] =        -0.000005999350;
  BAS[ATNO][  1].a[ 13] =      5360.500000000000;     BAS[ATNO][  1].d[ 13] =        -0.000009978480;
  BAS[ATNO][  1].a[ 14] =      1935.400000000000;     BAS[ATNO][  1].d[ 14] =        -0.000246379080;
  BAS[ATNO][  1].a[ 15] =       755.090000000000;     BAS[ATNO][  1].d[ 15] =        -0.001118921602;
  BAS[ATNO][  1].a[ 16] =       313.080000000000;     BAS[ATNO][  1].d[ 16] =        -0.008300197131;
  BAS[ATNO][  1].a[ 17] =       135.880000000000;     BAS[ATNO][  1].d[ 17] =        -0.032792557593;
  BAS[ATNO][  1].a[ 18] =        61.092000000000;     BAS[ATNO][  1].d[ 18] =        -0.108333223902;
  BAS[ATNO][  1].a[ 19] =        28.024000000000;     BAS[ATNO][  1].d[ 19] =        -0.123869924873;
  BAS[ATNO][  1].a[ 20] =        11.860000000000;     BAS[ATNO][  1].d[ 20] =         0.217254619352;
  BAS[ATNO][  1].a[ 21] =         5.511700000000;     BAS[ATNO][  1].d[ 21] =         0.565043446283;
  BAS[ATNO][  1].a[ 22] =      5360.500000000000;     BAS[ATNO][  1].d[ 22] =        -0.000002676647;
  BAS[ATNO][  1].a[ 23] =      1935.400000000000;     BAS[ATNO][  1].d[ 23] =        -0.000023432396;
  BAS[ATNO][  1].a[ 24] =       755.090000000000;     BAS[ATNO][  1].d[ 24] =        -0.000171760695;
  BAS[ATNO][  1].a[ 25] =       313.080000000000;     BAS[ATNO][  1].d[ 25] =        -0.001022591393;
  BAS[ATNO][  1].a[ 26] =       135.880000000000;     BAS[ATNO][  1].d[ 26] =        -0.004746274978;
  BAS[ATNO][  1].a[ 27] =        61.092000000000;     BAS[ATNO][  1].d[ 27] =        -0.014858527376;
  BAS[ATNO][  1].a[ 28] =        28.024000000000;     BAS[ATNO][  1].d[ 28] =        -0.021786774323;
  BAS[ATNO][  1].a[ 29] =        11.860000000000;     BAS[ATNO][  1].d[ 29] =         0.043370934610;
  BAS[ATNO][  1].a[ 30] =         5.511700000000;     BAS[ATNO][  1].d[ 30] =         0.199401862379;
  BAS[ATNO][  1].a[ 31] =         2.482200000000;     BAS[ATNO][  1].d[ 31] =         0.249890644551;
  BAS[ATNO][  1].a[ 32] =         0.917610000000;     BAS[ATNO][  1].d[ 32] =        -0.148841638031;
  BAS[ATNO][  1].a[ 33] =         0.407030000000;     BAS[ATNO][  1].d[ 33] =         0.101391128034;
  BAS[ATNO][  1].a[ 34] =         0.162380000000;     BAS[ATNO][  1].d[ 34] =        -0.030177436688;

  // Basis function   3 L = s
  InitBFNGauss(BAS[ATNO][  2]);
  BAS[ATNO][  2].l  = 0;
  BAS[ATNO][  2].ng = 35;
  BAS[ATNO][  2].a[  0] =   1702200.000000000000;     BAS[ATNO][  2].d[  0] =         0.000000194085;
  BAS[ATNO][  2].a[  1] =    254910.000000000000;     BAS[ATNO][  2].d[  1] =         0.000001508741;
  BAS[ATNO][  2].a[  2] =     58011.000000000000;     BAS[ATNO][  2].d[  2] =         0.000007933086;
  BAS[ATNO][  2].a[  3] =     16431.000000000000;     BAS[ATNO][  2].d[  3] =         0.000033421247;
  BAS[ATNO][  2].a[  4] =      5360.500000000000;     BAS[ATNO][  2].d[  4] =         0.000120868351;
  BAS[ATNO][  2].a[  5] =      1935.400000000000;     BAS[ATNO][  2].d[  5] =         0.000385295165;
  BAS[ATNO][  2].a[  6] =       755.090000000000;     BAS[ATNO][  2].d[  6] =         0.001084525407;
  BAS[ATNO][  2].a[  7] =       313.080000000000;     BAS[ATNO][  2].d[  7] =         0.002605981660;
  BAS[ATNO][  2].a[  8] =       135.880000000000;     BAS[ATNO][  2].d[  8] =         0.004996967280;
  BAS[ATNO][  2].a[  9] =        61.092000000000;     BAS[ATNO][  2].d[  9] =         0.006371335809;
  BAS[ATNO][  2].a[ 10] =        28.024000000000;     BAS[ATNO][  2].d[ 10] =         0.004053365719;
  BAS[ATNO][  2].a[ 11] =        11.860000000000;     BAS[ATNO][  2].d[ 11] =         0.000654392437;
  BAS[ATNO][  2].a[ 12] =     16431.000000000000;     BAS[ATNO][  2].d[ 12] =         0.000005252027;
  BAS[ATNO][  2].a[ 13] =      5360.500000000000;     BAS[ATNO][  2].d[ 13] =         0.000008735488;
  BAS[ATNO][  2].a[ 14] =      1935.400000000000;     BAS[ATNO][  2].d[ 14] =         0.000215688306;
  BAS[ATNO][  2].a[ 15] =       755.090000000000;     BAS[ATNO][  2].d[ 15] =         0.000979540570;
  BAS[ATNO][  2].a[ 16] =       313.080000000000;     BAS[ATNO][  2].d[ 16] =         0.007266264068;
  BAS[ATNO][  2].a[ 17] =       135.880000000000;     BAS[ATNO][  2].d[ 17] =         0.028707677562;
  BAS[ATNO][  2].a[ 18] =        61.092000000000;     BAS[ATNO][  2].d[ 18] =         0.094838447784;
  BAS[ATNO][  2].a[ 19] =        28.024000000000;     BAS[ATNO][  2].d[ 19] =         0.108439784019;
  BAS[ATNO][  2].a[ 20] =        11.860000000000;     BAS[ATNO][  2].d[ 20] =        -0.190191800179;
  BAS[ATNO][  2].a[ 21] =         5.511700000000;     BAS[ATNO][  2].d[ 21] =        -0.494657515448;
  BAS[ATNO][  2].a[ 22] =      5360.500000000000;     BAS[ATNO][  2].d[ 22] =         0.000002180700;
  BAS[ATNO][  2].a[ 23] =      1935.400000000000;     BAS[ATNO][  2].d[ 23] =         0.000019090688;
  BAS[ATNO][  2].a[ 24] =       755.090000000000;     BAS[ATNO][  2].d[ 24] =         0.000139935750;
  BAS[ATNO][  2].a[ 25] =       313.080000000000;     BAS[ATNO][  2].d[ 25] =         0.000833118968;
  BAS[ATNO][  2].a[ 26] =       135.880000000000;     BAS[ATNO][  2].d[ 26] =         0.003866854089;
  BAS[ATNO][  2].a[ 27] =        61.092000000000;     BAS[ATNO][  2].d[ 27] =         0.012105442185;
  BAS[ATNO][  2].a[ 28] =        28.024000000000;     BAS[ATNO][  2].d[ 28] =         0.017749978198;
  BAS[ATNO][  2].a[ 29] =        11.860000000000;     BAS[ATNO][  2].d[ 29] =        -0.035334884015;
  BAS[ATNO][  2].a[ 30] =         5.511700000000;     BAS[ATNO][  2].d[ 30] =        -0.162455380379;
  BAS[ATNO][  2].a[ 31] =         2.482200000000;     BAS[ATNO][  2].d[ 31] =        -0.203589270578;
  BAS[ATNO][  2].a[ 32] =         0.917610000000;     BAS[ATNO][  2].d[ 32] =         1.895499851309;
  BAS[ATNO][  2].a[ 33] =         0.407030000000;     BAS[ATNO][  2].d[ 33] =        -0.717096755741;
  BAS[ATNO][  2].a[ 34] =         0.162380000000;     BAS[ATNO][  2].d[ 34] =         0.192539073489;

  // Basis function   4 L = s
  InitBFNGauss(BAS[ATNO][  3]);
  BAS[ATNO][  3].l  = 0;
  BAS[ATNO][  3].ng = 35;
  BAS[ATNO][  3].a[  0] =   1702200.000000000000;     BAS[ATNO][  3].d[  0] =         0.000000246439;
  BAS[ATNO][  3].a[  1] =    254910.000000000000;     BAS[ATNO][  3].d[  1] =         0.000001915728;
  BAS[ATNO][  3].a[  2] =     58011.000000000000;     BAS[ATNO][  3].d[  2] =         0.000010073056;
  BAS[ATNO][  3].a[  3] =     16431.000000000000;     BAS[ATNO][  3].d[  3] =         0.000042436713;
  BAS[ATNO][  3].a[  4] =      5360.500000000000;     BAS[ATNO][  3].d[  4] =         0.000153472894;
  BAS[ATNO][  3].a[  5] =      1935.400000000000;     BAS[ATNO][  3].d[  5] =         0.000489229509;
  BAS[ATNO][  3].a[  6] =       755.090000000000;     BAS[ATNO][  3].d[  6] =         0.001377078876;
  BAS[ATNO][  3].a[  7] =       313.080000000000;     BAS[ATNO][  3].d[  7] =         0.003308951798;
  BAS[ATNO][  3].a[  8] =       135.880000000000;     BAS[ATNO][  3].d[  8] =         0.006344911830;
  BAS[ATNO][  3].a[  9] =        61.092000000000;     BAS[ATNO][  3].d[  9] =         0.008090019743;
  BAS[ATNO][  3].a[ 10] =        28.024000000000;     BAS[ATNO][  3].d[ 10] =         0.005146771364;
  BAS[ATNO][  3].a[ 11] =        11.860000000000;     BAS[ATNO][  3].d[ 11] =         0.000830916451;
  BAS[ATNO][  3].a[ 12] =     16431.000000000000;     BAS[ATNO][  3].d[ 12] =        -0.000003745293;
  BAS[ATNO][  3].a[ 13] =      5360.500000000000;     BAS[ATNO][  3].d[ 13] =        -0.000006229397;
  BAS[ATNO][  3].a[ 14] =      1935.400000000000;     BAS[ATNO][  3].d[ 14] =        -0.000153810310;
  BAS[ATNO][  3].a[ 15] =       755.090000000000;     BAS[ATNO][  3].d[ 15] =        -0.000698523909;
  BAS[ATNO][  3].a[ 16] =       313.080000000000;     BAS[ATNO][  3].d[ 16] =        -0.005181673263;
  BAS[ATNO][  3].a[ 17] =       135.880000000000;     BAS[ATNO][  3].d[ 17] =        -0.020471841358;
  BAS[ATNO][  3].a[ 18] =        61.092000000000;     BAS[ATNO][  3].d[ 18] =        -0.067630606951;
  BAS[ATNO][  3].a[ 19] =        28.024000000000;     BAS[ATNO][  3].d[ 19] =        -0.077329907672;
  BAS[ATNO][  3].a[ 20] =        11.860000000000;     BAS[ATNO][  3].d[ 20] =         0.135628399492;
  BAS[ATNO][  3].a[ 21] =         5.511700000000;     BAS[ATNO][  3].d[ 21] =         0.352747106098;
  BAS[ATNO][  3].a[ 22] =      5360.500000000000;     BAS[ATNO][  3].d[ 22] =        -0.000000737203;
  BAS[ATNO][  3].a[ 23] =      1935.400000000000;     BAS[ATNO][  3].d[ 23] =        -0.000006453760;
  BAS[ATNO][  3].a[ 24] =       755.090000000000;     BAS[ATNO][  3].d[ 24] =        -0.000047306404;
  BAS[ATNO][  3].a[ 25] =       313.080000000000;     BAS[ATNO][  3].d[ 25] =        -0.000281642559;
  BAS[ATNO][  3].a[ 26] =       135.880000000000;     BAS[ATNO][  3].d[ 26] =        -0.001307221084;
  BAS[ATNO][  3].a[ 27] =        61.092000000000;     BAS[ATNO][  3].d[ 27] =        -0.004092341962;
  BAS[ATNO][  3].a[ 28] =        28.024000000000;     BAS[ATNO][  3].d[ 28] =        -0.006000522698;
  BAS[ATNO][  3].a[ 29] =        11.860000000000;     BAS[ATNO][  3].d[ 29] =         0.011945241353;
  BAS[ATNO][  3].a[ 30] =         5.511700000000;     BAS[ATNO][  3].d[ 30] =         0.054919346186;
  BAS[ATNO][  3].a[ 31] =         2.482200000000;     BAS[ATNO][  3].d[ 31] =         0.068824988157;
  BAS[ATNO][  3].a[ 32] =         0.917610000000;     BAS[ATNO][  3].d[ 32] =        -2.603083304355;
  BAS[ATNO][  3].a[ 33] =         0.407030000000;     BAS[ATNO][  3].d[ 33] =         2.982423817201;
  BAS[ATNO][  3].a[ 34] =         0.162380000000;     BAS[ATNO][  3].d[ 34] =        -0.396526441445;

  // Basis function   5 L = s
  InitBFNGauss(BAS[ATNO][  4]);
  BAS[ATNO][  4].l  = 0;
  BAS[ATNO][  4].ng = 35;
  BAS[ATNO][  4].a[  0] =   1702200.000000000000;     BAS[ATNO][  4].d[  0] =         0.000000265934;
  BAS[ATNO][  4].a[  1] =    254910.000000000000;     BAS[ATNO][  4].d[  1] =         0.000002067273;
  BAS[ATNO][  4].a[  2] =     58011.000000000000;     BAS[ATNO][  4].d[  2] =         0.000010869895;
  BAS[ATNO][  4].a[  3] =     16431.000000000000;     BAS[ATNO][  4].d[  3] =         0.000045793708;
  BAS[ATNO][  4].a[  4] =      5360.500000000000;     BAS[ATNO][  4].d[  4] =         0.000165613506;
  BAS[ATNO][  4].a[  5] =      1935.400000000000;     BAS[ATNO][  4].d[  5] =         0.000527930454;
  BAS[ATNO][  4].a[  6] =       755.090000000000;     BAS[ATNO][  4].d[  6] =         0.001486013952;
  BAS[ATNO][  4].a[  7] =       313.080000000000;     BAS[ATNO][  4].d[  7] =         0.003570709436;
  BAS[ATNO][  4].a[  8] =       135.880000000000;     BAS[ATNO][  4].d[  8] =         0.006846831844;
  BAS[ATNO][  4].a[  9] =        61.092000000000;     BAS[ATNO][  4].d[  9] =         0.008729988104;
  BAS[ATNO][  4].a[ 10] =        28.024000000000;     BAS[ATNO][  4].d[ 10] =         0.005553911388;
  BAS[ATNO][  4].a[ 11] =        11.860000000000;     BAS[ATNO][  4].d[ 11] =         0.000896646852;
  BAS[ATNO][  4].a[ 12] =     16431.000000000000;     BAS[ATNO][  4].d[ 12] =        -0.000002463450;
  BAS[ATNO][  4].a[ 13] =      5360.500000000000;     BAS[ATNO][  4].d[ 13] =        -0.000004097358;
  BAS[ATNO][  4].a[ 14] =      1935.400000000000;     BAS[ATNO][  4].d[ 14] =        -0.000101168038;
  BAS[ATNO][  4].a[ 15] =       755.090000000000;     BAS[ATNO][  4].d[ 15] =        -0.000459450954;
  BAS[ATNO][  4].a[ 16] =       313.080000000000;     BAS[ATNO][  4].d[ 16] =        -0.003408222238;
  BAS[ATNO][  4].a[ 17] =       135.880000000000;     BAS[ATNO][  4].d[ 17] =        -0.013465261399;
  BAS[ATNO][  4].a[ 18] =        61.092000000000;     BAS[ATNO][  4].d[ 18] =        -0.044483726952;
  BAS[ATNO][  4].a[ 19] =        28.024000000000;     BAS[ATNO][  4].d[ 19] =        -0.050863398292;
  BAS[ATNO][  4].a[ 20] =        11.860000000000;     BAS[ATNO][  4].d[ 20] =         0.089208968571;
  BAS[ATNO][  4].a[ 21] =         5.511700000000;     BAS[ATNO][  4].d[ 21] =         0.232017819419;
  BAS[ATNO][  4].a[ 22] =      5360.500000000000;     BAS[ATNO][  4].d[ 22] =         0.000000081640;
  BAS[ATNO][  4].a[ 23] =      1935.400000000000;     BAS[ATNO][  4].d[ 23] =         0.000000714711;
  BAS[ATNO][  4].a[ 24] =       755.090000000000;     BAS[ATNO][  4].d[ 24] =         0.000005238867;
  BAS[ATNO][  4].a[ 25] =       313.080000000000;     BAS[ATNO][  4].d[ 25] =         0.000031190024;
  BAS[ATNO][  4].a[ 26] =       135.880000000000;     BAS[ATNO][  4].d[ 26] =         0.000144765967;
  BAS[ATNO][  4].a[ 27] =        61.092000000000;     BAS[ATNO][  4].d[ 27] =         0.000453199425;
  BAS[ATNO][  4].a[ 28] =        28.024000000000;     BAS[ATNO][  4].d[ 28] =         0.000664517643;
  BAS[ATNO][  4].a[ 29] =        11.860000000000;     BAS[ATNO][  4].d[ 29] =        -0.001322855363;
  BAS[ATNO][  4].a[ 30] =         5.511700000000;     BAS[ATNO][  4].d[ 30] =        -0.006081949245;
  BAS[ATNO][  4].a[ 31] =         2.482200000000;     BAS[ATNO][  4].d[ 31] =        -0.007621905828;
  BAS[ATNO][  4].a[ 32] =         0.917610000000;     BAS[ATNO][  4].d[ 32] =        -1.959301664265;
  BAS[ATNO][  4].a[ 33] =         0.407030000000;     BAS[ATNO][  4].d[ 33] =         3.885266830802;
  BAS[ATNO][  4].a[ 34] =         0.162380000000;     BAS[ATNO][  4].d[ 34] =        -2.644687820192;

  // Basis function   6 L = s
  InitBFNGauss(BAS[ATNO][  5]);
  BAS[ATNO][  5].l  = 0;
  BAS[ATNO][  5].ng = 35;
  BAS[ATNO][  5].a[  0] =   1702200.000000000000;     BAS[ATNO][  5].d[  0] =         0.000011600269;
  BAS[ATNO][  5].a[  1] =    254910.000000000000;     BAS[ATNO][  5].d[  1] =         0.000090176126;
  BAS[ATNO][  5].a[  2] =     58011.000000000000;     BAS[ATNO][  5].d[  2] =         0.000474153587;
  BAS[ATNO][  5].a[  3] =     16431.000000000000;     BAS[ATNO][  5].d[  3] =         0.001997558557;
  BAS[ATNO][  5].a[  4] =      5360.500000000000;     BAS[ATNO][  5].d[  4] =         0.007224195036;
  BAS[ATNO][  5].a[  5] =      1935.400000000000;     BAS[ATNO][  5].d[  5] =         0.023028753205;
  BAS[ATNO][  5].a[  6] =       755.090000000000;     BAS[ATNO][  5].d[  6] =         0.064821129896;
  BAS[ATNO][  5].a[  7] =       313.080000000000;     BAS[ATNO][  5].d[  7] =         0.155757232230;
  BAS[ATNO][  5].a[  8] =       135.880000000000;     BAS[ATNO][  5].d[  8] =         0.298664340175;
  BAS[ATNO][  5].a[  9] =        61.092000000000;     BAS[ATNO][  5].d[  9] =         0.380809138607;
  BAS[ATNO][  5].a[ 10] =        28.024000000000;     BAS[ATNO][  5].d[ 10] =         0.242266104654;
  BAS[ATNO][  5].a[ 11] =        11.860000000000;     BAS[ATNO][  5].d[ 11] =         0.039112460535;
  BAS[ATNO][  5].a[ 12] =     16431.000000000000;     BAS[ATNO][  5].d[ 12] =        -0.000062676322;
  BAS[ATNO][  5].a[ 13] =      5360.500000000000;     BAS[ATNO][  5].d[ 13] =        -0.000104247033;
  BAS[ATNO][  5].a[ 14] =      1935.400000000000;     BAS[ATNO][  5].d[ 14] =        -0.002573968024;
  BAS[ATNO][  5].a[ 15] =       755.090000000000;     BAS[ATNO][  5].d[ 15] =        -0.011689581865;
  BAS[ATNO][  5].a[ 16] =       313.080000000000;     BAS[ATNO][  5].d[ 16] =        -0.086713701539;
  BAS[ATNO][  5].a[ 17] =       135.880000000000;     BAS[ATNO][  5].d[ 17] =        -0.342589941780;
  BAS[ATNO][  5].a[ 18] =        61.092000000000;     BAS[ATNO][  5].d[ 18] =        -1.131777317584;
  BAS[ATNO][  5].a[ 19] =        28.024000000000;     BAS[ATNO][  5].d[ 19] =        -1.294092119227;
  BAS[ATNO][  5].a[ 20] =        11.860000000000;     BAS[ATNO][  5].d[ 20] =         2.269699372606;
  BAS[ATNO][  5].a[ 21] =         5.511700000000;     BAS[ATNO][  5].d[ 21] =         5.903113864052;
  BAS[ATNO][  5].a[ 22] =      5360.500000000000;     BAS[ATNO][  5].d[ 22] =         0.000056116237;
  BAS[ATNO][  5].a[ 23] =      1935.400000000000;     BAS[ATNO][  5].d[ 23] =         0.000491263136;
  BAS[ATNO][  5].a[ 24] =       755.090000000000;     BAS[ATNO][  5].d[ 24] =         0.003600984689;
  BAS[ATNO][  5].a[ 25] =       313.080000000000;     BAS[ATNO][  5].d[ 25] =         0.021438757795;
  BAS[ATNO][  5].a[ 26] =       135.880000000000;     BAS[ATNO][  5].d[ 26] =         0.099506254769;
  BAS[ATNO][  5].a[ 27] =        61.092000000000;     BAS[ATNO][  5].d[ 27] =         0.311510904328;
  BAS[ATNO][  5].a[ 28] =        28.024000000000;     BAS[ATNO][  5].d[ 28] =         0.456762477206;
  BAS[ATNO][  5].a[ 29] =        11.860000000000;     BAS[ATNO][  5].d[ 29] =        -0.909277125538;
  BAS[ATNO][  5].a[ 30] =         5.511700000000;     BAS[ATNO][  5].d[ 30] =        -4.180485246167;
  BAS[ATNO][  5].a[ 31] =         2.482200000000;     BAS[ATNO][  5].d[ 31] =        -5.238988945424;
  BAS[ATNO][  5].a[ 32] =         0.917610000000;     BAS[ATNO][  5].d[ 32] =         5.851509500280;
  BAS[ATNO][  5].a[ 33] =         0.407030000000;     BAS[ATNO][  5].d[ 33] =        -4.020981620800;
  BAS[ATNO][  5].a[ 34] =         0.162380000000;     BAS[ATNO][  5].d[ 34] =         1.216706098324;

  // Basis function   7 L = p
  InitBFNGauss(BAS[ATNO][  6]);
  BAS[ATNO][  6].l  = 1;
  BAS[ATNO][  6].ng = 21;
  BAS[ATNO][  6].a[  0] =      4415.500000000000;     BAS[ATNO][  6].d[  0] =         0.000126016701;
  BAS[ATNO][  6].a[  1] =      1046.300000000000;     BAS[ATNO][  6].d[  1] =         0.001109361434;
  BAS[ATNO][  6].a[  2] =       339.540000000000;     BAS[ATNO][  6].d[  2] =         0.006230437100;
  BAS[ATNO][  6].a[  3] =       128.100000000000;     BAS[ATNO][  6].d[  3] =         0.026808413014;
  BAS[ATNO][  6].a[  4] =        53.823000000000;     BAS[ATNO][  6].d[  4] =         0.083430350823;
  BAS[ATNO][  6].a[  5] =        24.307000000000;     BAS[ATNO][  6].d[  5] =         0.201870473900;
  BAS[ATNO][  6].a[  6] =        11.440000000000;     BAS[ATNO][  6].d[  6] =         0.344421889167;
  BAS[ATNO][  6].a[  7] =         5.513200000000;     BAS[ATNO][  6].d[  7] =         0.393238456111;
  BAS[ATNO][  6].a[  8] =         2.633100000000;     BAS[ATNO][  6].d[  8] =         0.229827253202;
  BAS[ATNO][  6].a[  9] =      1046.300000000000;     BAS[ATNO][  6].d[  9] =        -0.000003233490;
  BAS[ATNO][  6].a[ 10] =       339.540000000000;     BAS[ATNO][  6].d[ 10] =         0.000009240635;
  BAS[ATNO][  6].a[ 11] =       128.100000000000;     BAS[ATNO][  6].d[ 11] =         0.000015180434;
  BAS[ATNO][  6].a[ 12] =        53.823000000000;     BAS[ATNO][  6].d[ 12] =         0.000816265933;
  BAS[ATNO][  6].a[ 13] =        24.307000000000;     BAS[ATNO][  6].d[ 13] =         0.002889324700;
  BAS[ATNO][  6].a[ 14] =        11.440000000000;     BAS[ATNO][  6].d[ 14] =         0.013104510967;
  BAS[ATNO][  6].a[ 15] =         5.513200000000;     BAS[ATNO][  6].d[ 15] =         0.011307593275;
  BAS[ATNO][  6].a[ 16] =         2.633100000000;     BAS[ATNO][  6].d[ 16] =        -0.030852407687;
  BAS[ATNO][  6].a[ 17] =         1.210900000000;     BAS[ATNO][  6].d[ 17] =        -0.290288139227;
  BAS[ATNO][  6].a[ 18] =         0.534110000000;     BAS[ATNO][  6].d[ 18] =         0.229204454570;
  BAS[ATNO][  6].a[ 19] =         0.223140000000;     BAS[ATNO][  6].d[ 19] =        -0.116820236263;
  BAS[ATNO][  6].a[ 20] =         0.088792000000;     BAS[ATNO][  6].d[ 20] =         0.036004142857;

  // Basis function   8 L = p
  InitBFNGauss(BAS[ATNO][  7]);
  BAS[ATNO][  7].l  = 1;
  BAS[ATNO][  7].ng = 21;
  BAS[ATNO][  7].a[  0] =      4415.500000000000;     BAS[ATNO][  7].d[  0] =        -0.000045092091;
  BAS[ATNO][  7].a[  1] =      1046.300000000000;     BAS[ATNO][  7].d[  1] =        -0.000396958709;
  BAS[ATNO][  7].a[  2] =       339.540000000000;     BAS[ATNO][  7].d[  2] =        -0.002229414320;
  BAS[ATNO][  7].a[  3] =       128.100000000000;     BAS[ATNO][  7].d[  3] =        -0.009592755520;
  BAS[ATNO][  7].a[  4] =        53.823000000000;     BAS[ATNO][  7].d[  4] =        -0.029853574622;
  BAS[ATNO][  7].a[  5] =        24.307000000000;     BAS[ATNO][  7].d[  5] =        -0.072234566883;
  BAS[ATNO][  7].a[  6] =        11.440000000000;     BAS[ATNO][  7].d[  6] =        -0.123243213870;
  BAS[ATNO][  7].a[  7] =         5.513200000000;     BAS[ATNO][  7].d[  7] =        -0.140711065913;
  BAS[ATNO][  7].a[  8] =         2.633100000000;     BAS[ATNO][  7].d[  8] =        -0.082238238075;
  BAS[ATNO][  7].a[  9] =      1046.300000000000;     BAS[ATNO][  7].d[  9] =         0.000015638902;
  BAS[ATNO][  7].a[ 10] =       339.540000000000;     BAS[ATNO][  7].d[ 10] =        -0.000044692700;
  BAS[ATNO][  7].a[ 11] =       128.100000000000;     BAS[ATNO][  7].d[ 11] =        -0.000073420775;
  BAS[ATNO][  7].a[ 12] =        53.823000000000;     BAS[ATNO][  7].d[ 12] =        -0.003947902712;
  BAS[ATNO][  7].a[ 13] =        24.307000000000;     BAS[ATNO][  7].d[ 13] =        -0.013974334050;
  BAS[ATNO][  7].a[ 14] =        11.440000000000;     BAS[ATNO][  7].d[ 14] =        -0.063380489500;
  BAS[ATNO][  7].a[ 15] =         5.513200000000;     BAS[ATNO][  7].d[ 15] =        -0.054689625476;
  BAS[ATNO][  7].a[ 16] =         2.633100000000;     BAS[ATNO][  7].d[ 16] =         0.149218899227;
  BAS[ATNO][  7].a[ 17] =         1.210900000000;     BAS[ATNO][  7].d[ 17] =         1.403990153182;
  BAS[ATNO][  7].a[ 18] =         0.534110000000;     BAS[ATNO][  7].d[ 18] =        -0.610578627592;
  BAS[ATNO][  7].a[ 19] =         0.223140000000;     BAS[ATNO][  7].d[ 19] =         0.300352945305;
  BAS[ATNO][  7].a[ 20] =         0.088792000000;     BAS[ATNO][  7].d[ 20] =        -0.090066428787;

  // Basis function   9 L = p
  InitBFNGauss(BAS[ATNO][  8]);
  BAS[ATNO][  8].l  = 1;
  BAS[ATNO][  8].ng = 21;
  BAS[ATNO][  8].a[  0] =      4415.500000000000;     BAS[ATNO][  8].d[  0] =         0.000016433874;
  BAS[ATNO][  8].a[  1] =      1046.300000000000;     BAS[ATNO][  8].d[  1] =         0.000144672145;
  BAS[ATNO][  8].a[  2] =       339.540000000000;     BAS[ATNO][  8].d[  2] =         0.000812513103;
  BAS[ATNO][  8].a[  3] =       128.100000000000;     BAS[ATNO][  8].d[  3] =         0.003496092888;
  BAS[ATNO][  8].a[  4] =        53.823000000000;     BAS[ATNO][  8].d[  4] =         0.010880176159;
  BAS[ATNO][  8].a[  5] =        24.307000000000;     BAS[ATNO][  8].d[  5] =         0.026325986834;
  BAS[ATNO][  8].a[  6] =        11.440000000000;     BAS[ATNO][  8].d[  6] =         0.044916158091;
  BAS[ATNO][  8].a[  7] =         5.513200000000;     BAS[ATNO][  8].d[  7] =         0.051282340692;
  BAS[ATNO][  8].a[  8] =         2.633100000000;     BAS[ATNO][  8].d[  8] =         0.029971838501;
  BAS[ATNO][  8].a[  9] =      1046.300000000000;     BAS[ATNO][  8].d[  9] =        -0.000015230830;
  BAS[ATNO][  8].a[ 10] =       339.540000000000;     BAS[ATNO][  8].d[ 10] =         0.000043526514;
  BAS[ATNO][  8].a[ 11] =       128.100000000000;     BAS[ATNO][  8].d[ 11] =         0.000071504976;
  BAS[ATNO][  8].a[ 12] =        53.823000000000;     BAS[ATNO][  8].d[ 12] =         0.003844888431;
  BAS[ATNO][  8].a[ 13] =        24.307000000000;     BAS[ATNO][  8].d[ 13] =         0.013609695888;
  BAS[ATNO][  8].a[ 14] =        11.440000000000;     BAS[ATNO][  8].d[ 14] =         0.061726675797;
  BAS[ATNO][  8].a[ 15] =         5.513200000000;     BAS[ATNO][  8].d[ 15] =         0.053262586134;
  BAS[ATNO][  8].a[ 16] =         2.633100000000;     BAS[ATNO][  8].d[ 16] =        -0.145325267887;
  BAS[ATNO][  8].a[ 17] =         1.210900000000;     BAS[ATNO][  8].d[ 17] =        -1.367355249091;
  BAS[ATNO][  8].a[ 18] =         0.534110000000;     BAS[ATNO][  8].d[ 18] =         2.081655104389;
  BAS[ATNO][  8].a[ 19] =         0.223140000000;     BAS[ATNO][  8].d[ 19] =        -0.374292848519;
  BAS[ATNO][  8].a[ 20] =         0.088792000000;     BAS[ATNO][  8].d[ 20] =         0.115252674797;

  // Basis function  10 L = p
  InitBFNGauss(BAS[ATNO][  9]);
  BAS[ATNO][  9].l  = 1;
  BAS[ATNO][  9].ng = 21;
  BAS[ATNO][  9].a[  0] =      4415.500000000000;     BAS[ATNO][  9].d[  0] =         0.000006622363;
  BAS[ATNO][  9].a[  1] =      1046.300000000000;     BAS[ATNO][  9].d[  1] =         0.000058298572;
  BAS[ATNO][  9].a[  2] =       339.540000000000;     BAS[ATNO][  9].d[  2] =         0.000327418618;
  BAS[ATNO][  9].a[  3] =       128.100000000000;     BAS[ATNO][  9].d[  3] =         0.001408821466;
  BAS[ATNO][  9].a[  4] =        53.823000000000;     BAS[ATNO][  9].d[  4] =         0.004384387436;
  BAS[ATNO][  9].a[  5] =        24.307000000000;     BAS[ATNO][  9].d[  5] =         0.010608589808;
  BAS[ATNO][  9].a[  6] =        11.440000000000;     BAS[ATNO][  9].d[  6] =         0.018099875987;
  BAS[ATNO][  9].a[  7] =         5.513200000000;     BAS[ATNO][  9].d[  7] =         0.020665258256;
  BAS[ATNO][  9].a[  8] =         2.633100000000;     BAS[ATNO][  9].d[  8] =         0.012077759609;
  BAS[ATNO][  9].a[  9] =      1046.300000000000;     BAS[ATNO][  9].d[  9] =        -0.000010969755;
  BAS[ATNO][  9].a[ 10] =       339.540000000000;     BAS[ATNO][  9].d[ 10] =         0.000031349258;
  BAS[ATNO][  9].a[ 11] =       128.100000000000;     BAS[ATNO][  9].d[ 11] =         0.000051500286;
  BAS[ATNO][  9].a[ 12] =        53.823000000000;     BAS[ATNO][  9].d[ 12] =         0.002769217850;
  BAS[ATNO][  9].a[ 13] =        24.307000000000;     BAS[ATNO][  9].d[ 13] =         0.009802160315;
  BAS[ATNO][  9].a[ 14] =        11.440000000000;     BAS[ATNO][  9].d[ 14] =         0.044457626155;
  BAS[ATNO][  9].a[ 15] =         5.513200000000;     BAS[ATNO][  9].d[ 15] =         0.038361504354;
  BAS[ATNO][  9].a[ 16] =         2.633100000000;     BAS[ATNO][  9].d[ 16] =        -0.104668141401;
  BAS[ATNO][  9].a[ 17] =         1.210900000000;     BAS[ATNO][  9].d[ 17] =        -0.984815198612;
  BAS[ATNO][  9].a[ 18] =         0.534110000000;     BAS[ATNO][  9].d[ 18] =         2.519978767707;
  BAS[ATNO][  9].a[ 19] =         0.223140000000;     BAS[ATNO][  9].d[ 19] =        -2.269765093608;
  BAS[ATNO][  9].a[ 20] =         0.088792000000;     BAS[ATNO][  9].d[ 20] =         0.214200432477;

  // Basis function  11 L = p
  InitBFNGauss(BAS[ATNO][ 10]);
  BAS[ATNO][ 10].l  = 1;
  BAS[ATNO][ 10].ng = 21;
  BAS[ATNO][ 10].a[  0] =      4415.500000000000;     BAS[ATNO][ 10].d[  0] =        -0.000002659266;
  BAS[ATNO][ 10].a[  1] =      1046.300000000000;     BAS[ATNO][ 10].d[  1] =        -0.000023410290;
  BAS[ATNO][ 10].a[  2] =       339.540000000000;     BAS[ATNO][ 10].d[  2] =        -0.000131477744;
  BAS[ATNO][ 10].a[  3] =       128.100000000000;     BAS[ATNO][ 10].d[  3] =        -0.000565724297;
  BAS[ATNO][ 10].a[  4] =        53.823000000000;     BAS[ATNO][ 10].d[  4] =        -0.001760588237;
  BAS[ATNO][ 10].a[  5] =        24.307000000000;     BAS[ATNO][ 10].d[  5] =        -0.004259969882;
  BAS[ATNO][ 10].a[  6] =        11.440000000000;     BAS[ATNO][ 10].d[  6] =        -0.007268159856;
  BAS[ATNO][ 10].a[  7] =         5.513200000000;     BAS[ATNO][ 10].d[  7] =        -0.008298311027;
  BAS[ATNO][ 10].a[  8] =         2.633100000000;     BAS[ATNO][ 10].d[  8] =        -0.004849927569;
  BAS[ATNO][ 10].a[  9] =      1046.300000000000;     BAS[ATNO][ 10].d[  9] =         0.000005868224;
  BAS[ATNO][ 10].a[ 10] =       339.540000000000;     BAS[ATNO][ 10].d[ 10] =        -0.000016770153;
  BAS[ATNO][ 10].a[ 11] =       128.100000000000;     BAS[ATNO][ 10].d[ 11] =        -0.000027549861;
  BAS[ATNO][ 10].a[ 12] =        53.823000000000;     BAS[ATNO][ 10].d[ 12] =        -0.001481381401;
  BAS[ATNO][ 10].a[ 13] =        24.307000000000;     BAS[ATNO][ 10].d[ 13] =        -0.005243624287;
  BAS[ATNO][ 10].a[ 14] =        11.440000000000;     BAS[ATNO][ 10].d[ 14] =        -0.023782419463;
  BAS[ATNO][ 10].a[ 15] =         5.513200000000;     BAS[ATNO][ 10].d[ 15] =        -0.020521324837;
  BAS[ATNO][ 10].a[ 16] =         2.633100000000;     BAS[ATNO][ 10].d[ 16] =         0.055991780455;
  BAS[ATNO][ 10].a[ 17] =         1.210900000000;     BAS[ATNO][ 10].d[ 17] =         0.526822733753;
  BAS[ATNO][ 10].a[ 18] =         0.534110000000;     BAS[ATNO][ 10].d[ 18] =        -1.682198109342;
  BAS[ATNO][ 10].a[ 19] =         0.223140000000;     BAS[ATNO][ 10].d[ 19] =         2.590605533068;
  BAS[ATNO][ 10].a[ 20] =         0.088792000000;     BAS[ATNO][ 10].d[ 20] =        -1.976968341246;

  // Basis function  12 L = d
  InitBFNGauss(BAS[ATNO][ 11]);
  BAS[ATNO][ 11].l  = 2;
  BAS[ATNO][ 11].ng = 4;
  BAS[ATNO][ 11].a[  0] =        10.860000000000;     BAS[ATNO][ 11].d[  0] =         0.320815970776;
  BAS[ATNO][ 11].a[  1] =         2.860000000000;     BAS[ATNO][ 11].d[  1] =         0.766328214621;
  BAS[ATNO][ 11].a[  2] =         0.840000000000;     BAS[ATNO][ 11].d[  2] =         0.077175861267;
  BAS[ATNO][ 11].a[  3] =         0.310000000000;     BAS[ATNO][ 11].d[  3] =        -0.006582928852;

  // Basis function  13 L = d
  InitBFNGauss(BAS[ATNO][ 12]);
  BAS[ATNO][ 12].l  = 2;
  BAS[ATNO][ 12].ng = 4;
  BAS[ATNO][ 12].a[  0] =        10.860000000000;     BAS[ATNO][ 12].d[  0] =        -0.264625363921;
  BAS[ATNO][ 12].a[  1] =         2.860000000000;     BAS[ATNO][ 12].d[  1] =        -0.390669641183;
  BAS[ATNO][ 12].a[  2] =         0.840000000000;     BAS[ATNO][ 12].d[  2] =         1.077530307826;
  BAS[ATNO][ 12].a[  3] =         0.310000000000;     BAS[ATNO][ 12].d[  3] =         0.019935479121;

  // Basis function  14 L = d
  InitBFNGauss(BAS[ATNO][ 13]);
  BAS[ATNO][ 13].l  = 2;
  BAS[ATNO][ 13].ng = 4;
  BAS[ATNO][ 13].a[  0] =        10.860000000000;     BAS[ATNO][ 13].d[  0] =         0.183422114352;
  BAS[ATNO][ 13].a[  1] =         2.860000000000;     BAS[ATNO][ 13].d[  1] =         0.148493365822;
  BAS[ATNO][ 13].a[  2] =         0.840000000000;     BAS[ATNO][ 13].d[  2] =        -0.978653774375;
  BAS[ATNO][ 13].a[  3] =         0.310000000000;     BAS[ATNO][ 13].d[  3] =         1.346400381532;

  // Basis function  15 L = d
  InitBFNGauss(BAS[ATNO][ 14]);
  BAS[ATNO][ 14].l  = 2;
  BAS[ATNO][ 14].ng = 4;
  BAS[ATNO][ 14].a[  0] =        10.860000000000;     BAS[ATNO][ 14].d[  0] =        -1.087574830447;
  BAS[ATNO][ 14].a[  1] =         2.860000000000;     BAS[ATNO][ 14].d[  1] =         1.168313166937;
  BAS[ATNO][ 14].a[  2] =         0.840000000000;     BAS[ATNO][ 14].d[  2] =        -0.838518599613;
  BAS[ATNO][ 14].a[  3] =         0.310000000000;     BAS[ATNO][ 14].d[  3] =         0.399198797496;

  // Basis function  16 L = f
  InitBFNGauss(BAS[ATNO][ 15]);
  BAS[ATNO][ 15].l  = 3;
  BAS[ATNO][ 15].ng = 2;
  BAS[ATNO][ 15].a[  0] =         1.910000000000;     BAS[ATNO][ 15].d[  0] =         0.786494515084;
  BAS[ATNO][ 15].a[  1] =         0.630000000000;     BAS[ATNO][ 15].d[  1] =         0.332718834559;

  // Basis function  17 L = f
  InitBFNGauss(BAS[ATNO][ 16]);
  BAS[ATNO][ 16].l  = 3;
  BAS[ATNO][ 16].ng = 2;
  BAS[ATNO][ 16].a[  0] =         1.910000000000;     BAS[ATNO][ 16].d[  0] =        -0.864151620471;
  BAS[ATNO][ 16].a[  1] =         0.630000000000;     BAS[ATNO][ 16].d[  1] =         1.120102594654;

  // Basis function  18 L = g
  InitBFNGauss(BAS[ATNO][ 17]);
  BAS[ATNO][ 17].l  = 4;
  BAS[ATNO][ 17].ng = 1;
  BAS[ATNO][ 17].a[  0] =         0.930000000000;     BAS[ATNO][ 17].d[  0] =         1.000000000000;

-------
TIMINGS
-------

Total SCF time: 0 days 0 hours 0 min 1 sec 

Total time                  ....       1.547 sec
Sum of individual times     ....       1.354 sec  ( 87.6%)

Fock matrix formation       ....       0.847 sec  ( 54.8%)
  XC integration            ....       0.026 sec  (  3.1% of F)
    Basis function eval.    ....       0.004 sec  ( 14.2% of XC)
    Density eval.           ....       0.001 sec  (  5.1% of XC)
    XC-Functional eval.     ....       0.001 sec  (  4.8% of XC)
    XC-Potential eval.      ....       0.002 sec  (  7.8% of XC)
Diagonalization             ....       0.001 sec  (  0.1%)
Density matrix formation    ....       0.001 sec  (  0.0%)
Population analysis         ....       0.001 sec  (  0.1%)
Initial guess               ....       0.077 sec  (  5.0%)
Orbital Transformation      ....       0.000 sec  (  0.0%)
Orbital Orthonormalization  ....       0.000 sec  (  0.0%)
DIIS solution               ....       0.000 sec  (  0.0%)
SOSCF solution              ....       0.001 sec  (  0.1%)
Grid generation             ....       0.427 sec  ( 27.6%)

-------------------------   --------------------
FINAL SINGLE POINT ENERGY      -311.533113942940
-------------------------   --------------------


                            ***************************************
                            *     ORCA property calculations      *
                            ***************************************

                                    ---------------------
                                    Active property flags
                                    ---------------------
   (+) Dipole Moment


------------------------------------------------------------------------------
                       ORCA ELECTRIC PROPERTIES CALCULATION
------------------------------------------------------------------------------

Dipole Moment Calculation                       ... on
Quadrupole Moment Calculation                   ... off
Polarizability Calculation                      ... off
GBWName                                         ... Ar_pc-3_4385.151648_.gbw
Electron density file                           ... Ar_pc-3_4385.151648_.scfp
The origin for moment calculation is the CENTER OF MASS  = ( 0.000000,  0.000000  0.000000)

-------------
DIPOLE MOMENT
-------------
                                X             Y             Z
Electronic contribution:     -0.00000       0.00000       0.00000
Nuclear contribution   :      0.00000       0.00000       0.00000
                        -----------------------------------------
Total Dipole Moment    :     -0.00000       0.00000       0.00000
                        -----------------------------------------
Magnitude (a.u.)       :      0.00000
Magnitude (Debye)      :      0.00000



--------------------
Rotational spectrum 
--------------------
 
Rotational constants in cm-1:     0.000000     0.000000     0.000000 
Rotational constants in MHz :     0.000000     0.000000     0.000000 

 Dipole components along the rotational axes: 
x,y,z [a.u.] :    -0.000000     0.000000     0.000000 
x,y,z [Debye]:    -0.000000     0.000000     0.000000 

 

Timings for individual modules:

Sum of individual times         ...        2.810 sec (=   0.047 min)
GTO integral calculation        ...        0.625 sec (=   0.010 min)  22.2 %
Relativistic integrals          ...        0.381 sec (=   0.006 min)  13.6 %
SCF iterations                  ...        1.804 sec (=   0.030 min)  64.2 %
                             ****ORCA TERMINATED NORMALLY****
TOTAL RUN TIME: 0 days 0 hours 0 minutes 3 seconds 126 msec
