
                                 *****************
                                 * O   R   C   A *
                                 *****************

           --- An Ab Initio, DFT and Semiempirical electronic structure package ---

                  #######################################################
                  #                        -***-                        #
                  #          Department of theory and spectroscopy      #
                  #               Directorship: Frank Neese             #
                  #        Max Planck Institute fuer Kohlenforschung    #
                  #                Kaiser Wilhelm Platz 1               #
                  #                 D-45470 Muelheim/Ruhr               #
                  #                      Germany                        #
                  #                                                     #
                  #                  All rights reserved                #
                  #                        -***-                        #
                  #######################################################


                         Program Version 4.2.1 -  RELEASE  -


 With contributions from (in alphabetic order):
   Daniel Aravena         : Magnetic Suceptibility
   Michael Atanasov       : Ab Initio Ligand Field Theory (pilot matlab implementation)
   Alexander A. Auer      : GIAO ZORA, VPT2
   Ute Becker             : Parallelization
   Giovanni Bistoni       : ED, misc. LED, open-shell LED, HFLD
   Martin Brehm           : Molecular dynamics
   Dmytro Bykov           : SCF Hessian
   Vijay G. Chilkuri      : MRCI spin determinant printing, contributions to CSF-ICE
   Dipayan Datta          : RHF DLPNO-CCSD density
   Achintya Kumar Dutta   : EOM-CC, STEOM-CC
   Dmitry Ganyushin       : Spin-Orbit,Spin-Spin,Magnetic field MRCI
   Miquel Garcia          : C-PCM Hessian, Gaussian charge scheme
   Yang Guo               : DLPNO-NEVPT2, CIM, IAO-localization
   Andreas Hansen         : Spin unrestricted coupled pair/coupled cluster methods
   Benjamin Helmich-Paris : CASSCF linear response (MC-RPA)
   Lee Huntington         : MR-EOM, pCC
   Robert Izsak           : Overlap fitted RIJCOSX, COSX-SCS-MP3, EOM
   Christian Kollmar      : KDIIS, OOCD, Brueckner-CCSD(T), CCSD density
   Simone Kossmann        : Meta GGA functionals, TD-DFT gradient, OOMP2, MP2 Hessian
   Martin Krupicka        : AUTO-CI
   Lucas Lang             : DCDCAS
   Dagmar Lenk            : GEPOL surface, SMD
   Dimitrios Liakos       : Extrapolation schemes; Compound Job, initial MDCI parallelization
   Dimitrios Manganas     : Further ROCIS development; embedding schemes
   Dimitrios Pantazis     : SARC Basis sets
   Taras Petrenko         : DFT Hessian,TD-DFT gradient, ASA, ECA, R-Raman, ABS, FL, XAS/XES, NRVS
   Peter Pinski           : DLPNO-MP2, DLPNO-MP2 Gradient
   Christoph Reimann      : Effective Core Potentials
   Marius Retegan         : Local ZFS, SOC
   Christoph Riplinger    : Optimizer, TS searches, QM/MM, DLPNO-CCSD(T), (RO)-DLPNO pert. Triples
   Tobias Risthaus        : Range-separated hybrids, TD-DFT gradient, RPA, STAB
   Michael Roemelt        : Original ROCIS implementation
   Masaaki Saitow         : Open-shell DLPNO-CCSD energy and density
   Barbara Sandhoefer     : DKH picture change effects
   Avijit Sen             : IP-ROCIS
   Kantharuban Sivalingam : CASSCF convergence, NEVPT2, FIC-MRCI
   Bernardo de Souza      : ESD, SOC TD-DFT
   Georgi Stoychev        : AutoAux, RI-MP2 NMR
   Willem Van den Heuvel  : Paramagnetic NMR
   Boris Wezisla          : Elementary symmetry handling
   Frank Wennmohs         : Technical directorship


 We gratefully acknowledge several colleagues who have allowed us to
 interface, adapt or use parts of their codes:
   Stefan Grimme, W. Hujo, H. Kruse,             : VdW corrections, initial TS optimization,
                  C. Bannwarth                     DFT functionals, gCP, sTDA/sTD-DF
   Ed Valeev, F. Pavosevic, A. Kumar             : LibInt (2-el integral package), F12 methods
   Garnet Chan, S. Sharma, J. Yang, R. Olivares  : DMRG
   Ulf Ekstrom                                   : XCFun DFT Library
   Mihaly Kallay                                 : mrcc  (arbitrary order and MRCC methods)
   Andreas Klamt, Michael Diedenhofen            : otool_cosmo (COSMO solvation model)
   Jiri Pittner, Ondrej Demel                    : Mk-CCSD
   Frank Weinhold                                : gennbo (NPA and NBO analysis)
   Christopher J. Cramer and Donald G. Truhlar   : smd solvation model
   Lars Goerigk                                  : TD-DFT with DH, B97 family of functionals
   V. Asgeirsson, H. Jonsson                     : NEB implementation
   FAccTs GmbH                                   : IRC, NEB, NEB-TS, Multilevel, MM, QM/MM, CI optimization
   S Lehtola, MJT Oliveira, MAL Marques          : LibXC Library


 Your calculation uses the libint2 library for the computation of 2-el integrals
 For citations please refer to: http://libint.valeyev.net

 Your ORCA version has been built with support for libXC version: 4.2.3
 For citations please refer to: https://tddft.org/programs/libxc/

 This ORCA versions uses:
   CBLAS   interface :  Fast vector & matrix operations
   LAPACKE interface :  Fast linear algebra routines
   SCALAPACK package :  Parallel linear algebra routines


----- Orbital basis set information -----
Your calculation utilizes the basis: pc-4
   H, C-F              : F. Jensen, J. Chem. Phys. 115, 9113 (2001).
                         F. Jensen, J. Chem. Phys. 116, 7372 (2002).
                         F. Jensen, J. Chem. Phys. 117, 9234 (2002).
   Si-Cl               : F. Jensen, T. Helgaker, J. Chem. Phys. 121, 3463 (2004).
   He-B, Ne-Mg, Al, Ar : F. Jensen, J. Phys. Chem. A 111, 11198 (2007).
   K, Ca, Ga-Kr        : F. Jensen, J. Chem. Phys. 136, 094110 (2012).
   Sc-Zn               : F. Jensen, J. Chem. Phys. 138, 014107 (2013).

================================================================================
                                        WARNINGS
                       Please study these warnings very carefully!
================================================================================


INFO   : the flag for use of LIBINT has been found!

================================================================================
                                       INPUT FILE
================================================================================
NAME = Ar_pc-4_137.035989_.inp
|  1> ! LDA pc-4 nori grid5 finalgrid6 verytightscf
|  2> %Pal NProcs 18 End
|  3> 
|  4> % REL
|  5>   Method ZORA
|  6>   ModelPot 1, 0, 0, 0
|  7>   velit 137.035989
|  8> END
|  9> 
| 10> *xyz 16 1
| 11> Ar 0.0 0.0 0.0
| 12> **                         ****END OF INPUT****
================================================================================

                       ****************************
                       * Single Point Calculation *
                       ****************************

---------------------------------
CARTESIAN COORDINATES (ANGSTROEM)
---------------------------------
  Ar     0.000000    0.000000    0.000000

----------------------------
CARTESIAN COORDINATES (A.U.)
----------------------------
  NO LB      ZA    FRAG     MASS         X           Y           Z
   0 Ar   18.0000    0    39.948    0.000000    0.000000    0.000000

--------------------------------
INTERNAL COORDINATES (ANGSTROEM)
--------------------------------
 Ar     0   0   0     0.000000000000     0.00000000     0.00000000

---------------------------
INTERNAL COORDINATES (A.U.)
---------------------------
 Ar     0   0   0     0.000000000000     0.00000000     0.00000000

---------------------
BASIS SET INFORMATION
---------------------
There are 1 groups of distinct atoms

 Group   1 Type Ar  : 43s26p6d3f2g1h contracted to 7s6p6d3f2g1h pattern {1512121111/11111111/111111/111/11/1}

Atom   0Ar   basis set group =>   1


           ************************************************************
           *        Program running with 18 parallel MPI-processes    *
           *              working on a common directory               *
           ************************************************************
------------------------------------------------------------------------------
                           ORCA GTO INTEGRAL CALCULATION
------------------------------------------------------------------------------

                         BASIS SET STATISTICS AND STARTUP INFO

 # of primitive gaussian shells          ...   81
 # of primitive gaussian functions       ...  201
 # of contracted shells                  ...   25
 # of contracted basis functions         ...  105
 Highest angular momentum                ...    5
 Maximum contraction depth               ...   15
 Integral package used                   ... LIBINT
 Integral threshhold            Thresh   ...  1.000e-12
 Primitive cut-off              TCut     ...  1.000e-14


------------------------------ INTEGRAL EVALUATION ----------------------------


 * One electron integrals 
 Pre-screening matrix                    ... done
 Shell pair data                         ... done (   0.000 sec)



           ************************************************************
           *        Program running with 18 parallel MPI-processes    *
           *              working on a common directory               *
           ************************************************************
------------------------------------------------------------------------------
                          ORCA RELATIVISTIC HAMILTONIAN
------------------------------------------------------------------------------

Relativistic Method            ... ZORA(MP)
Treatment of potential         ... Van Wuellen
Nucleus model                  ... Point Nucleus
Speed of light used            ... 137.03598900000000


            *************************************************
            *         ZERO ORDER REGULAR APPROXIMATION      *
            *                     ZORA(MP)                  *
            *            Programmed by FN according to      *
            *                   C. van Wuellen              *
            *       J. Chem. Phys. (1998) vol 109, 392-399  *
            *************************************************

Terms included in model potential: +V(e,N)
Basis function cutoff value   ... 1.000000e-12
Loading the fitted atomic densities  (DKH4)  ... done
Calculating the cutoffs                      ... done
Number of fit functions                      ... 15
Setting up the integration grid ... done


           ************************************************************
           *        Program running with 18 parallel MPI-processes    *
           *              working on a common directory               *
           ************************************************************
-------------------------------------------------------------------------------
                                 ORCA SCF
-------------------------------------------------------------------------------

------------
SCF SETTINGS
------------
Hamiltonian:
 Density Functional     Method          .... DFT(GTOs)
 Exchange Functional    Exchange        .... Slater
   X-Alpha parameter    XAlpha          ....  0.666667
 Correlation Functional Correlation     .... VWN-5
 Gradients option       PostSCFGGA      .... off
   Density functional embedding theory  .... OFF

Relativistic Settings:
 Scalar relativistic method             .... ZORA
 Speed of light used       Velit        ....       137.035989
Orbital energies will be scaled


General Settings:
 Integral files         IntName         .... Ar_pc-4_137.035989_
 Hartree-Fock type      HFTyp           .... RHF
 Total Charge           Charge          ....   16
 Multiplicity           Mult            ....    1
 Number of Electrons    NEL             ....    2
 Basis Dimension        Dim             ....  105
 Nuclear Repulsion      ENuc            ....      0.0000000000 Eh

Convergence Acceleration:
 DIIS                   CNVDIIS         .... on
   Start iteration      DIISMaxIt       ....    12
   Startup error        DIISStart       ....  0.200000
   # of expansion vecs  DIISMaxEq       ....     5
   Bias factor          DIISBfac        ....   1.050
   Max. coefficient     DIISMaxC        ....  10.000
 Newton-Raphson         CNVNR           .... off
 SOSCF                  CNVSOSCF        .... on
   Start iteration      SOSCFMaxIt      ....   150
   Startup grad/error   SOSCFStart      ....  0.003300
 Level Shifting         CNVShift        .... on
   Level shift para.    LevelShift      ....    0.2500
   Turn off err/grad.   ShiftErr        ....    0.0010
 Zerner damping         CNVZerner       .... off
 Static damping         CNVDamp         .... on
   Fraction old density DampFac         ....    0.7000
   Max. Damping (<1)    DampMax         ....    0.9800
   Min. Damping (>=0)   DampMin         ....    0.0000
   Turn off err/grad.   DampErr         ....    0.1000
 Fernandez-Rico         CNVRico         .... off

SCF Procedure:
 Maximum # iterations   MaxIter         ....   125
 SCF integral mode      SCFMode         .... Direct
   Integral package                     .... LIBINT
 Reset frequency        DirectResetFreq ....    20
 Integral Threshold     Thresh          ....  1.000e-12 Eh
 Primitive CutOff       TCut            ....  1.000e-14 Eh

Convergence Tolerance:
 Convergence Check Mode ConvCheckMode   .... Total+1el-Energy
 Convergence forced     ConvForced      .... 0
 Energy Change          TolE            ....  1.000e-09 Eh
 1-El. energy change                    ....  1.000e-06 Eh
 Orbital Gradient       TolG            ....  2.000e-06
 Orbital Rotation angle TolX            ....  2.000e-06
 DIIS Error             TolErr          ....  1.000e-08


Diagonalization of the overlap matrix:
Smallest eigenvalue                        ... 6.886e-04
Time for diagonalization                   ...    0.002 sec
Threshold for overlap eigenvalues          ... 1.000e-08
Number of eigenvalues below threshold      ... 0
Time for construction of square roots      ...    0.001 sec
Total time needed                          ...    0.004 sec

-------------------
DFT GRID GENERATION
-------------------

General Integration Accuracy     IntAcc      ...  5.010
Radial Grid Type                 RadialGrid  ... Gauss-Chebyshev
Angular Grid (max. acc.)         AngularGrid ... Lebedev-434
Angular grid pruning method      GridPruning ... 3 (G Style)
Weight generation scheme         WeightScheme... Becke
Basis function cutoff            BFCut       ...    1.0000e-12
Integration weight cutoff        WCut        ...    1.0000e-14
Grids for H and He will be reduced by one unit

# of grid points (after initial pruning)     ...  11992 (   0.0 sec)
# of grid points (after weights+screening)   ...  11992 (   0.0 sec)
Grid point division into batches done        ...    0.1 sec
Reduced shell lists constructed in    0.1 sec

Total number of grid points                  ...    11992
Total number of batches                      ...      188
Average number of points per batch           ...       63
Average number of grid points per atom       ...    11992
Average number of shells per batch           ...     1.75 ( 7.00%)
Average number of basis functions per batch  ...     5.25 ( 5.00%)
Average number of large shells per batch     ...     0.92 (52.38%)
Average number of large basis fcns per batch ...     2.75 (52.38%)
Maximum spatial batch extension              ...  18.71, 18.71, 18.71 au
Average spatial batch extension              ...   0.97,  0.98,  0.97 au

Time for grid setup =    0.152 sec

------------------------------
INITIAL GUESS: MODEL POTENTIAL
------------------------------
Loading ZORA relativistic densities                ... done
Calculating cut-offs                               ... done
Setting up the integral package                    ... done
Initializing the effective Hamiltonian             ... done
Starting the Coulomb interaction                   ... done (   0.0 sec)
Reading the grid                                   ... done
Mapping shells                                     ... done
Starting the XC term evaluation                    ... done (   0.0 sec)
  promolecular density results
     # of electrons  =     18.000000116
     EX              =    -28.047870263
     EC              =     -1.433252902
     EX+EC           =    -29.481123164
Transforming the Hamiltonian                       ... done (   0.0 sec)
Diagonalizing the Hamiltonian                      ... done (   0.0 sec)
Back transforming the eigenvectors                 ... done (   0.0 sec)
Now organizing SCF variables                       ... done
                      ------------------
                      INITIAL GUESS DONE (   0.2 sec)
                      ------------------
--------------
SCF ITERATIONS
--------------
ITER       Energy         Delta-E        Max-DP      RMS-DP      [F,P]     Damp
               ***  Starting incremental Fock matrix formation  ***
  0   -314.1225941890   0.000000000000 0.02690679  0.00035519  1.9794060 0.7000
                      *** Initiating the SOSCF procedure ***
                      *** Re-Reading the Fockian *** 
                      *** Removing any level shift *** 
ITER      Energy       Delta-E        Grad      Rot      Max-DP    RMS-DP
  1   -314.12900640  -0.0064122143  0.000958  0.000958  0.063005  0.000832
               *** Restarting incremental Fock matrix formation ***
  2   -314.14387337  -0.0148669715  0.004756  0.000042  0.000459  0.000007
  3   -314.14387386  -0.0000004874  0.000034  0.000000  0.000003  0.000000
                 **** Energy Check signals convergence ****
              ***Rediagonalizing the Fockian in SOSCF/NRSCF***

               *****************************************************
               *                     SUCCESS                       *
               *           SCF CONVERGED AFTER   4 CYCLES          *
               *****************************************************

Setting up the final grid:

General Integration Accuracy     IntAcc      ...  5.340
Radial Grid Type                 RadialGrid  ... Gauss-Chebyshev
Angular Grid (max. acc.)         AngularGrid ... Lebedev-590
Angular grid pruning method      GridPruning ... 3 (G Style)
Weight generation scheme         WeightScheme... Becke
Basis function cutoff            BFCut       ...    1.0000e-12
Integration weight cutoff        WCut        ...    1.0000e-14
Grids for H and He will be reduced by one unit

# of grid points (after initial pruning)     ...  18110 (   0.0 sec)
# of grid points (after weights+screening)   ...  18110 (   0.0 sec)
Grid point division into batches done        ...    0.2 sec
Reduced shell lists constructed in    0.2 sec

Total number of grid points                  ...    18110
Total number of batches                      ...      283
Average number of points per batch           ...       63
Average number of grid points per atom       ...    18110
Average number of shells per batch           ...     0.59 ( 2.35%)
Average number of basis functions per batch  ...     1.76 ( 1.68%)
Average number of large shells per batch     ...     0.59 (100.00%)
Average number of large basis fcns per batch ...     1.76 (100.00%)
Maximum spatial batch extension              ...  19.03, 19.03, 19.03 au
Average spatial batch extension              ...   0.84,  0.84,  0.80 au

Final grid set up in    0.2 sec
Final integration                            ... done (   0.0 sec)
Change in XC energy                          ...    -0.000009317
Integrated number of electrons               ...     1.999999893
Previous integrated no of electrons          ...     1.999999723

----------------
TOTAL SCF ENERGY
----------------

Total Energy       :         -314.14388318 Eh           -8548.28965 eV

Components:
Nuclear Repulsion  :            0.00000000 Eh               0.00000 eV
Electronic Energy  :         -314.14388318 Eh           -8548.28965 eV
One Electron Energy:         -326.45052187 Eh           -8883.17031 eV
Two Electron Energy:           12.30663869 Eh             334.88066 eV

Virial components:
Potential Energy   :         -622.68758320 Eh          -16944.19056 eV
Kinetic Energy     :          308.54370002 Eh            8395.90092 eV
Virial Ratio       :            2.01815037


DFT components:
N(Alpha)           :        0.999999946322 electrons
N(Beta)            :        0.999999946322 electrons
N(Total)           :        1.999999892645 electrons
E(X)               :       -9.427101341542 Eh       
E(C)               :       -0.236872791826 Eh       
E(XC)              :       -9.663974133368 Eh       
DFET-embed. en.    :        0.000000000000 Eh       

---------------
SCF CONVERGENCE
---------------

  Last Energy change         ...   -2.5295e-11  Tolerance :   1.0000e-09
  Last MAX-Density change    ...    0.0000e+00  Tolerance :   1.0000e-08
  Last RMS-Density change    ...    0.0000e+00  Tolerance :   1.0000e-09
  Last Orbital Gradient      ...    2.9797e-10  Tolerance :   2.0000e-06
  Last Orbital Rotation      ...    0.0000e+00  Tolerance :   2.0000e-06

================================================================================
                                        WARNING
Number of found core electrons (2) does not match given number of chemical core electrons (10)
================================================================================
             **** THE GBW FILE WAS UPDATED (Ar_pc-4_137.035989_.gbw) ****
             **** DENSITY FILE WAS UPDATED (Ar_pc-4_137.035989_.scfp) ****
             **** ENERGY FILE WAS UPDATED (Ar_pc-4_137.035989_.en.tmp) ****
             **** THE GBW FILE WAS UPDATED (Ar_pc-4_137.035989_.gbw) ****
             **** DENSITY FILE WAS UPDATED (Ar_pc-4_137.035989_.scfp) ****
----------------
ORBITAL ENERGIES
----------------

  NO   OCC          E(Eh)            E(eV) 
   0   2.0000    -147.667363     -4018.2332 
   1   0.0000     -34.092707      -927.7097 
   2   0.0000     -33.029945      -898.7905 
   3   0.0000     -33.029945      -898.7905 
   4   0.0000     -33.029945      -898.7905 
   5   0.0000     -14.512984      -394.9184 
   6   0.0000     -14.330655      -389.9569 
   7   0.0000     -14.330655      -389.9569 
   8   0.0000     -14.330655      -389.9569 
   9   0.0000     -14.330655      -389.9569 
  10   0.0000     -14.330655      -389.9569 
  11   0.0000     -14.029835      -381.7712 
  12   0.0000     -14.029835      -381.7712 
  13   0.0000     -14.029835      -381.7712 
  14   0.0000      -8.033445      -218.6012 
  15   0.0000      -8.033445      -218.6012 
  16   0.0000      -8.033445      -218.6012 
  17   0.0000      -8.033445      -218.6012 
  18   0.0000      -8.033445      -218.6012 
  19   0.0000      -7.995947      -217.5808 
  20   0.0000      -7.809633      -212.5109 
  21   0.0000      -7.809633      -212.5109 
  22   0.0000      -7.809633      -212.5109 
  23   0.0000      -7.809633      -212.5109 
  24   0.0000      -7.809633      -212.5109 
  25   0.0000      -7.809633      -212.5109 
  26   0.0000      -7.809633      -212.5109 
  27   0.0000      -7.742166      -210.6751 
  28   0.0000      -7.742166      -210.6751 
  29   0.0000      -7.742166      -210.6751 
  30   0.0000      -5.114202      -139.1645 
  31   0.0000      -5.114202      -139.1645 
  32   0.0000      -5.114202      -139.1645 
  33   0.0000      -5.114202      -139.1645 
  34   0.0000      -5.114202      -139.1645 
  35   0.0000      -5.098453      -138.7360 
  36   0.0000      -5.098453      -138.7360 
  37   0.0000      -5.098453      -138.7360 
  38   0.0000      -5.098453      -138.7360 
  39   0.0000      -5.098453      -138.7360 
  40   0.0000      -5.098453      -138.7360 
  41   0.0000      -5.098453      -138.7360 
  42   0.0000      -5.098453      -138.7360 
  43   0.0000      -5.098453      -138.7360 
  44   0.0000      -5.070895      -137.9861 
  45   0.0000      -4.938326      -134.3787 
  46   0.0000      -4.938326      -134.3787 
  47   0.0000      -4.938326      -134.3787 
  48   0.0000      -4.938326      -134.3787 
  49   0.0000      -4.938326      -134.3787 
  50   0.0000      -4.938326      -134.3787 
  51   0.0000      -4.938326      -134.3787 
  52   0.0000      -4.932756      -134.2271 
  53   0.0000      -4.932756      -134.2271 
  54   0.0000      -4.932756      -134.2271 
  55   0.0000      -3.505005       -95.3760 
  56   0.0000      -3.505005       -95.3760 
  57   0.0000      -3.505005       -95.3760 
  58   0.0000      -3.505005       -95.3760 
  59   0.0000      -3.505005       -95.3760 
  60   0.0000      -3.483212       -94.7830 
  61   0.0000      -3.423699       -93.1636 
  62   0.0000      -3.423699       -93.1636 
  63   0.0000      -3.423699       -93.1636 
  64   0.0000      -2.714317       -73.8603 
  65   0.0000      -2.714317       -73.8603 
  66   0.0000      -2.714317       -73.8603 
  67   0.0000      -2.714317       -73.8603 
  68   0.0000      -2.714317       -73.8603 
  69   0.0000      -2.714317       -73.8603 
  70   0.0000      -2.714317       -73.8603 
  71   0.0000      -2.714317       -73.8603 
  72   0.0000      -2.714317       -73.8603 
  73   0.0000      -2.714317       -73.8603 
  74   0.0000      -2.714317       -73.8603 
  75   0.0000      -2.484170       -67.5977 
  76   0.0000      -2.484170       -67.5977 
  77   0.0000      -2.484170       -67.5977 
  78   0.0000      -1.846590       -50.2483 
  79   0.0000      -1.846590       -50.2483 
  80   0.0000      -1.846590       -50.2483 
  81   0.0000      -1.846590       -50.2483 
  82   0.0000      -1.846590       -50.2483 
  83   0.0000      -1.846590       -50.2483 
  84   0.0000      -1.846590       -50.2483 
  85   0.0000      -1.846590       -50.2483 
  86   0.0000      -1.846590       -50.2483 
  87   0.0000      -1.556295       -42.3489 
  88   0.0000      -1.556295       -42.3489 
  89   0.0000      -1.556295       -42.3489 
  90   0.0000      -1.556295       -42.3489 
  91   0.0000      -1.556295       -42.3489 
  92   0.0000      -1.556295       -42.3489 
  93   0.0000      -1.556295       -42.3489 
  94   0.0000       0.625986        17.0339 
  95   0.0000       0.625986        17.0339 
  96   0.0000       0.625986        17.0339 
  97   0.0000       0.625986        17.0339 
  98   0.0000       0.625986        17.0339 
  99   0.0000      29.897956       813.5647 
 100   0.0000      43.256419      1177.0670 
 101   0.0000      43.256419      1177.0670 
 102   0.0000      43.256419      1177.0670 
 103   0.0000      43.256419      1177.0670 
 104   0.0000      43.256419      1177.0670 

                    ********************************
                    * MULLIKEN POPULATION ANALYSIS *
                    ********************************

-----------------------
MULLIKEN ATOMIC CHARGES
-----------------------
   0 Ar:   16.000000
Sum of atomic charges:   16.0000000

--------------------------------
MULLIKEN REDUCED ORBITAL CHARGES
--------------------------------
  0 Ars       :     2.000000  s :     2.000000
      pz      :     0.000000  p :     0.000000
      px      :     0.000000
      py      :     0.000000
      dz2     :     0.000000  d :     0.000000
      dxz     :     0.000000
      dyz     :     0.000000
      dx2y2   :     0.000000
      dxy     :     0.000000
      f0      :     0.000000  f :     0.000000
      f+1     :     0.000000
      f-1     :     0.000000
      f+2     :     0.000000
      f-2     :     0.000000
      f+3     :     0.000000
      f-3     :     0.000000
      g0      :     0.000000  g :     0.000000
      g+1     :     0.000000
      g-1     :     0.000000
      g+2     :     0.000000
      g-2     :     0.000000
      g+3     :     0.000000
      g-3     :     0.000000
      g+4     :     0.000000
      g-4     :     0.000000
      h0      :     0.000000  h :     0.000000
      h+1     :     0.000000
      h-1     :     0.000000
      h+2     :     0.000000
      h-2     :     0.000000
      h+3     :     0.000000
      h-3     :     0.000000
      h+4     :     0.000000
      h-4     :     0.000000
      h+5     :     0.000000
      h-5     :     0.000000


                     *******************************
                     * LOEWDIN POPULATION ANALYSIS *
                     *******************************

----------------------
LOEWDIN ATOMIC CHARGES
----------------------
   0 Ar:   16.000000

-------------------------------
LOEWDIN REDUCED ORBITAL CHARGES
-------------------------------
  0 Ars       :     2.000000  s :     2.000000
      pz      :     0.000000  p :     0.000000
      px      :     0.000000
      py      :     0.000000
      dz2     :     0.000000  d :     0.000000
      dxz     :     0.000000
      dyz     :     0.000000
      dx2y2   :     0.000000
      dxy     :     0.000000
      f0      :     0.000000  f :     0.000000
      f+1     :     0.000000
      f-1     :     0.000000
      f+2     :     0.000000
      f-2     :     0.000000
      f+3     :     0.000000
      f-3     :     0.000000
      g0      :     0.000000  g :     0.000000
      g+1     :     0.000000
      g-1     :     0.000000
      g+2     :     0.000000
      g-2     :     0.000000
      g+3     :     0.000000
      g-3     :     0.000000
      g+4     :     0.000000
      g-4     :     0.000000
      h0      :     0.000000  h :     0.000000
      h+1     :     0.000000
      h-1     :     0.000000
      h+2     :     0.000000
      h-2     :     0.000000
      h+3     :     0.000000
      h-3     :     0.000000
      h+4     :     0.000000
      h-4     :     0.000000
      h+5     :     0.000000
      h-5     :     0.000000


                      *****************************
                      * MAYER POPULATION ANALYSIS *
                      *****************************

  NA   - Mulliken gross atomic population
  ZA   - Total nuclear charge
  QA   - Mulliken gross atomic charge
  VA   - Mayer's total valence
  BVA  - Mayer's bonded valence
  FA   - Mayer's free valence

  ATOM       NA         ZA         QA         VA         BVA        FA
  0 Ar     2.0000    18.0000    16.0000    -0.0000     0.0000    -0.0000

  Mayer bond orders larger than 0.100000


--------------------------
ATOM BASIS FOR ELEMENT Ar
--------------------------
 NewGTO Ar
 S 43
    1    9445100.000000000000         0.000001301953
    2    1414100.000000000000         0.000010127510
    3     321810.000000000000         0.000053281292
    4      91158.000000000000         0.000225140722
    5      29743.000000000000         0.000820707343
    6      10740.000000000000         0.002677746079
    7       4190.000000000000         0.007979115937
    8       1738.900000000000         0.021856154225
    9        759.290000000000         0.054643403535
   10        345.500000000000         0.121753043982
   11        162.360000000000         0.228380011608
   12         78.888000000000         0.318436300213
   13         39.321000000000         0.279665418144
   14         19.918000000000         0.111956706422
   15          9.576400000000         0.010336956970
   16      29743.000000000000        -0.000000037425
   17      10740.000000000000        -0.000000026892
   18       4190.000000000000        -0.000001573262
   19       1738.900000000000        -0.000006827289
   20        759.290000000000        -0.000051795498
   21        345.500000000000        -0.000224362264
   22        162.360000000000        -0.001029512914
   23         78.888000000000        -0.002772077564
   24         39.321000000000        -0.005946464462
   25         19.918000000000        -0.000706335497
   26          9.576400000000         0.013365314594
   27          4.916100000000         0.024419179189
   28      10740.000000000000         0.000000161456
   29       4190.000000000000         0.000001211054
   30       1738.900000000000         0.000008092336
   31        759.290000000000         0.000046686986
   32        345.500000000000         0.000229884048
   33        162.360000000000         0.000971350562
   34         78.888000000000         0.002808801397
   35         39.321000000000         0.005734714385
   36         19.918000000000         0.001391788681
   37          9.576400000000        -0.016337066952
   38          4.916100000000        -0.033249932560
   39          2.464800000000        -0.022878424956
   40          1.183000000000         0.048309775638
   41          0.575210000000        -0.043713473273
   42          0.270410000000         0.023207437287
   43          0.123120000000        -0.006420926967
 S 43
    1    9445100.000000000000         0.000000333714
    2    1414100.000000000000         0.000002595865
    3     321810.000000000000         0.000013656963
    4      91158.000000000000         0.000057707657
    5      29743.000000000000         0.000210362201
    6      10740.000000000000         0.000686354965
    7       4190.000000000000         0.002045192367
    8       1738.900000000000         0.005602129375
    9        759.290000000000         0.014006097000
   10        345.500000000000         0.031207516987
   11        162.360000000000         0.058537945817
   12         78.888000000000         0.081621008585
   13         39.321000000000         0.071683327183
   14         19.918000000000         0.028696537706
   15          9.576400000000         0.002649549857
   16      29743.000000000000         0.000000450305
   17      10740.000000000000         0.000000323567
   18       4190.000000000000         0.000018929927
   19       1738.900000000000         0.000082147836
   20        759.290000000000         0.000623217793
   21        345.500000000000         0.002699588957
   22        162.360000000000         0.012387384777
   23         78.888000000000         0.033354405709
   24         39.321000000000         0.071549508866
   25         19.918000000000         0.008498824512
   26          9.576400000000        -0.160815170278
   27          4.916100000000        -0.293818333398
   28      10740.000000000000         0.000001948447
   29       4190.000000000000         0.000014614935
   30       1738.900000000000         0.000097657882
   31        759.290000000000         0.000563416082
   32        345.500000000000         0.002774228537
   33        162.360000000000         0.011722207250
   34         78.888000000000         0.033896466827
   35         39.321000000000         0.069206230146
   36         19.918000000000         0.016796032253
   37          9.576400000000        -0.197154860642
   38          4.916100000000        -0.401258429037
   39          2.464800000000        -0.276095623357
   40          1.183000000000         0.355017438303
   41          0.575210000000        -0.315341949921
   42          0.270410000000         0.165837124714
   43          0.123120000000        -0.045650610854
 S 43
    1    9445100.000000000000         0.000000087895
    2    1414100.000000000000         0.000000683712
    3     321810.000000000000         0.000003597040
    4      91158.000000000000         0.000015199334
    5      29743.000000000000         0.000055406258
    6      10740.000000000000         0.000180775633
    7       4190.000000000000         0.000538673082
    8       1738.900000000000         0.001475517093
    9        759.290000000000         0.003688996478
   10        345.500000000000         0.008219593242
   11        162.360000000000         0.015418019449
   12         78.888000000000         0.021497752957
   13         39.321000000000         0.018880316302
   14         19.918000000000         0.007558238853
   15          9.576400000000         0.000697851806
   16      29743.000000000000        -0.000000141978
   17      10740.000000000000        -0.000000102018
   18       4190.000000000000        -0.000005968459
   19       1738.900000000000        -0.000025900575
   20        759.290000000000        -0.000196495733
   21        345.500000000000        -0.000851159446
   22        162.360000000000        -0.003905646280
   23         78.888000000000        -0.010516385252
   24         39.321000000000        -0.022559004840
   25         19.918000000000        -0.002679613408
   26          9.576400000000         0.050703775081
   27          4.916100000000         0.092638640158
   28      10740.000000000000         0.000003587302
   29       4190.000000000000         0.000026907682
   30       1738.900000000000         0.000179798762
   31        759.290000000000         0.001037310171
   32        345.500000000000         0.005107655901
   33        162.360000000000         0.021581856085
   34         78.888000000000         0.062407075153
   35         39.321000000000         0.127416182573
   36         19.918000000000         0.030923318717
   37          9.576400000000        -0.362983501131
   38          4.916100000000        -0.738760327572
   39          2.464800000000        -0.508322014922
   40          1.183000000000         2.437766347192
   41          0.575210000000        -1.111165657038
   42          0.270410000000         0.564151548372
   43          0.123120000000        -0.150834215265
 S 43
    1    9445100.000000000000         0.000000032603
    2    1414100.000000000000         0.000000253607
    3     321810.000000000000         0.000001334239
    4      91158.000000000000         0.000005637844
    5      29743.000000000000         0.000020551678
    6      10740.000000000000         0.000067054567
    7       4190.000000000000         0.000199808400
    8       1738.900000000000         0.000547309157
    9        759.290000000000         0.001368348466
   10        345.500000000000         0.003048869218
   11        162.360000000000         0.005718959992
   12         78.888000000000         0.007974097418
   13         39.321000000000         0.007003219442
   14         19.918000000000         0.002803555006
   15          9.576400000000         0.000258852090
   16      29743.000000000000        -0.000000279585
   17      10740.000000000000        -0.000000200896
   18       4190.000000000000        -0.000011753206
   19       1738.900000000000        -0.000051003916
   20        759.290000000000        -0.000386943218
   21        345.500000000000        -0.001676119726
   22        162.360000000000        -0.007691074571
   23         78.888000000000        -0.020709070252
   24         39.321000000000        -0.044423630825
   25         19.918000000000        -0.005276746809
   26          9.576400000000         0.099846859451
   27          4.916100000000         0.182425810875
   28      10740.000000000000         0.000003169603
   29       4190.000000000000         0.000023774599
   30       1738.900000000000         0.000158863309
   31        759.290000000000         0.000916527592
   32        345.500000000000         0.004512929398
   33        162.360000000000         0.019068902580
   34         78.888000000000         0.055140504678
   35         39.321000000000         0.112580065544
   36         19.918000000000         0.027322661672
   37          9.576400000000        -0.320718338312
   38          4.916100000000        -0.652740369551
   39          2.464800000000        -0.449133890232
   40          1.183000000000         3.770938435512
   41          0.575210000000        -3.656595629444
   42          0.270410000000         0.590445439003
   43          0.123120000000        -0.191745496742
 S 43
    1    9445100.000000000000         0.000000016703
    2    1414100.000000000000         0.000000129927
    3     321810.000000000000         0.000000683554
    4      91158.000000000000         0.000002888364
    5      29743.000000000000         0.000010528977
    6      10740.000000000000         0.000034353204
    7       4190.000000000000         0.000102365268
    8       1738.900000000000         0.000280395861
    9        759.290000000000         0.000701028371
   10        345.500000000000         0.001561987954
   11        162.360000000000         0.002929921220
   12         78.888000000000         0.004085266773
   13         39.321000000000         0.003587869347
   14         19.918000000000         0.001436309279
   15          9.576400000000         0.000132614362
   16      29743.000000000000        -0.000000280980
   17      10740.000000000000        -0.000000201898
   18       4190.000000000000        -0.000011811827
   19       1738.900000000000        -0.000051258308
   20        759.290000000000        -0.000388873172
   21        345.500000000000        -0.001684479700
   22        162.360000000000        -0.007729435305
   23         78.888000000000        -0.020812360777
   24         39.321000000000        -0.044645202345
   25         19.918000000000        -0.005303065612
   26          9.576400000000         0.100344865129
   27          4.916100000000         0.183335695173
   28      10740.000000000000         0.000002526469
   29       4190.000000000000         0.000018950572
   30       1738.900000000000         0.000126628870
   31        759.290000000000         0.000730557950
   32        345.500000000000         0.003597225524
   33        162.360000000000         0.015199693374
   34         78.888000000000         0.043952123626
   35         39.321000000000         0.089736809402
   36         19.918000000000         0.021778708966
   37          9.576400000000        -0.255642419978
   38          4.916100000000        -0.520294937195
   39          2.464800000000        -0.358001588550
   40          1.183000000000         4.059720211048
   41          0.575210000000        -6.714226169316
   42          0.270410000000         3.905035617619
   43          0.123120000000        -0.096904050542
 S 43
    1    9445100.000000000000        -0.000000007467
    2    1414100.000000000000        -0.000000058080
    3     321810.000000000000        -0.000000305561
    4      91158.000000000000        -0.000001291151
    5      29743.000000000000        -0.000004706642
    6      10740.000000000000        -0.000015356501
    7       4190.000000000000        -0.000045759119
    8       1738.900000000000        -0.000125342000
    9        759.290000000000        -0.000313372308
   10        345.500000000000        -0.000698236749
   11        162.360000000000        -0.001309727557
   12         78.888000000000        -0.001826187829
   13         39.321000000000        -0.001603842220
   14         19.918000000000        -0.000642056118
   15          9.576400000000        -0.000059281008
   16      29743.000000000000         0.000000192533
   17      10740.000000000000         0.000000138345
   18       4190.000000000000         0.000008093726
   19       1738.900000000000         0.000035123330
   20        759.290000000000         0.000266464529
   21        345.500000000000         0.001154242877
   22        162.360000000000         0.005296380623
   23         78.888000000000         0.014261091528
   24         39.321000000000         0.030591883533
   25         19.918000000000         0.003633778257
   26          9.576400000000        -0.068758528708
   27          4.916100000000        -0.125625687408
   28      10740.000000000000        -0.000001705292
   29       4190.000000000000        -0.000012791077
   30       1738.900000000000        -0.000085470747
   31        759.290000000000        -0.000493105039
   32        345.500000000000        -0.002428020986
   33        162.360000000000        -0.010259344110
   34         78.888000000000        -0.029666385338
   35         39.321000000000        -0.060569696004
   36         19.918000000000        -0.014699985326
   37          9.576400000000         0.172551083184
   38          4.916100000000         0.351183715894
   39          2.464800000000         0.241640498831
   40          1.183000000000        -3.336168582662
   41          0.575210000000         7.380592961989
   42          0.270410000000        -8.034521983011
   43          0.123120000000         3.892925564394
 S 43
    1    9445100.000000000000        -0.000001865504
    2    1414100.000000000000        -0.000014511209
    3     321810.000000000000        -0.000076344135
    4      91158.000000000000        -0.000322593035
    5      29743.000000000000        -0.001175951070
    6      10740.000000000000        -0.003836810274
    7       4190.000000000000        -0.011432881647
    8       1738.900000000000        -0.031316605308
    9        759.290000000000        -0.078295837574
   10        345.500000000000        -0.174453931108
   11        162.360000000000        -0.327234453517
   12         78.888000000000        -0.456271667326
   13         39.321000000000        -0.400718782828
   14         19.918000000000        -0.160417242234
   15          9.576400000000        -0.014811315759
   16      29743.000000000000         0.000023107638
   17      10740.000000000000         0.000016603995
   18       4190.000000000000         0.000971399429
   19       1738.900000000000         0.004215460475
   20        759.290000000000         0.031980756976
   21        345.500000000000         0.138530862407
   22        162.360000000000         0.635665326552
   23         78.888000000000         1.711599306807
   24         39.321000000000         3.671601612300
   25         19.918000000000         0.436121760667
   26          9.576400000000        -8.252317141439
   27          4.916100000000       -15.077446144979
   28      10740.000000000000        -0.000064619170
   29       4190.000000000000        -0.000484696352
   30       1738.900000000000        -0.003238770349
   31        759.290000000000        -0.018685386890
   32        345.500000000000        -0.092005775422
   33        162.360000000000        -0.388760606161
   34         78.888000000000        -1.124157823596
   35         39.321000000000        -2.295186854055
   36         19.918000000000        -0.557031243366
   37          9.576400000000         6.538533357501
   38          4.916100000000        13.307516815416
   39          2.464800000000         9.156560671654
   40          1.183000000000       -12.591285191251
   41          0.575210000000        10.128540473617
   42          0.270410000000        -5.126906321011
   43          0.123120000000         1.390651995094
 P 26
    1      13006.000000000000         0.000019222712
    2       3078.100000000000         0.000171624090
    3        999.560000000000         0.001000607963
    4        380.970000000000         0.004554248932
    5        160.280000000000         0.016777857487
    6         74.494000000000         0.048255800042
    7         36.065000000000         0.120146371913
    8         18.164000000000         0.230907828814
    9          9.466500000000         0.323850330682
   10          5.163000000000         0.319007502248
   11          2.808500000000         0.208703792144
   12       3078.100000000000        -0.000001250671
   13        999.560000000000         0.000000829002
   14        380.970000000000        -0.000020597098
   15        160.280000000000         0.000115925028
   16         74.494000000000         0.000249390119
   17         36.065000000000         0.003790305152
   18         18.164000000000         0.007487873910
   19          9.466500000000         0.034727147652
   20          5.163000000000        -0.000753415137
   21          2.808500000000        -0.000545121213
   22          1.523500000000        -0.386412223142
   23          0.743790000000         0.357568313421
   24          0.356800000000        -0.226218324386
   25          0.162210000000         0.102619688586
   26          0.069956000000        -0.028809001405
 P 26
    1      13006.000000000000         0.000006599701
    2       3078.100000000000         0.000058923410
    3        999.560000000000         0.000343537045
    4        380.970000000000         0.001563602609
    5        160.280000000000         0.005760313530
    6         74.494000000000         0.016567582489
    7         36.065000000000         0.041249651351
    8         18.164000000000         0.079277195651
    9          9.466500000000         0.111186988155
   10          5.163000000000         0.109524308031
   11          2.808500000000         0.071653921168
   12       3078.100000000000        -0.000005061640
   13        999.560000000000         0.000003355085
   14        380.970000000000        -0.000083359325
   15        160.280000000000         0.000469164745
   16         74.494000000000         0.001009316571
   17         36.065000000000         0.015339893212
   18         18.164000000000         0.030304469317
   19          9.466500000000         0.140545606548
   20          5.163000000000        -0.003049176063
   21          2.808500000000        -0.002206181525
   22          1.523500000000        -1.563864122190
   23          0.743790000000         0.716772748062
   24          0.356800000000        -0.479919456030
   25          0.162210000000         0.215219075877
   26          0.069956000000        -0.059832544315
 P 26
    1      13006.000000000000        -0.000001762577
    2       3078.100000000000        -0.000015736625
    3        999.560000000000        -0.000091748148
    4        380.970000000000        -0.000417590024
    5        160.280000000000        -0.001538402055
    6         74.494000000000        -0.004424690221
    7         36.065000000000        -0.011016509445
    8         18.164000000000        -0.021172493489
    9          9.466500000000        -0.029694614743
   10          5.163000000000        -0.029250564171
   11          2.808500000000        -0.019136552030
   12       3078.100000000000         0.000005724088
   13        999.560000000000        -0.000003794186
   14        380.970000000000         0.000094269085
   15        160.280000000000        -0.000530567290
   16         74.494000000000        -0.001141412187
   17         36.065000000000        -0.017347521640
   18         18.164000000000        -0.034270606060
   19          9.466500000000        -0.158939695167
   20          5.163000000000         0.003448240937
   21          2.808500000000         0.002494918394
   22          1.523500000000         1.768536868341
   23          0.743790000000        -2.091692856440
   24          0.356800000000         0.183621935902
   25          0.162210000000        -0.188549217519
   26          0.069956000000         0.053966457546
 P 26
    1      13006.000000000000        -0.000000024168
    2       3078.100000000000        -0.000000215780
    3        999.560000000000        -0.000001258047
    4        380.970000000000        -0.000005725980
    5        160.280000000000        -0.000021094514
    6         74.494000000000        -0.000060671195
    7         36.065000000000        -0.000151057985
    8         18.164000000000        -0.000290316477
    9          9.466500000000        -0.000407171500
   10          5.163000000000        -0.000401082694
   11          2.808500000000        -0.000262399720
   12       3078.100000000000         0.000005404561
   13        999.560000000000        -0.000003582389
   14        380.970000000000         0.000089006845
   15        160.280000000000        -0.000500950241
   16         74.494000000000        -0.001077696875
   17         36.065000000000        -0.016379157395
   18         18.164000000000        -0.032357570282
   19          9.466500000000        -0.150067446953
   20          5.163000000000         0.003255755042
   21          2.808500000000         0.002355648370
   22          1.523500000000         1.669814531835
   23          0.743790000000        -3.323773616709
   24          0.356800000000         2.023177360932
   25          0.162210000000         0.288427804458
   26          0.069956000000        -0.006708685594
 P 26
    1      13006.000000000000        -0.000000585832
    2       3078.100000000000        -0.000005230423
    3        999.560000000000        -0.000030494572
    4        380.970000000000        -0.000138795489
    5        160.280000000000        -0.000511322718
    6         74.494000000000        -0.001470645871
    7         36.065000000000        -0.003661586081
    8         18.164000000000        -0.007037157083
    9          9.466500000000        -0.009869676832
   10          5.163000000000        -0.009722086580
   11          2.808500000000        -0.006360465891
   12       3078.100000000000        -0.000004732348
   13        999.560000000000         0.000003136816
   14        380.970000000000        -0.000077936277
   15        160.280000000000         0.000438642632
   16         74.494000000000         0.000943654190
   17         36.065000000000         0.014341936826
   18         18.164000000000         0.028332973279
   19          9.466500000000         0.131402232232
   20          5.163000000000        -0.002850808012
   21          2.808500000000        -0.002062655562
   22          1.523500000000        -1.462124940157
   23          0.743790000000         3.836137972741
   24          0.356800000000        -4.525639452379
   25          0.162210000000         2.380151753308
   26          0.069956000000         0.101752259116
 P 26
    1      13006.000000000000        -0.000000538179
    2       3078.100000000000        -0.000004804967
    3        999.560000000000        -0.000028014065
    4        380.970000000000        -0.000127505509
    5        160.280000000000        -0.000469730420
    6         74.494000000000        -0.001351019772
    7         36.065000000000        -0.003363743299
    8         18.164000000000        -0.006464736717
    9          9.466500000000        -0.009066852061
   10          5.163000000000        -0.008931267179
   11          2.808500000000        -0.005843089318
   12       3078.100000000000        -0.000003062968
   13        999.560000000000         0.000002030275
   14        380.970000000000        -0.000050443525
   15        160.280000000000         0.000283907332
   16         74.494000000000         0.000610771328
   17         36.065000000000         0.009282684161
   18         18.164000000000         0.018338251346
   19          9.466500000000         0.085048862975
   20          5.163000000000        -0.001845158761
   21          2.808500000000        -0.001335034476
   22          1.523500000000        -0.946346660754
   23          0.743790000000         2.822474265147
   24          0.356800000000        -4.346536040417
   25          0.162210000000         4.342902184262
   26          0.069956000000        -2.410383097062
 D 6
    1         26.330000000000         0.065129132616
    2          7.530000000000         0.413533884697
    3          2.600000000000         0.627566426083
    4          0.930000000000         0.065895645623
    5          0.410000000000        -0.000896633917
    6          0.170000000000        -0.000965041178
 D 6
    1         26.330000000000         0.049830789665
    2          7.530000000000         0.367894162669
    3          2.600000000000         0.259911197811
    4          0.930000000000        -1.013125264804
    5          0.410000000000        -0.072326062969
    6          0.170000000000        -0.012876190649
 D 6
    1         26.330000000000         0.036724566155
    2          7.530000000000         0.297868534451
    3          2.600000000000         0.041277849462
    4          0.930000000000        -1.185638681462
    5          0.410000000000         1.414054291640
    6          0.170000000000         0.085348195321
 D 6
    1         26.330000000000         0.024876085880
    2          7.530000000000         0.220072525414
    3          2.600000000000        -0.070026105068
    4          0.930000000000        -0.816289576527
    5          0.410000000000         1.817656495003
    6          0.170000000000        -1.617102154267
 D 6
    1         26.330000000000         0.098909350290
    2          7.530000000000         1.106420209546
    3          2.600000000000        -1.866678883663
    4          0.930000000000         1.955731864722
    5          0.410000000000        -1.442170301879
    6          0.170000000000         0.548936153866
 D 6
    1         26.330000000000         1.235119996297
    2          7.530000000000        -1.135811062661
    3          2.600000000000         0.767358218757
    4          0.930000000000        -0.504479612570
    5          0.410000000000         0.303182491712
    6          0.170000000000        -0.101570996598
 F 3
    1          4.530000000000         0.341017376622
    2          1.060000000000         0.858275424443
    3          0.440000000000        -0.042890082555
 F 3
    1          4.530000000000         0.329130051371
    2          1.060000000000         0.450551497037
    3          0.440000000000        -1.153757132663
 F 3
    1          4.530000000000         0.973355484441
    2          1.060000000000        -1.051330992220
    3          0.440000000000         0.703099191234
 G 2
    1          2.180000000000         0.304763973663
    2          0.730000000000         0.823491313201
 G 2
    1          2.180000000000         1.081628867708
    2          0.730000000000        -0.764633339703
 H 1
    1          1.120000000000         1.000000000000
 end
  // -----------------------------------------------
  // The basis set
  // -----------------------------------------------
  BAS[ATNO] = new BFNGauss[NSH];
  // Basis function   1 L = s
  InitBFNGauss(BAS[ATNO][  0]);
  BAS[ATNO][  0].l  = 0;
  BAS[ATNO][  0].ng = 43;
  BAS[ATNO][  0].a[  0] =   9445100.000000000000;     BAS[ATNO][  0].d[  0] =         0.000001301953;
  BAS[ATNO][  0].a[  1] =   1414100.000000000000;     BAS[ATNO][  0].d[  1] =         0.000010127510;
  BAS[ATNO][  0].a[  2] =    321810.000000000000;     BAS[ATNO][  0].d[  2] =         0.000053281292;
  BAS[ATNO][  0].a[  3] =     91158.000000000000;     BAS[ATNO][  0].d[  3] =         0.000225140722;
  BAS[ATNO][  0].a[  4] =     29743.000000000000;     BAS[ATNO][  0].d[  4] =         0.000820707343;
  BAS[ATNO][  0].a[  5] =     10740.000000000000;     BAS[ATNO][  0].d[  5] =         0.002677746079;
  BAS[ATNO][  0].a[  6] =      4190.000000000000;     BAS[ATNO][  0].d[  6] =         0.007979115937;
  BAS[ATNO][  0].a[  7] =      1738.900000000000;     BAS[ATNO][  0].d[  7] =         0.021856154225;
  BAS[ATNO][  0].a[  8] =       759.290000000000;     BAS[ATNO][  0].d[  8] =         0.054643403535;
  BAS[ATNO][  0].a[  9] =       345.500000000000;     BAS[ATNO][  0].d[  9] =         0.121753043982;
  BAS[ATNO][  0].a[ 10] =       162.360000000000;     BAS[ATNO][  0].d[ 10] =         0.228380011608;
  BAS[ATNO][  0].a[ 11] =        78.888000000000;     BAS[ATNO][  0].d[ 11] =         0.318436300213;
  BAS[ATNO][  0].a[ 12] =        39.321000000000;     BAS[ATNO][  0].d[ 12] =         0.279665418144;
  BAS[ATNO][  0].a[ 13] =        19.918000000000;     BAS[ATNO][  0].d[ 13] =         0.111956706422;
  BAS[ATNO][  0].a[ 14] =         9.576400000000;     BAS[ATNO][  0].d[ 14] =         0.010336956970;
  BAS[ATNO][  0].a[ 15] =     29743.000000000000;     BAS[ATNO][  0].d[ 15] =        -0.000000037425;
  BAS[ATNO][  0].a[ 16] =     10740.000000000000;     BAS[ATNO][  0].d[ 16] =        -0.000000026892;
  BAS[ATNO][  0].a[ 17] =      4190.000000000000;     BAS[ATNO][  0].d[ 17] =        -0.000001573262;
  BAS[ATNO][  0].a[ 18] =      1738.900000000000;     BAS[ATNO][  0].d[ 18] =        -0.000006827289;
  BAS[ATNO][  0].a[ 19] =       759.290000000000;     BAS[ATNO][  0].d[ 19] =        -0.000051795498;
  BAS[ATNO][  0].a[ 20] =       345.500000000000;     BAS[ATNO][  0].d[ 20] =        -0.000224362264;
  BAS[ATNO][  0].a[ 21] =       162.360000000000;     BAS[ATNO][  0].d[ 21] =        -0.001029512914;
  BAS[ATNO][  0].a[ 22] =        78.888000000000;     BAS[ATNO][  0].d[ 22] =        -0.002772077564;
  BAS[ATNO][  0].a[ 23] =        39.321000000000;     BAS[ATNO][  0].d[ 23] =        -0.005946464462;
  BAS[ATNO][  0].a[ 24] =        19.918000000000;     BAS[ATNO][  0].d[ 24] =        -0.000706335497;
  BAS[ATNO][  0].a[ 25] =         9.576400000000;     BAS[ATNO][  0].d[ 25] =         0.013365314594;
  BAS[ATNO][  0].a[ 26] =         4.916100000000;     BAS[ATNO][  0].d[ 26] =         0.024419179189;
  BAS[ATNO][  0].a[ 27] =     10740.000000000000;     BAS[ATNO][  0].d[ 27] =         0.000000161456;
  BAS[ATNO][  0].a[ 28] =      4190.000000000000;     BAS[ATNO][  0].d[ 28] =         0.000001211054;
  BAS[ATNO][  0].a[ 29] =      1738.900000000000;     BAS[ATNO][  0].d[ 29] =         0.000008092336;
  BAS[ATNO][  0].a[ 30] =       759.290000000000;     BAS[ATNO][  0].d[ 30] =         0.000046686986;
  BAS[ATNO][  0].a[ 31] =       345.500000000000;     BAS[ATNO][  0].d[ 31] =         0.000229884048;
  BAS[ATNO][  0].a[ 32] =       162.360000000000;     BAS[ATNO][  0].d[ 32] =         0.000971350562;
  BAS[ATNO][  0].a[ 33] =        78.888000000000;     BAS[ATNO][  0].d[ 33] =         0.002808801397;
  BAS[ATNO][  0].a[ 34] =        39.321000000000;     BAS[ATNO][  0].d[ 34] =         0.005734714385;
  BAS[ATNO][  0].a[ 35] =        19.918000000000;     BAS[ATNO][  0].d[ 35] =         0.001391788681;
  BAS[ATNO][  0].a[ 36] =         9.576400000000;     BAS[ATNO][  0].d[ 36] =        -0.016337066952;
  BAS[ATNO][  0].a[ 37] =         4.916100000000;     BAS[ATNO][  0].d[ 37] =        -0.033249932560;
  BAS[ATNO][  0].a[ 38] =         2.464800000000;     BAS[ATNO][  0].d[ 38] =        -0.022878424956;
  BAS[ATNO][  0].a[ 39] =         1.183000000000;     BAS[ATNO][  0].d[ 39] =         0.048309775638;
  BAS[ATNO][  0].a[ 40] =         0.575210000000;     BAS[ATNO][  0].d[ 40] =        -0.043713473273;
  BAS[ATNO][  0].a[ 41] =         0.270410000000;     BAS[ATNO][  0].d[ 41] =         0.023207437287;
  BAS[ATNO][  0].a[ 42] =         0.123120000000;     BAS[ATNO][  0].d[ 42] =        -0.006420926967;

  // Basis function   2 L = s
  InitBFNGauss(BAS[ATNO][  1]);
  BAS[ATNO][  1].l  = 0;
  BAS[ATNO][  1].ng = 43;
  BAS[ATNO][  1].a[  0] =   9445100.000000000000;     BAS[ATNO][  1].d[  0] =        -0.000000333714;
  BAS[ATNO][  1].a[  1] =   1414100.000000000000;     BAS[ATNO][  1].d[  1] =        -0.000002595865;
  BAS[ATNO][  1].a[  2] =    321810.000000000000;     BAS[ATNO][  1].d[  2] =        -0.000013656963;
  BAS[ATNO][  1].a[  3] =     91158.000000000000;     BAS[ATNO][  1].d[  3] =        -0.000057707657;
  BAS[ATNO][  1].a[  4] =     29743.000000000000;     BAS[ATNO][  1].d[  4] =        -0.000210362201;
  BAS[ATNO][  1].a[  5] =     10740.000000000000;     BAS[ATNO][  1].d[  5] =        -0.000686354965;
  BAS[ATNO][  1].a[  6] =      4190.000000000000;     BAS[ATNO][  1].d[  6] =        -0.002045192367;
  BAS[ATNO][  1].a[  7] =      1738.900000000000;     BAS[ATNO][  1].d[  7] =        -0.005602129375;
  BAS[ATNO][  1].a[  8] =       759.290000000000;     BAS[ATNO][  1].d[  8] =        -0.014006097000;
  BAS[ATNO][  1].a[  9] =       345.500000000000;     BAS[ATNO][  1].d[  9] =        -0.031207516987;
  BAS[ATNO][  1].a[ 10] =       162.360000000000;     BAS[ATNO][  1].d[ 10] =        -0.058537945817;
  BAS[ATNO][  1].a[ 11] =        78.888000000000;     BAS[ATNO][  1].d[ 11] =        -0.081621008585;
  BAS[ATNO][  1].a[ 12] =        39.321000000000;     BAS[ATNO][  1].d[ 12] =        -0.071683327183;
  BAS[ATNO][  1].a[ 13] =        19.918000000000;     BAS[ATNO][  1].d[ 13] =        -0.028696537706;
  BAS[ATNO][  1].a[ 14] =         9.576400000000;     BAS[ATNO][  1].d[ 14] =        -0.002649549857;
  BAS[ATNO][  1].a[ 15] =     29743.000000000000;     BAS[ATNO][  1].d[ 15] =        -0.000000450305;
  BAS[ATNO][  1].a[ 16] =     10740.000000000000;     BAS[ATNO][  1].d[ 16] =        -0.000000323567;
  BAS[ATNO][  1].a[ 17] =      4190.000000000000;     BAS[ATNO][  1].d[ 17] =        -0.000018929927;
  BAS[ATNO][  1].a[ 18] =      1738.900000000000;     BAS[ATNO][  1].d[ 18] =        -0.000082147836;
  BAS[ATNO][  1].a[ 19] =       759.290000000000;     BAS[ATNO][  1].d[ 19] =        -0.000623217793;
  BAS[ATNO][  1].a[ 20] =       345.500000000000;     BAS[ATNO][  1].d[ 20] =        -0.002699588957;
  BAS[ATNO][  1].a[ 21] =       162.360000000000;     BAS[ATNO][  1].d[ 21] =        -0.012387384777;
  BAS[ATNO][  1].a[ 22] =        78.888000000000;     BAS[ATNO][  1].d[ 22] =        -0.033354405709;
  BAS[ATNO][  1].a[ 23] =        39.321000000000;     BAS[ATNO][  1].d[ 23] =        -0.071549508866;
  BAS[ATNO][  1].a[ 24] =        19.918000000000;     BAS[ATNO][  1].d[ 24] =        -0.008498824512;
  BAS[ATNO][  1].a[ 25] =         9.576400000000;     BAS[ATNO][  1].d[ 25] =         0.160815170278;
  BAS[ATNO][  1].a[ 26] =         4.916100000000;     BAS[ATNO][  1].d[ 26] =         0.293818333398;
  BAS[ATNO][  1].a[ 27] =     10740.000000000000;     BAS[ATNO][  1].d[ 27] =        -0.000001948447;
  BAS[ATNO][  1].a[ 28] =      4190.000000000000;     BAS[ATNO][  1].d[ 28] =        -0.000014614935;
  BAS[ATNO][  1].a[ 29] =      1738.900000000000;     BAS[ATNO][  1].d[ 29] =        -0.000097657882;
  BAS[ATNO][  1].a[ 30] =       759.290000000000;     BAS[ATNO][  1].d[ 30] =        -0.000563416082;
  BAS[ATNO][  1].a[ 31] =       345.500000000000;     BAS[ATNO][  1].d[ 31] =        -0.002774228537;
  BAS[ATNO][  1].a[ 32] =       162.360000000000;     BAS[ATNO][  1].d[ 32] =        -0.011722207250;
  BAS[ATNO][  1].a[ 33] =        78.888000000000;     BAS[ATNO][  1].d[ 33] =        -0.033896466827;
  BAS[ATNO][  1].a[ 34] =        39.321000000000;     BAS[ATNO][  1].d[ 34] =        -0.069206230146;
  BAS[ATNO][  1].a[ 35] =        19.918000000000;     BAS[ATNO][  1].d[ 35] =        -0.016796032253;
  BAS[ATNO][  1].a[ 36] =         9.576400000000;     BAS[ATNO][  1].d[ 36] =         0.197154860642;
  BAS[ATNO][  1].a[ 37] =         4.916100000000;     BAS[ATNO][  1].d[ 37] =         0.401258429037;
  BAS[ATNO][  1].a[ 38] =         2.464800000000;     BAS[ATNO][  1].d[ 38] =         0.276095623357;
  BAS[ATNO][  1].a[ 39] =         1.183000000000;     BAS[ATNO][  1].d[ 39] =        -0.355017438303;
  BAS[ATNO][  1].a[ 40] =         0.575210000000;     BAS[ATNO][  1].d[ 40] =         0.315341949921;
  BAS[ATNO][  1].a[ 41] =         0.270410000000;     BAS[ATNO][  1].d[ 41] =        -0.165837124714;
  BAS[ATNO][  1].a[ 42] =         0.123120000000;     BAS[ATNO][  1].d[ 42] =         0.045650610854;

  // Basis function   3 L = s
  InitBFNGauss(BAS[ATNO][  2]);
  BAS[ATNO][  2].l  = 0;
  BAS[ATNO][  2].ng = 43;
  BAS[ATNO][  2].a[  0] =   9445100.000000000000;     BAS[ATNO][  2].d[  0] =         0.000000087895;
  BAS[ATNO][  2].a[  1] =   1414100.000000000000;     BAS[ATNO][  2].d[  1] =         0.000000683712;
  BAS[ATNO][  2].a[  2] =    321810.000000000000;     BAS[ATNO][  2].d[  2] =         0.000003597040;
  BAS[ATNO][  2].a[  3] =     91158.000000000000;     BAS[ATNO][  2].d[  3] =         0.000015199334;
  BAS[ATNO][  2].a[  4] =     29743.000000000000;     BAS[ATNO][  2].d[  4] =         0.000055406258;
  BAS[ATNO][  2].a[  5] =     10740.000000000000;     BAS[ATNO][  2].d[  5] =         0.000180775633;
  BAS[ATNO][  2].a[  6] =      4190.000000000000;     BAS[ATNO][  2].d[  6] =         0.000538673082;
  BAS[ATNO][  2].a[  7] =      1738.900000000000;     BAS[ATNO][  2].d[  7] =         0.001475517093;
  BAS[ATNO][  2].a[  8] =       759.290000000000;     BAS[ATNO][  2].d[  8] =         0.003688996478;
  BAS[ATNO][  2].a[  9] =       345.500000000000;     BAS[ATNO][  2].d[  9] =         0.008219593242;
  BAS[ATNO][  2].a[ 10] =       162.360000000000;     BAS[ATNO][  2].d[ 10] =         0.015418019449;
  BAS[ATNO][  2].a[ 11] =        78.888000000000;     BAS[ATNO][  2].d[ 11] =         0.021497752957;
  BAS[ATNO][  2].a[ 12] =        39.321000000000;     BAS[ATNO][  2].d[ 12] =         0.018880316302;
  BAS[ATNO][  2].a[ 13] =        19.918000000000;     BAS[ATNO][  2].d[ 13] =         0.007558238853;
  BAS[ATNO][  2].a[ 14] =         9.576400000000;     BAS[ATNO][  2].d[ 14] =         0.000697851806;
  BAS[ATNO][  2].a[ 15] =     29743.000000000000;     BAS[ATNO][  2].d[ 15] =        -0.000000141978;
  BAS[ATNO][  2].a[ 16] =     10740.000000000000;     BAS[ATNO][  2].d[ 16] =        -0.000000102018;
  BAS[ATNO][  2].a[ 17] =      4190.000000000000;     BAS[ATNO][  2].d[ 17] =        -0.000005968459;
  BAS[ATNO][  2].a[ 18] =      1738.900000000000;     BAS[ATNO][  2].d[ 18] =        -0.000025900575;
  BAS[ATNO][  2].a[ 19] =       759.290000000000;     BAS[ATNO][  2].d[ 19] =        -0.000196495733;
  BAS[ATNO][  2].a[ 20] =       345.500000000000;     BAS[ATNO][  2].d[ 20] =        -0.000851159446;
  BAS[ATNO][  2].a[ 21] =       162.360000000000;     BAS[ATNO][  2].d[ 21] =        -0.003905646280;
  BAS[ATNO][  2].a[ 22] =        78.888000000000;     BAS[ATNO][  2].d[ 22] =        -0.010516385252;
  BAS[ATNO][  2].a[ 23] =        39.321000000000;     BAS[ATNO][  2].d[ 23] =        -0.022559004840;
  BAS[ATNO][  2].a[ 24] =        19.918000000000;     BAS[ATNO][  2].d[ 24] =        -0.002679613408;
  BAS[ATNO][  2].a[ 25] =         9.576400000000;     BAS[ATNO][  2].d[ 25] =         0.050703775081;
  BAS[ATNO][  2].a[ 26] =         4.916100000000;     BAS[ATNO][  2].d[ 26] =         0.092638640158;
  BAS[ATNO][  2].a[ 27] =     10740.000000000000;     BAS[ATNO][  2].d[ 27] =         0.000003587302;
  BAS[ATNO][  2].a[ 28] =      4190.000000000000;     BAS[ATNO][  2].d[ 28] =         0.000026907682;
  BAS[ATNO][  2].a[ 29] =      1738.900000000000;     BAS[ATNO][  2].d[ 29] =         0.000179798762;
  BAS[ATNO][  2].a[ 30] =       759.290000000000;     BAS[ATNO][  2].d[ 30] =         0.001037310171;
  BAS[ATNO][  2].a[ 31] =       345.500000000000;     BAS[ATNO][  2].d[ 31] =         0.005107655901;
  BAS[ATNO][  2].a[ 32] =       162.360000000000;     BAS[ATNO][  2].d[ 32] =         0.021581856085;
  BAS[ATNO][  2].a[ 33] =        78.888000000000;     BAS[ATNO][  2].d[ 33] =         0.062407075153;
  BAS[ATNO][  2].a[ 34] =        39.321000000000;     BAS[ATNO][  2].d[ 34] =         0.127416182573;
  BAS[ATNO][  2].a[ 35] =        19.918000000000;     BAS[ATNO][  2].d[ 35] =         0.030923318717;
  BAS[ATNO][  2].a[ 36] =         9.576400000000;     BAS[ATNO][  2].d[ 36] =        -0.362983501131;
  BAS[ATNO][  2].a[ 37] =         4.916100000000;     BAS[ATNO][  2].d[ 37] =        -0.738760327572;
  BAS[ATNO][  2].a[ 38] =         2.464800000000;     BAS[ATNO][  2].d[ 38] =        -0.508322014922;
  BAS[ATNO][  2].a[ 39] =         1.183000000000;     BAS[ATNO][  2].d[ 39] =         2.437766347192;
  BAS[ATNO][  2].a[ 40] =         0.575210000000;     BAS[ATNO][  2].d[ 40] =        -1.111165657038;
  BAS[ATNO][  2].a[ 41] =         0.270410000000;     BAS[ATNO][  2].d[ 41] =         0.564151548372;
  BAS[ATNO][  2].a[ 42] =         0.123120000000;     BAS[ATNO][  2].d[ 42] =        -0.150834215265;

  // Basis function   4 L = s
  InitBFNGauss(BAS[ATNO][  3]);
  BAS[ATNO][  3].l  = 0;
  BAS[ATNO][  3].ng = 43;
  BAS[ATNO][  3].a[  0] =   9445100.000000000000;     BAS[ATNO][  3].d[  0] =         0.000000032603;
  BAS[ATNO][  3].a[  1] =   1414100.000000000000;     BAS[ATNO][  3].d[  1] =         0.000000253607;
  BAS[ATNO][  3].a[  2] =    321810.000000000000;     BAS[ATNO][  3].d[  2] =         0.000001334239;
  BAS[ATNO][  3].a[  3] =     91158.000000000000;     BAS[ATNO][  3].d[  3] =         0.000005637844;
  BAS[ATNO][  3].a[  4] =     29743.000000000000;     BAS[ATNO][  3].d[  4] =         0.000020551678;
  BAS[ATNO][  3].a[  5] =     10740.000000000000;     BAS[ATNO][  3].d[  5] =         0.000067054567;
  BAS[ATNO][  3].a[  6] =      4190.000000000000;     BAS[ATNO][  3].d[  6] =         0.000199808400;
  BAS[ATNO][  3].a[  7] =      1738.900000000000;     BAS[ATNO][  3].d[  7] =         0.000547309157;
  BAS[ATNO][  3].a[  8] =       759.290000000000;     BAS[ATNO][  3].d[  8] =         0.001368348466;
  BAS[ATNO][  3].a[  9] =       345.500000000000;     BAS[ATNO][  3].d[  9] =         0.003048869218;
  BAS[ATNO][  3].a[ 10] =       162.360000000000;     BAS[ATNO][  3].d[ 10] =         0.005718959992;
  BAS[ATNO][  3].a[ 11] =        78.888000000000;     BAS[ATNO][  3].d[ 11] =         0.007974097418;
  BAS[ATNO][  3].a[ 12] =        39.321000000000;     BAS[ATNO][  3].d[ 12] =         0.007003219442;
  BAS[ATNO][  3].a[ 13] =        19.918000000000;     BAS[ATNO][  3].d[ 13] =         0.002803555006;
  BAS[ATNO][  3].a[ 14] =         9.576400000000;     BAS[ATNO][  3].d[ 14] =         0.000258852090;
  BAS[ATNO][  3].a[ 15] =     29743.000000000000;     BAS[ATNO][  3].d[ 15] =        -0.000000279585;
  BAS[ATNO][  3].a[ 16] =     10740.000000000000;     BAS[ATNO][  3].d[ 16] =        -0.000000200896;
  BAS[ATNO][  3].a[ 17] =      4190.000000000000;     BAS[ATNO][  3].d[ 17] =        -0.000011753206;
  BAS[ATNO][  3].a[ 18] =      1738.900000000000;     BAS[ATNO][  3].d[ 18] =        -0.000051003916;
  BAS[ATNO][  3].a[ 19] =       759.290000000000;     BAS[ATNO][  3].d[ 19] =        -0.000386943218;
  BAS[ATNO][  3].a[ 20] =       345.500000000000;     BAS[ATNO][  3].d[ 20] =        -0.001676119726;
  BAS[ATNO][  3].a[ 21] =       162.360000000000;     BAS[ATNO][  3].d[ 21] =        -0.007691074571;
  BAS[ATNO][  3].a[ 22] =        78.888000000000;     BAS[ATNO][  3].d[ 22] =        -0.020709070252;
  BAS[ATNO][  3].a[ 23] =        39.321000000000;     BAS[ATNO][  3].d[ 23] =        -0.044423630825;
  BAS[ATNO][  3].a[ 24] =        19.918000000000;     BAS[ATNO][  3].d[ 24] =        -0.005276746809;
  BAS[ATNO][  3].a[ 25] =         9.576400000000;     BAS[ATNO][  3].d[ 25] =         0.099846859451;
  BAS[ATNO][  3].a[ 26] =         4.916100000000;     BAS[ATNO][  3].d[ 26] =         0.182425810875;
  BAS[ATNO][  3].a[ 27] =     10740.000000000000;     BAS[ATNO][  3].d[ 27] =         0.000003169603;
  BAS[ATNO][  3].a[ 28] =      4190.000000000000;     BAS[ATNO][  3].d[ 28] =         0.000023774599;
  BAS[ATNO][  3].a[ 29] =      1738.900000000000;     BAS[ATNO][  3].d[ 29] =         0.000158863309;
  BAS[ATNO][  3].a[ 30] =       759.290000000000;     BAS[ATNO][  3].d[ 30] =         0.000916527592;
  BAS[ATNO][  3].a[ 31] =       345.500000000000;     BAS[ATNO][  3].d[ 31] =         0.004512929398;
  BAS[ATNO][  3].a[ 32] =       162.360000000000;     BAS[ATNO][  3].d[ 32] =         0.019068902580;
  BAS[ATNO][  3].a[ 33] =        78.888000000000;     BAS[ATNO][  3].d[ 33] =         0.055140504678;
  BAS[ATNO][  3].a[ 34] =        39.321000000000;     BAS[ATNO][  3].d[ 34] =         0.112580065544;
  BAS[ATNO][  3].a[ 35] =        19.918000000000;     BAS[ATNO][  3].d[ 35] =         0.027322661672;
  BAS[ATNO][  3].a[ 36] =         9.576400000000;     BAS[ATNO][  3].d[ 36] =        -0.320718338312;
  BAS[ATNO][  3].a[ 37] =         4.916100000000;     BAS[ATNO][  3].d[ 37] =        -0.652740369551;
  BAS[ATNO][  3].a[ 38] =         2.464800000000;     BAS[ATNO][  3].d[ 38] =        -0.449133890232;
  BAS[ATNO][  3].a[ 39] =         1.183000000000;     BAS[ATNO][  3].d[ 39] =         3.770938435512;
  BAS[ATNO][  3].a[ 40] =         0.575210000000;     BAS[ATNO][  3].d[ 40] =        -3.656595629444;
  BAS[ATNO][  3].a[ 41] =         0.270410000000;     BAS[ATNO][  3].d[ 41] =         0.590445439003;
  BAS[ATNO][  3].a[ 42] =         0.123120000000;     BAS[ATNO][  3].d[ 42] =        -0.191745496742;

  // Basis function   5 L = s
  InitBFNGauss(BAS[ATNO][  4]);
  BAS[ATNO][  4].l  = 0;
  BAS[ATNO][  4].ng = 43;
  BAS[ATNO][  4].a[  0] =   9445100.000000000000;     BAS[ATNO][  4].d[  0] =        -0.000000016703;
  BAS[ATNO][  4].a[  1] =   1414100.000000000000;     BAS[ATNO][  4].d[  1] =        -0.000000129927;
  BAS[ATNO][  4].a[  2] =    321810.000000000000;     BAS[ATNO][  4].d[  2] =        -0.000000683554;
  BAS[ATNO][  4].a[  3] =     91158.000000000000;     BAS[ATNO][  4].d[  3] =        -0.000002888364;
  BAS[ATNO][  4].a[  4] =     29743.000000000000;     BAS[ATNO][  4].d[  4] =        -0.000010528977;
  BAS[ATNO][  4].a[  5] =     10740.000000000000;     BAS[ATNO][  4].d[  5] =        -0.000034353204;
  BAS[ATNO][  4].a[  6] =      4190.000000000000;     BAS[ATNO][  4].d[  6] =        -0.000102365268;
  BAS[ATNO][  4].a[  7] =      1738.900000000000;     BAS[ATNO][  4].d[  7] =        -0.000280395861;
  BAS[ATNO][  4].a[  8] =       759.290000000000;     BAS[ATNO][  4].d[  8] =        -0.000701028371;
  BAS[ATNO][  4].a[  9] =       345.500000000000;     BAS[ATNO][  4].d[  9] =        -0.001561987954;
  BAS[ATNO][  4].a[ 10] =       162.360000000000;     BAS[ATNO][  4].d[ 10] =        -0.002929921220;
  BAS[ATNO][  4].a[ 11] =        78.888000000000;     BAS[ATNO][  4].d[ 11] =        -0.004085266773;
  BAS[ATNO][  4].a[ 12] =        39.321000000000;     BAS[ATNO][  4].d[ 12] =        -0.003587869347;
  BAS[ATNO][  4].a[ 13] =        19.918000000000;     BAS[ATNO][  4].d[ 13] =        -0.001436309279;
  BAS[ATNO][  4].a[ 14] =         9.576400000000;     BAS[ATNO][  4].d[ 14] =        -0.000132614362;
  BAS[ATNO][  4].a[ 15] =     29743.000000000000;     BAS[ATNO][  4].d[ 15] =         0.000000280980;
  BAS[ATNO][  4].a[ 16] =     10740.000000000000;     BAS[ATNO][  4].d[ 16] =         0.000000201898;
  BAS[ATNO][  4].a[ 17] =      4190.000000000000;     BAS[ATNO][  4].d[ 17] =         0.000011811827;
  BAS[ATNO][  4].a[ 18] =      1738.900000000000;     BAS[ATNO][  4].d[ 18] =         0.000051258308;
  BAS[ATNO][  4].a[ 19] =       759.290000000000;     BAS[ATNO][  4].d[ 19] =         0.000388873172;
  BAS[ATNO][  4].a[ 20] =       345.500000000000;     BAS[ATNO][  4].d[ 20] =         0.001684479700;
  BAS[ATNO][  4].a[ 21] =       162.360000000000;     BAS[ATNO][  4].d[ 21] =         0.007729435305;
  BAS[ATNO][  4].a[ 22] =        78.888000000000;     BAS[ATNO][  4].d[ 22] =         0.020812360777;
  BAS[ATNO][  4].a[ 23] =        39.321000000000;     BAS[ATNO][  4].d[ 23] =         0.044645202345;
  BAS[ATNO][  4].a[ 24] =        19.918000000000;     BAS[ATNO][  4].d[ 24] =         0.005303065612;
  BAS[ATNO][  4].a[ 25] =         9.576400000000;     BAS[ATNO][  4].d[ 25] =        -0.100344865129;
  BAS[ATNO][  4].a[ 26] =         4.916100000000;     BAS[ATNO][  4].d[ 26] =        -0.183335695173;
  BAS[ATNO][  4].a[ 27] =     10740.000000000000;     BAS[ATNO][  4].d[ 27] =        -0.000002526469;
  BAS[ATNO][  4].a[ 28] =      4190.000000000000;     BAS[ATNO][  4].d[ 28] =        -0.000018950572;
  BAS[ATNO][  4].a[ 29] =      1738.900000000000;     BAS[ATNO][  4].d[ 29] =        -0.000126628870;
  BAS[ATNO][  4].a[ 30] =       759.290000000000;     BAS[ATNO][  4].d[ 30] =        -0.000730557950;
  BAS[ATNO][  4].a[ 31] =       345.500000000000;     BAS[ATNO][  4].d[ 31] =        -0.003597225524;
  BAS[ATNO][  4].a[ 32] =       162.360000000000;     BAS[ATNO][  4].d[ 32] =        -0.015199693374;
  BAS[ATNO][  4].a[ 33] =        78.888000000000;     BAS[ATNO][  4].d[ 33] =        -0.043952123626;
  BAS[ATNO][  4].a[ 34] =        39.321000000000;     BAS[ATNO][  4].d[ 34] =        -0.089736809402;
  BAS[ATNO][  4].a[ 35] =        19.918000000000;     BAS[ATNO][  4].d[ 35] =        -0.021778708966;
  BAS[ATNO][  4].a[ 36] =         9.576400000000;     BAS[ATNO][  4].d[ 36] =         0.255642419978;
  BAS[ATNO][  4].a[ 37] =         4.916100000000;     BAS[ATNO][  4].d[ 37] =         0.520294937195;
  BAS[ATNO][  4].a[ 38] =         2.464800000000;     BAS[ATNO][  4].d[ 38] =         0.358001588550;
  BAS[ATNO][  4].a[ 39] =         1.183000000000;     BAS[ATNO][  4].d[ 39] =        -4.059720211048;
[...]
  BAS[ATNO][  9].a[ 10] =         2.808500000000;     BAS[ATNO][  9].d[ 10] =         0.019136552030;
  BAS[ATNO][  9].a[ 11] =      3078.100000000000;     BAS[ATNO][  9].d[ 11] =        -0.000005724088;
  BAS[ATNO][  9].a[ 12] =       999.560000000000;     BAS[ATNO][  9].d[ 12] =         0.000003794186;
  BAS[ATNO][  9].a[ 13] =       380.970000000000;     BAS[ATNO][  9].d[ 13] =        -0.000094269085;
  BAS[ATNO][  9].a[ 14] =       160.280000000000;     BAS[ATNO][  9].d[ 14] =         0.000530567290;
  BAS[ATNO][  9].a[ 15] =        74.494000000000;     BAS[ATNO][  9].d[ 15] =         0.001141412187;
  BAS[ATNO][  9].a[ 16] =        36.065000000000;     BAS[ATNO][  9].d[ 16] =         0.017347521640;
  BAS[ATNO][  9].a[ 17] =        18.164000000000;     BAS[ATNO][  9].d[ 17] =         0.034270606060;
  BAS[ATNO][  9].a[ 18] =         9.466500000000;     BAS[ATNO][  9].d[ 18] =         0.158939695167;
  BAS[ATNO][  9].a[ 19] =         5.163000000000;     BAS[ATNO][  9].d[ 19] =        -0.003448240937;
  BAS[ATNO][  9].a[ 20] =         2.808500000000;     BAS[ATNO][  9].d[ 20] =        -0.002494918394;
  BAS[ATNO][  9].a[ 21] =         1.523500000000;     BAS[ATNO][  9].d[ 21] =        -1.768536868341;
  BAS[ATNO][  9].a[ 22] =         0.743790000000;     BAS[ATNO][  9].d[ 22] =         2.091692856440;
  BAS[ATNO][  9].a[ 23] =         0.356800000000;     BAS[ATNO][  9].d[ 23] =        -0.183621935902;
  BAS[ATNO][  9].a[ 24] =         0.162210000000;     BAS[ATNO][  9].d[ 24] =         0.188549217519;
  BAS[ATNO][  9].a[ 25] =         0.069956000000;     BAS[ATNO][  9].d[ 25] =        -0.053966457546;

  // Basis function  11 L = p
  InitBFNGauss(BAS[ATNO][ 10]);
  BAS[ATNO][ 10].l  = 1;
  BAS[ATNO][ 10].ng = 26;
  BAS[ATNO][ 10].a[  0] =     13006.000000000000;     BAS[ATNO][ 10].d[  0] =         0.000000024168;
  BAS[ATNO][ 10].a[  1] =      3078.100000000000;     BAS[ATNO][ 10].d[  1] =         0.000000215780;
  BAS[ATNO][ 10].a[  2] =       999.560000000000;     BAS[ATNO][ 10].d[  2] =         0.000001258047;
  BAS[ATNO][ 10].a[  3] =       380.970000000000;     BAS[ATNO][ 10].d[  3] =         0.000005725980;
  BAS[ATNO][ 10].a[  4] =       160.280000000000;     BAS[ATNO][ 10].d[  4] =         0.000021094514;
  BAS[ATNO][ 10].a[  5] =        74.494000000000;     BAS[ATNO][ 10].d[  5] =         0.000060671195;
  BAS[ATNO][ 10].a[  6] =        36.065000000000;     BAS[ATNO][ 10].d[  6] =         0.000151057985;
  BAS[ATNO][ 10].a[  7] =        18.164000000000;     BAS[ATNO][ 10].d[  7] =         0.000290316477;
  BAS[ATNO][ 10].a[  8] =         9.466500000000;     BAS[ATNO][ 10].d[  8] =         0.000407171500;
  BAS[ATNO][ 10].a[  9] =         5.163000000000;     BAS[ATNO][ 10].d[  9] =         0.000401082694;
  BAS[ATNO][ 10].a[ 10] =         2.808500000000;     BAS[ATNO][ 10].d[ 10] =         0.000262399720;
  BAS[ATNO][ 10].a[ 11] =      3078.100000000000;     BAS[ATNO][ 10].d[ 11] =        -0.000005404561;
  BAS[ATNO][ 10].a[ 12] =       999.560000000000;     BAS[ATNO][ 10].d[ 12] =         0.000003582389;
  BAS[ATNO][ 10].a[ 13] =       380.970000000000;     BAS[ATNO][ 10].d[ 13] =        -0.000089006845;
  BAS[ATNO][ 10].a[ 14] =       160.280000000000;     BAS[ATNO][ 10].d[ 14] =         0.000500950241;
  BAS[ATNO][ 10].a[ 15] =        74.494000000000;     BAS[ATNO][ 10].d[ 15] =         0.001077696875;
  BAS[ATNO][ 10].a[ 16] =        36.065000000000;     BAS[ATNO][ 10].d[ 16] =         0.016379157395;
  BAS[ATNO][ 10].a[ 17] =        18.164000000000;     BAS[ATNO][ 10].d[ 17] =         0.032357570282;
  BAS[ATNO][ 10].a[ 18] =         9.466500000000;     BAS[ATNO][ 10].d[ 18] =         0.150067446953;
  BAS[ATNO][ 10].a[ 19] =         5.163000000000;     BAS[ATNO][ 10].d[ 19] =        -0.003255755042;
  BAS[ATNO][ 10].a[ 20] =         2.808500000000;     BAS[ATNO][ 10].d[ 20] =        -0.002355648370;
  BAS[ATNO][ 10].a[ 21] =         1.523500000000;     BAS[ATNO][ 10].d[ 21] =        -1.669814531835;
  BAS[ATNO][ 10].a[ 22] =         0.743790000000;     BAS[ATNO][ 10].d[ 22] =         3.323773616709;
  BAS[ATNO][ 10].a[ 23] =         0.356800000000;     BAS[ATNO][ 10].d[ 23] =        -2.023177360932;
  BAS[ATNO][ 10].a[ 24] =         0.162210000000;     BAS[ATNO][ 10].d[ 24] =        -0.288427804458;
  BAS[ATNO][ 10].a[ 25] =         0.069956000000;     BAS[ATNO][ 10].d[ 25] =         0.006708685594;

  // Basis function  12 L = p
  InitBFNGauss(BAS[ATNO][ 11]);
  BAS[ATNO][ 11].l  = 1;
  BAS[ATNO][ 11].ng = 26;
  BAS[ATNO][ 11].a[  0] =     13006.000000000000;     BAS[ATNO][ 11].d[  0] =         0.000000585832;
  BAS[ATNO][ 11].a[  1] =      3078.100000000000;     BAS[ATNO][ 11].d[  1] =         0.000005230423;
  BAS[ATNO][ 11].a[  2] =       999.560000000000;     BAS[ATNO][ 11].d[  2] =         0.000030494572;
  BAS[ATNO][ 11].a[  3] =       380.970000000000;     BAS[ATNO][ 11].d[  3] =         0.000138795489;
  BAS[ATNO][ 11].a[  4] =       160.280000000000;     BAS[ATNO][ 11].d[  4] =         0.000511322718;
  BAS[ATNO][ 11].a[  5] =        74.494000000000;     BAS[ATNO][ 11].d[  5] =         0.001470645871;
  BAS[ATNO][ 11].a[  6] =        36.065000000000;     BAS[ATNO][ 11].d[  6] =         0.003661586081;
  BAS[ATNO][ 11].a[  7] =        18.164000000000;     BAS[ATNO][ 11].d[  7] =         0.007037157083;
  BAS[ATNO][ 11].a[  8] =         9.466500000000;     BAS[ATNO][ 11].d[  8] =         0.009869676832;
  BAS[ATNO][ 11].a[  9] =         5.163000000000;     BAS[ATNO][ 11].d[  9] =         0.009722086580;
  BAS[ATNO][ 11].a[ 10] =         2.808500000000;     BAS[ATNO][ 11].d[ 10] =         0.006360465891;
  BAS[ATNO][ 11].a[ 11] =      3078.100000000000;     BAS[ATNO][ 11].d[ 11] =         0.000004732348;
  BAS[ATNO][ 11].a[ 12] =       999.560000000000;     BAS[ATNO][ 11].d[ 12] =        -0.000003136816;
  BAS[ATNO][ 11].a[ 13] =       380.970000000000;     BAS[ATNO][ 11].d[ 13] =         0.000077936277;
  BAS[ATNO][ 11].a[ 14] =       160.280000000000;     BAS[ATNO][ 11].d[ 14] =        -0.000438642632;
  BAS[ATNO][ 11].a[ 15] =        74.494000000000;     BAS[ATNO][ 11].d[ 15] =        -0.000943654190;
  BAS[ATNO][ 11].a[ 16] =        36.065000000000;     BAS[ATNO][ 11].d[ 16] =        -0.014341936826;
  BAS[ATNO][ 11].a[ 17] =        18.164000000000;     BAS[ATNO][ 11].d[ 17] =        -0.028332973279;
  BAS[ATNO][ 11].a[ 18] =         9.466500000000;     BAS[ATNO][ 11].d[ 18] =        -0.131402232232;
  BAS[ATNO][ 11].a[ 19] =         5.163000000000;     BAS[ATNO][ 11].d[ 19] =         0.002850808012;
  BAS[ATNO][ 11].a[ 20] =         2.808500000000;     BAS[ATNO][ 11].d[ 20] =         0.002062655562;
  BAS[ATNO][ 11].a[ 21] =         1.523500000000;     BAS[ATNO][ 11].d[ 21] =         1.462124940157;
  BAS[ATNO][ 11].a[ 22] =         0.743790000000;     BAS[ATNO][ 11].d[ 22] =        -3.836137972741;
  BAS[ATNO][ 11].a[ 23] =         0.356800000000;     BAS[ATNO][ 11].d[ 23] =         4.525639452379;
  BAS[ATNO][ 11].a[ 24] =         0.162210000000;     BAS[ATNO][ 11].d[ 24] =        -2.380151753308;
  BAS[ATNO][ 11].a[ 25] =         0.069956000000;     BAS[ATNO][ 11].d[ 25] =        -0.101752259116;

  // Basis function  13 L = p
  InitBFNGauss(BAS[ATNO][ 12]);
  BAS[ATNO][ 12].l  = 1;
  BAS[ATNO][ 12].ng = 26;
  BAS[ATNO][ 12].a[  0] =     13006.000000000000;     BAS[ATNO][ 12].d[  0] =         0.000000538179;
  BAS[ATNO][ 12].a[  1] =      3078.100000000000;     BAS[ATNO][ 12].d[  1] =         0.000004804967;
  BAS[ATNO][ 12].a[  2] =       999.560000000000;     BAS[ATNO][ 12].d[  2] =         0.000028014065;
  BAS[ATNO][ 12].a[  3] =       380.970000000000;     BAS[ATNO][ 12].d[  3] =         0.000127505509;
  BAS[ATNO][ 12].a[  4] =       160.280000000000;     BAS[ATNO][ 12].d[  4] =         0.000469730420;
  BAS[ATNO][ 12].a[  5] =        74.494000000000;     BAS[ATNO][ 12].d[  5] =         0.001351019772;
  BAS[ATNO][ 12].a[  6] =        36.065000000000;     BAS[ATNO][ 12].d[  6] =         0.003363743299;
  BAS[ATNO][ 12].a[  7] =        18.164000000000;     BAS[ATNO][ 12].d[  7] =         0.006464736717;
  BAS[ATNO][ 12].a[  8] =         9.466500000000;     BAS[ATNO][ 12].d[  8] =         0.009066852061;
  BAS[ATNO][ 12].a[  9] =         5.163000000000;     BAS[ATNO][ 12].d[  9] =         0.008931267179;
  BAS[ATNO][ 12].a[ 10] =         2.808500000000;     BAS[ATNO][ 12].d[ 10] =         0.005843089318;
  BAS[ATNO][ 12].a[ 11] =      3078.100000000000;     BAS[ATNO][ 12].d[ 11] =         0.000003062968;
  BAS[ATNO][ 12].a[ 12] =       999.560000000000;     BAS[ATNO][ 12].d[ 12] =        -0.000002030275;
  BAS[ATNO][ 12].a[ 13] =       380.970000000000;     BAS[ATNO][ 12].d[ 13] =         0.000050443525;
  BAS[ATNO][ 12].a[ 14] =       160.280000000000;     BAS[ATNO][ 12].d[ 14] =        -0.000283907332;
  BAS[ATNO][ 12].a[ 15] =        74.494000000000;     BAS[ATNO][ 12].d[ 15] =        -0.000610771328;
  BAS[ATNO][ 12].a[ 16] =        36.065000000000;     BAS[ATNO][ 12].d[ 16] =        -0.009282684161;
  BAS[ATNO][ 12].a[ 17] =        18.164000000000;     BAS[ATNO][ 12].d[ 17] =        -0.018338251346;
  BAS[ATNO][ 12].a[ 18] =         9.466500000000;     BAS[ATNO][ 12].d[ 18] =        -0.085048862975;
  BAS[ATNO][ 12].a[ 19] =         5.163000000000;     BAS[ATNO][ 12].d[ 19] =         0.001845158761;
  BAS[ATNO][ 12].a[ 20] =         2.808500000000;     BAS[ATNO][ 12].d[ 20] =         0.001335034476;
  BAS[ATNO][ 12].a[ 21] =         1.523500000000;     BAS[ATNO][ 12].d[ 21] =         0.946346660754;
  BAS[ATNO][ 12].a[ 22] =         0.743790000000;     BAS[ATNO][ 12].d[ 22] =        -2.822474265147;
  BAS[ATNO][ 12].a[ 23] =         0.356800000000;     BAS[ATNO][ 12].d[ 23] =         4.346536040417;
  BAS[ATNO][ 12].a[ 24] =         0.162210000000;     BAS[ATNO][ 12].d[ 24] =        -4.342902184262;
  BAS[ATNO][ 12].a[ 25] =         0.069956000000;     BAS[ATNO][ 12].d[ 25] =         2.410383097062;

  // Basis function  14 L = d
  InitBFNGauss(BAS[ATNO][ 13]);
  BAS[ATNO][ 13].l  = 2;
  BAS[ATNO][ 13].ng = 6;
  BAS[ATNO][ 13].a[  0] =        26.330000000000;     BAS[ATNO][ 13].d[  0] =         0.065129132616;
  BAS[ATNO][ 13].a[  1] =         7.530000000000;     BAS[ATNO][ 13].d[  1] =         0.413533884697;
  BAS[ATNO][ 13].a[  2] =         2.600000000000;     BAS[ATNO][ 13].d[  2] =         0.627566426083;
  BAS[ATNO][ 13].a[  3] =         0.930000000000;     BAS[ATNO][ 13].d[  3] =         0.065895645623;
  BAS[ATNO][ 13].a[  4] =         0.410000000000;     BAS[ATNO][ 13].d[  4] =        -0.000896633917;
  BAS[ATNO][ 13].a[  5] =         0.170000000000;     BAS[ATNO][ 13].d[  5] =        -0.000965041178;

  // Basis function  15 L = d
  InitBFNGauss(BAS[ATNO][ 14]);
  BAS[ATNO][ 14].l  = 2;
  BAS[ATNO][ 14].ng = 6;
  BAS[ATNO][ 14].a[  0] =        26.330000000000;     BAS[ATNO][ 14].d[  0] =        -0.049830789665;
  BAS[ATNO][ 14].a[  1] =         7.530000000000;     BAS[ATNO][ 14].d[  1] =        -0.367894162669;
  BAS[ATNO][ 14].a[  2] =         2.600000000000;     BAS[ATNO][ 14].d[  2] =        -0.259911197811;
  BAS[ATNO][ 14].a[  3] =         0.930000000000;     BAS[ATNO][ 14].d[  3] =         1.013125264804;
  BAS[ATNO][ 14].a[  4] =         0.410000000000;     BAS[ATNO][ 14].d[  4] =         0.072326062969;
  BAS[ATNO][ 14].a[  5] =         0.170000000000;     BAS[ATNO][ 14].d[  5] =         0.012876190649;

  // Basis function  16 L = d
  InitBFNGauss(BAS[ATNO][ 15]);
  BAS[ATNO][ 15].l  = 2;
  BAS[ATNO][ 15].ng = 6;
  BAS[ATNO][ 15].a[  0] =        26.330000000000;     BAS[ATNO][ 15].d[  0] =         0.036724566155;
  BAS[ATNO][ 15].a[  1] =         7.530000000000;     BAS[ATNO][ 15].d[  1] =         0.297868534451;
  BAS[ATNO][ 15].a[  2] =         2.600000000000;     BAS[ATNO][ 15].d[  2] =         0.041277849462;
  BAS[ATNO][ 15].a[  3] =         0.930000000000;     BAS[ATNO][ 15].d[  3] =        -1.185638681462;
  BAS[ATNO][ 15].a[  4] =         0.410000000000;     BAS[ATNO][ 15].d[  4] =         1.414054291640;
  BAS[ATNO][ 15].a[  5] =         0.170000000000;     BAS[ATNO][ 15].d[  5] =         0.085348195321;

  // Basis function  17 L = d
  InitBFNGauss(BAS[ATNO][ 16]);
  BAS[ATNO][ 16].l  = 2;
  BAS[ATNO][ 16].ng = 6;
  BAS[ATNO][ 16].a[  0] =        26.330000000000;     BAS[ATNO][ 16].d[  0] =         0.024876085880;
  BAS[ATNO][ 16].a[  1] =         7.530000000000;     BAS[ATNO][ 16].d[  1] =         0.220072525414;
  BAS[ATNO][ 16].a[  2] =         2.600000000000;     BAS[ATNO][ 16].d[  2] =        -0.070026105068;
  BAS[ATNO][ 16].a[  3] =         0.930000000000;     BAS[ATNO][ 16].d[  3] =        -0.816289576527;
  BAS[ATNO][ 16].a[  4] =         0.410000000000;     BAS[ATNO][ 16].d[  4] =         1.817656495003;
  BAS[ATNO][ 16].a[  5] =         0.170000000000;     BAS[ATNO][ 16].d[  5] =        -1.617102154267;

  // Basis function  18 L = d
  InitBFNGauss(BAS[ATNO][ 17]);
  BAS[ATNO][ 17].l  = 2;
  BAS[ATNO][ 17].ng = 6;
  BAS[ATNO][ 17].a[  0] =        26.330000000000;     BAS[ATNO][ 17].d[  0] =         0.098909350290;
  BAS[ATNO][ 17].a[  1] =         7.530000000000;     BAS[ATNO][ 17].d[  1] =         1.106420209546;
  BAS[ATNO][ 17].a[  2] =         2.600000000000;     BAS[ATNO][ 17].d[  2] =        -1.866678883663;
  BAS[ATNO][ 17].a[  3] =         0.930000000000;     BAS[ATNO][ 17].d[  3] =         1.955731864722;
  BAS[ATNO][ 17].a[  4] =         0.410000000000;     BAS[ATNO][ 17].d[  4] =        -1.442170301879;
  BAS[ATNO][ 17].a[  5] =         0.170000000000;     BAS[ATNO][ 17].d[  5] =         0.548936153866;

  // Basis function  19 L = d
  InitBFNGauss(BAS[ATNO][ 18]);
  BAS[ATNO][ 18].l  = 2;
  BAS[ATNO][ 18].ng = 6;
  BAS[ATNO][ 18].a[  0] =        26.330000000000;     BAS[ATNO][ 18].d[  0] =         1.235119996297;
  BAS[ATNO][ 18].a[  1] =         7.530000000000;     BAS[ATNO][ 18].d[  1] =        -1.135811062661;
  BAS[ATNO][ 18].a[  2] =         2.600000000000;     BAS[ATNO][ 18].d[  2] =         0.767358218757;
  BAS[ATNO][ 18].a[  3] =         0.930000000000;     BAS[ATNO][ 18].d[  3] =        -0.504479612570;
  BAS[ATNO][ 18].a[  4] =         0.410000000000;     BAS[ATNO][ 18].d[  4] =         0.303182491712;
  BAS[ATNO][ 18].a[  5] =         0.170000000000;     BAS[ATNO][ 18].d[  5] =        -0.101570996598;

  // Basis function  20 L = f
  InitBFNGauss(BAS[ATNO][ 19]);
  BAS[ATNO][ 19].l  = 3;
  BAS[ATNO][ 19].ng = 3;
  BAS[ATNO][ 19].a[  0] =         4.530000000000;     BAS[ATNO][ 19].d[  0] =         0.341017376622;
  BAS[ATNO][ 19].a[  1] =         1.060000000000;     BAS[ATNO][ 19].d[  1] =         0.858275424443;
  BAS[ATNO][ 19].a[  2] =         0.440000000000;     BAS[ATNO][ 19].d[  2] =        -0.042890082555;

  // Basis function  21 L = f
  InitBFNGauss(BAS[ATNO][ 20]);
  BAS[ATNO][ 20].l  = 3;
  BAS[ATNO][ 20].ng = 3;
  BAS[ATNO][ 20].a[  0] =         4.530000000000;     BAS[ATNO][ 20].d[  0] =        -0.329130051371;
  BAS[ATNO][ 20].a[  1] =         1.060000000000;     BAS[ATNO][ 20].d[  1] =        -0.450551497037;
  BAS[ATNO][ 20].a[  2] =         0.440000000000;     BAS[ATNO][ 20].d[  2] =         1.153757132663;

  // Basis function  22 L = f
  InitBFNGauss(BAS[ATNO][ 21]);
  BAS[ATNO][ 21].l  = 3;
  BAS[ATNO][ 21].ng = 3;
  BAS[ATNO][ 21].a[  0] =         4.530000000000;     BAS[ATNO][ 21].d[  0] =        -0.973355484441;
  BAS[ATNO][ 21].a[  1] =         1.060000000000;     BAS[ATNO][ 21].d[  1] =         1.051330992220;
  BAS[ATNO][ 21].a[  2] =         0.440000000000;     BAS[ATNO][ 21].d[  2] =        -0.703099191234;

  // Basis function  23 L = g
  InitBFNGauss(BAS[ATNO][ 22]);
  BAS[ATNO][ 22].l  = 4;
  BAS[ATNO][ 22].ng = 2;
  BAS[ATNO][ 22].a[  0] =         2.180000000000;     BAS[ATNO][ 22].d[  0] =         0.304763973663;
  BAS[ATNO][ 22].a[  1] =         0.730000000000;     BAS[ATNO][ 22].d[  1] =         0.823491313201;

  // Basis function  24 L = g
  InitBFNGauss(BAS[ATNO][ 23]);
  BAS[ATNO][ 23].l  = 4;
  BAS[ATNO][ 23].ng = 2;
  BAS[ATNO][ 23].a[  0] =         2.180000000000;     BAS[ATNO][ 23].d[  0] =         1.081628867708;
  BAS[ATNO][ 23].a[  1] =         0.730000000000;     BAS[ATNO][ 23].d[  1] =        -0.764633339703;

  // Basis function  25 L = h
  InitBFNGauss(BAS[ATNO][ 24]);
  BAS[ATNO][ 24].l  = 5;
  BAS[ATNO][ 24].ng = 1;
  BAS[ATNO][ 24].a[  0] =         1.120000000000;     BAS[ATNO][ 24].d[  0] =         1.000000000000;

-------
TIMINGS
-------

Total SCF time: 0 days 0 hours 0 min 1 sec 

Total time                  ....       1.940 sec
Sum of individual times     ....       1.700 sec  ( 87.7%)

Fock matrix formation       ....       1.224 sec  ( 63.1%)
  XC integration            ....       0.026 sec  (  2.1% of F)
    Basis function eval.    ....       0.005 sec  ( 20.0% of XC)
    Density eval.           ....       0.003 sec  (  9.9% of XC)
    XC-Functional eval.     ....       0.001 sec  (  5.2% of XC)
    XC-Potential eval.      ....       0.005 sec  ( 19.7% of XC)
Diagonalization             ....       0.003 sec  (  0.2%)
Density matrix formation    ....       0.001 sec  (  0.1%)
Population analysis         ....       0.001 sec  (  0.1%)
Initial guess               ....       0.091 sec  (  4.7%)
Orbital Transformation      ....       0.000 sec  (  0.0%)
Orbital Orthonormalization  ....       0.000 sec  (  0.0%)
DIIS solution               ....       0.000 sec  (  0.0%)
SOSCF solution              ....       0.002 sec  (  0.1%)
Grid generation             ....       0.377 sec  ( 19.4%)

-------------------------   --------------------
FINAL SINGLE POINT ENERGY      -314.143883179045
-------------------------   --------------------


                            ***************************************
                            *     ORCA property calculations      *
                            ***************************************

                                    ---------------------
                                    Active property flags
                                    ---------------------
   (+) Dipole Moment


------------------------------------------------------------------------------
                       ORCA ELECTRIC PROPERTIES CALCULATION
------------------------------------------------------------------------------

Dipole Moment Calculation                       ... on
Quadrupole Moment Calculation                   ... off
Polarizability Calculation                      ... off
GBWName                                         ... Ar_pc-4_137.035989_.gbw
Electron density file                           ... Ar_pc-4_137.035989_.scfp
The origin for moment calculation is the CENTER OF MASS  = ( 0.000000,  0.000000  0.000000)

-------------
DIPOLE MOMENT
-------------
                                X             Y             Z
Electronic contribution:     -0.00000      -0.00000       0.00000
Nuclear contribution   :      0.00000       0.00000       0.00000
                        -----------------------------------------
Total Dipole Moment    :     -0.00000      -0.00000       0.00000
                        -----------------------------------------
Magnitude (a.u.)       :      0.00000
Magnitude (Debye)      :      0.00000



--------------------
Rotational spectrum 
--------------------
 
Rotational constants in cm-1:     0.000000     0.000000     0.000000 
Rotational constants in MHz :     0.000000     0.000000     0.000000 

 Dipole components along the rotational axes: 
x,y,z [a.u.] :    -0.000000    -0.000000     0.000000 
x,y,z [Debye]:    -0.000000    -0.000000     0.000000 

 

Timings for individual modules:

Sum of individual times         ...        3.383 sec (=   0.056 min)
GTO integral calculation        ...        0.804 sec (=   0.013 min)  23.8 %
Relativistic integrals          ...        0.379 sec (=   0.006 min)  11.2 %
SCF iterations                  ...        2.201 sec (=   0.037 min)  65.1 %
                             ****ORCA TERMINATED NORMALLY****
TOTAL RUN TIME: 0 days 0 hours 0 minutes 3 seconds 703 msec
