
                                 *****************
                                 * O   R   C   A *
                                 *****************

           --- An Ab Initio, DFT and Semiempirical electronic structure package ---

                  #######################################################
                  #                        -***-                        #
                  #          Department of theory and spectroscopy      #
                  #               Directorship: Frank Neese             #
                  #        Max Planck Institute fuer Kohlenforschung    #
                  #                Kaiser Wilhelm Platz 1               #
                  #                 D-45470 Muelheim/Ruhr               #
                  #                      Germany                        #
                  #                                                     #
                  #                  All rights reserved                #
                  #                        -***-                        #
                  #######################################################


                         Program Version 4.2.1 -  RELEASE  -


 With contributions from (in alphabetic order):
   Daniel Aravena         : Magnetic Suceptibility
   Michael Atanasov       : Ab Initio Ligand Field Theory (pilot matlab implementation)
   Alexander A. Auer      : GIAO ZORA, VPT2
   Ute Becker             : Parallelization
   Giovanni Bistoni       : ED, misc. LED, open-shell LED, HFLD
   Martin Brehm           : Molecular dynamics
   Dmytro Bykov           : SCF Hessian
   Vijay G. Chilkuri      : MRCI spin determinant printing, contributions to CSF-ICE
   Dipayan Datta          : RHF DLPNO-CCSD density
   Achintya Kumar Dutta   : EOM-CC, STEOM-CC
   Dmitry Ganyushin       : Spin-Orbit,Spin-Spin,Magnetic field MRCI
   Miquel Garcia          : C-PCM Hessian, Gaussian charge scheme
   Yang Guo               : DLPNO-NEVPT2, CIM, IAO-localization
   Andreas Hansen         : Spin unrestricted coupled pair/coupled cluster methods
   Benjamin Helmich-Paris : CASSCF linear response (MC-RPA)
   Lee Huntington         : MR-EOM, pCC
   Robert Izsak           : Overlap fitted RIJCOSX, COSX-SCS-MP3, EOM
   Christian Kollmar      : KDIIS, OOCD, Brueckner-CCSD(T), CCSD density
   Simone Kossmann        : Meta GGA functionals, TD-DFT gradient, OOMP2, MP2 Hessian
   Martin Krupicka        : AUTO-CI
   Lucas Lang             : DCDCAS
   Dagmar Lenk            : GEPOL surface, SMD
   Dimitrios Liakos       : Extrapolation schemes; Compound Job, initial MDCI parallelization
   Dimitrios Manganas     : Further ROCIS development; embedding schemes
   Dimitrios Pantazis     : SARC Basis sets
   Taras Petrenko         : DFT Hessian,TD-DFT gradient, ASA, ECA, R-Raman, ABS, FL, XAS/XES, NRVS
   Peter Pinski           : DLPNO-MP2, DLPNO-MP2 Gradient
   Christoph Reimann      : Effective Core Potentials
   Marius Retegan         : Local ZFS, SOC
   Christoph Riplinger    : Optimizer, TS searches, QM/MM, DLPNO-CCSD(T), (RO)-DLPNO pert. Triples
   Tobias Risthaus        : Range-separated hybrids, TD-DFT gradient, RPA, STAB
   Michael Roemelt        : Original ROCIS implementation
   Masaaki Saitow         : Open-shell DLPNO-CCSD energy and density
   Barbara Sandhoefer     : DKH picture change effects
   Avijit Sen             : IP-ROCIS
   Kantharuban Sivalingam : CASSCF convergence, NEVPT2, FIC-MRCI
   Bernardo de Souza      : ESD, SOC TD-DFT
   Georgi Stoychev        : AutoAux, RI-MP2 NMR
   Willem Van den Heuvel  : Paramagnetic NMR
   Boris Wezisla          : Elementary symmetry handling
   Frank Wennmohs         : Technical directorship


 We gratefully acknowledge several colleagues who have allowed us to
 interface, adapt or use parts of their codes:
   Stefan Grimme, W. Hujo, H. Kruse,             : VdW corrections, initial TS optimization,
                  C. Bannwarth                     DFT functionals, gCP, sTDA/sTD-DF
   Ed Valeev, F. Pavosevic, A. Kumar             : LibInt (2-el integral package), F12 methods
   Garnet Chan, S. Sharma, J. Yang, R. Olivares  : DMRG
   Ulf Ekstrom                                   : XCFun DFT Library
   Mihaly Kallay                                 : mrcc  (arbitrary order and MRCC methods)
   Andreas Klamt, Michael Diedenhofen            : otool_cosmo (COSMO solvation model)
   Jiri Pittner, Ondrej Demel                    : Mk-CCSD
   Frank Weinhold                                : gennbo (NPA and NBO analysis)
   Christopher J. Cramer and Donald G. Truhlar   : smd solvation model
   Lars Goerigk                                  : TD-DFT with DH, B97 family of functionals
   V. Asgeirsson, H. Jonsson                     : NEB implementation
   FAccTs GmbH                                   : IRC, NEB, NEB-TS, Multilevel, MM, QM/MM, CI optimization
   S Lehtola, MJT Oliveira, MAL Marques          : LibXC Library


 Your calculation uses the libint2 library for the computation of 2-el integrals
 For citations please refer to: http://libint.valeyev.net

 Your ORCA version has been built with support for libXC version: 4.2.3
 For citations please refer to: https://tddft.org/programs/libxc/

 This ORCA versions uses:
   CBLAS   interface :  Fast vector & matrix operations
   LAPACKE interface :  Fast linear algebra routines
   SCALAPACK package :  Parallel linear algebra routines


----- Orbital basis set information -----
Your calculation utilizes the basis: pc-3
   H, C-F              : F. Jensen, J. Chem. Phys. 115, 9113 (2001).
                         F. Jensen, J. Chem. Phys. 116, 7372 (2002).
                         F. Jensen, J. Chem. Phys. 117, 9234 (2002).
   Si-Cl               : F. Jensen, T. Helgaker, J. Chem. Phys. 121, 3463 (2004).
   He-B, Ne-Mg, Al, Ar : F. Jensen, J. Phys. Chem. A 111, 11198 (2007).
   K, Ca, Ga-Kr        : F. Jensen, J. Chem. Phys. 136, 094110 (2012).
   Sc-Zn               : F. Jensen, J. Chem. Phys. 138, 014107 (2013).

================================================================================
                                        WARNINGS
                       Please study these warnings very carefully!
================================================================================


INFO   : the flag for use of LIBINT has been found!

================================================================================
                                       INPUT FILE
================================================================================
NAME = Ar_pc-3_274.071978_.inp
|  1> ! LDA pc-3 nori grid5 finalgrid6 verytightscf
|  2> %Pal NProcs 18 End
|  3> 
|  4> % REL
|  5>   Method ZORA
|  6>   ModelPot 1, 0, 0, 0
|  7>   velit 274.071978
|  8> END
|  9> 
| 10> *xyz 16 1
| 11> Ar 0.0 0.0 0.0
| 12> **                         ****END OF INPUT****
================================================================================

                       ****************************
                       * Single Point Calculation *
                       ****************************

---------------------------------
CARTESIAN COORDINATES (ANGSTROEM)
---------------------------------
  Ar     0.000000    0.000000    0.000000

----------------------------
CARTESIAN COORDINATES (A.U.)
----------------------------
  NO LB      ZA    FRAG     MASS         X           Y           Z
   0 Ar   18.0000    0    39.948    0.000000    0.000000    0.000000

--------------------------------
INTERNAL COORDINATES (ANGSTROEM)
--------------------------------
 Ar     0   0   0     0.000000000000     0.00000000     0.00000000

---------------------------
INTERNAL COORDINATES (A.U.)
---------------------------
 Ar     0   0   0     0.000000000000     0.00000000     0.00000000

---------------------
BASIS SET INFORMATION
---------------------
There are 1 groups of distinct atoms

 Group   1 Type Ar  : 35s21p4d2f1g contracted to 6s5p4d2f1g pattern {121010111/99111/1111/11/1}

Atom   0Ar   basis set group =>   1


           ************************************************************
           *        Program running with 18 parallel MPI-processes    *
           *              working on a common directory               *
           ************************************************************
------------------------------------------------------------------------------
                           ORCA GTO INTEGRAL CALCULATION
------------------------------------------------------------------------------

                         BASIS SET STATISTICS AND STARTUP INFO

 # of primitive gaussian shells          ...   63
 # of primitive gaussian functions       ...  141
 # of contracted shells                  ...   18
 # of contracted basis functions         ...   64
 Highest angular momentum                ...    4
 Maximum contraction depth               ...   12
 Integral package used                   ... LIBINT
 Integral threshhold            Thresh   ...  1.000e-12
 Primitive cut-off              TCut     ...  1.000e-14


------------------------------ INTEGRAL EVALUATION ----------------------------


 * One electron integrals 
 Pre-screening matrix                    ... done
 Shell pair data                         ... done (   0.000 sec)



           ************************************************************
           *        Program running with 18 parallel MPI-processes    *
           *              working on a common directory               *
           ************************************************************
------------------------------------------------------------------------------
                          ORCA RELATIVISTIC HAMILTONIAN
------------------------------------------------------------------------------

Relativistic Method            ... ZORA(MP)
Treatment of potential         ... Van Wuellen
Nucleus model                  ... Point Nucleus
Speed of light used            ... 274.07197800000000


            *************************************************
            *         ZERO ORDER REGULAR APPROXIMATION      *
            *                     ZORA(MP)                  *
            *            Programmed by FN according to      *
            *                   C. van Wuellen              *
            *       J. Chem. Phys. (1998) vol 109, 392-399  *
            *************************************************

Terms included in model potential: +V(e,N)
Basis function cutoff value   ... 1.000000e-12
Loading the fitted atomic densities  (DKH4)  ... done
Calculating the cutoffs                      ... done
Number of fit functions                      ... 15
Setting up the integration grid ... done


           ************************************************************
           *        Program running with 18 parallel MPI-processes    *
           *              working on a common directory               *
           ************************************************************
-------------------------------------------------------------------------------
                                 ORCA SCF
-------------------------------------------------------------------------------

------------
SCF SETTINGS
------------
Hamiltonian:
 Density Functional     Method          .... DFT(GTOs)
 Exchange Functional    Exchange        .... Slater
   X-Alpha parameter    XAlpha          ....  0.666667
 Correlation Functional Correlation     .... VWN-5
 Gradients option       PostSCFGGA      .... off
   Density functional embedding theory  .... OFF

Relativistic Settings:
 Scalar relativistic method             .... ZORA
 Speed of light used       Velit        ....       274.071978
Orbital energies will be scaled


General Settings:
 Integral files         IntName         .... Ar_pc-3_274.071978_
 Hartree-Fock type      HFTyp           .... RHF
 Total Charge           Charge          ....   16
 Multiplicity           Mult            ....    1
 Number of Electrons    NEL             ....    2
 Basis Dimension        Dim             ....   64
 Nuclear Repulsion      ENuc            ....      0.0000000000 Eh

Convergence Acceleration:
 DIIS                   CNVDIIS         .... on
   Start iteration      DIISMaxIt       ....    12
   Startup error        DIISStart       ....  0.200000
   # of expansion vecs  DIISMaxEq       ....     5
   Bias factor          DIISBfac        ....   1.050
   Max. coefficient     DIISMaxC        ....  10.000
 Newton-Raphson         CNVNR           .... off
 SOSCF                  CNVSOSCF        .... on
   Start iteration      SOSCFMaxIt      ....   150
   Startup grad/error   SOSCFStart      ....  0.003300
 Level Shifting         CNVShift        .... on
   Level shift para.    LevelShift      ....    0.2500
   Turn off err/grad.   ShiftErr        ....    0.0010
 Zerner damping         CNVZerner       .... off
 Static damping         CNVDamp         .... on
   Fraction old density DampFac         ....    0.7000
   Max. Damping (<1)    DampMax         ....    0.9800
   Min. Damping (>=0)   DampMin         ....    0.0000
   Turn off err/grad.   DampErr         ....    0.1000
 Fernandez-Rico         CNVRico         .... off

SCF Procedure:
 Maximum # iterations   MaxIter         ....   125
 SCF integral mode      SCFMode         .... Direct
   Integral package                     .... LIBINT
 Reset frequency        DirectResetFreq ....    20
 Integral Threshold     Thresh          ....  1.000e-12 Eh
 Primitive CutOff       TCut            ....  1.000e-14 Eh

Convergence Tolerance:
 Convergence Check Mode ConvCheckMode   .... Total+1el-Energy
 Convergence forced     ConvForced      .... 0
 Energy Change          TolE            ....  1.000e-09 Eh
 1-El. energy change                    ....  1.000e-06 Eh
 Orbital Gradient       TolG            ....  2.000e-06
 Orbital Rotation angle TolX            ....  2.000e-06
 DIIS Error             TolErr          ....  1.000e-08


Diagonalization of the overlap matrix:
Smallest eigenvalue                        ... 4.993e-03
Time for diagonalization                   ...    0.001 sec
Threshold for overlap eigenvalues          ... 1.000e-08
Number of eigenvalues below threshold      ... 0
Time for construction of square roots      ...    0.001 sec
Total time needed                          ...    0.002 sec

-------------------
DFT GRID GENERATION
-------------------

General Integration Accuracy     IntAcc      ...  5.010
Radial Grid Type                 RadialGrid  ... Gauss-Chebyshev
Angular Grid (max. acc.)         AngularGrid ... Lebedev-434
Angular grid pruning method      GridPruning ... 3 (G Style)
Weight generation scheme         WeightScheme... Becke
Basis function cutoff            BFCut       ...    1.0000e-12
Integration weight cutoff        WCut        ...    1.0000e-14
Grids for H and He will be reduced by one unit

# of grid points (after initial pruning)     ...  11992 (   0.0 sec)
# of grid points (after weights+screening)   ...  11992 (   0.0 sec)
Grid point division into batches done        ...    0.1 sec
Reduced shell lists constructed in    0.1 sec

Total number of grid points                  ...    11992
Total number of batches                      ...      188
Average number of points per batch           ...       63
Average number of grid points per atom       ...    11992
Average number of shells per batch           ...     0.92 ( 5.09%)
Average number of basis functions per batch  ...     2.75 ( 4.30%)
Average number of large shells per batch     ...     0.92 (100.00%)
Average number of large basis fcns per batch ...     2.75 (100.00%)
Maximum spatial batch extension              ...  18.71, 18.71, 18.71 au
Average spatial batch extension              ...   0.97,  0.98,  0.97 au

Time for grid setup =    0.148 sec

------------------------------
INITIAL GUESS: MODEL POTENTIAL
------------------------------
Loading ZORA relativistic densities                ... done
Calculating cut-offs                               ... done
Setting up the integral package                    ... done
Initializing the effective Hamiltonian             ... done
Starting the Coulomb interaction                   ... done (   0.0 sec)
Reading the grid                                   ... done
Mapping shells                                     ... done
Starting the XC term evaluation                    ... done (   0.0 sec)
  promolecular density results
     # of electrons  =     18.000000116
     EX              =    -28.047870263
     EC              =     -1.433252902
     EX+EC           =    -29.481123164
Transforming the Hamiltonian                       ... done (   0.0 sec)
Diagonalizing the Hamiltonian                      ... done (   0.0 sec)
Back transforming the eigenvectors                 ... done (   0.0 sec)
Now organizing SCF variables                       ... done
                      ------------------
                      INITIAL GUESS DONE (   0.2 sec)
                      ------------------
--------------
SCF ITERATIONS
--------------
ITER       Energy         Delta-E        Max-DP      RMS-DP      [F,P]     Damp
               ***  Starting incremental Fock matrix formation  ***
  0   -312.1673399694   0.000000000000 0.01404203  0.00026820  2.0883082 0.7000
                      *** Initiating the SOSCF procedure ***
                      *** Re-Reading the Fockian *** 
                      *** Removing any level shift *** 
ITER      Energy       Delta-E        Grad      Rot      Max-DP    RMS-DP
  1   -312.17411973  -0.0067797600  0.000565  0.000565  0.032811  0.000627
               *** Restarting incremental Fock matrix formation ***
  2   -312.18983383  -0.0157141041  0.005011  0.000044  0.000108  0.000003
  3   -312.18983434  -0.0000005044  0.000034  0.000000  0.000001  0.000000
                 **** Energy Check signals convergence ****
              ***Rediagonalizing the Fockian in SOSCF/NRSCF***

               *****************************************************
               *                     SUCCESS                       *
               *           SCF CONVERGED AFTER   4 CYCLES          *
               *****************************************************

Setting up the final grid:

General Integration Accuracy     IntAcc      ...  5.340
Radial Grid Type                 RadialGrid  ... Gauss-Chebyshev
Angular Grid (max. acc.)         AngularGrid ... Lebedev-590
Angular grid pruning method      GridPruning ... 3 (G Style)
Weight generation scheme         WeightScheme... Becke
Basis function cutoff            BFCut       ...    1.0000e-12
Integration weight cutoff        WCut        ...    1.0000e-14
Grids for H and He will be reduced by one unit

# of grid points (after initial pruning)     ...  18110 (   0.0 sec)
# of grid points (after weights+screening)   ...  18110 (   0.0 sec)
Grid point division into batches done        ...    0.2 sec
Reduced shell lists constructed in    0.2 sec

Total number of grid points                  ...    18110
Total number of batches                      ...      283
Average number of points per batch           ...       63
Average number of grid points per atom       ...    18110
Average number of shells per batch           ...     0.00 ( 0.00%)
Average number of basis functions per batch  ...     0.00 ( 0.00%)
Average number of large shells per batch     ...     0.00 ( -nan%)
Average number of large basis fcns per batch ...     0.00 ( -nan%)
Maximum spatial batch extension              ...  19.03, 19.03, 19.03 au
Average spatial batch extension              ...   0.84,  0.84,  0.80 au

Final grid set up in    0.2 sec
Final integration                            ... done (   0.0 sec)
Change in XC energy                          ...    -0.000000959
Integrated number of electrons               ...     2.000000011
Previous integrated no of electrons          ...     1.999999894

----------------
TOTAL SCF ENERGY
----------------

Total Energy       :         -312.18983530 Eh           -8495.11730 eV

Components:
Nuclear Repulsion  :            0.00000000 Eh               0.00000 eV
Electronic Energy  :         -312.18983530 Eh           -8495.11730 eV
One Electron Energy:         -324.47431222 Eh           -8829.39491 eV
Two Electron Energy:           12.28447692 Eh             334.27761 eV

Virial components:
Potential Energy   :         -621.50411557 Eh          -16911.98677 eV
Kinetic Energy     :          309.31428028 Eh            8416.86947 eV
Virial Ratio       :            2.00929655


DFT components:
N(Alpha)           :        1.000000005428 electrons
N(Beta)            :        1.000000005428 electrons
N(Total)           :        2.000000010857 electrons
E(X)               :       -9.410164212816 Eh       
E(C)               :       -0.236767826715 Eh       
E(XC)              :       -9.646932039532 Eh       
DFET-embed. en.    :        0.000000000000 Eh       

---------------
SCF CONVERGENCE
---------------

  Last Energy change         ...   -2.2396e-11  Tolerance :   1.0000e-09
  Last MAX-Density change    ...    0.0000e+00  Tolerance :   1.0000e-08
  Last RMS-Density change    ...    0.0000e+00  Tolerance :   1.0000e-09
  Last Orbital Gradient      ...    9.6905e-11  Tolerance :   2.0000e-06
  Last Orbital Rotation      ...    0.0000e+00  Tolerance :   2.0000e-06

================================================================================
                                        WARNING
Number of found core electrons (2) does not match given number of chemical core electrons (10)
================================================================================
             **** THE GBW FILE WAS UPDATED (Ar_pc-3_274.071978_.gbw) ****
             **** DENSITY FILE WAS UPDATED (Ar_pc-3_274.071978_.scfp) ****
             **** ENERGY FILE WAS UPDATED (Ar_pc-3_274.071978_.en.tmp) ****
             **** THE GBW FILE WAS UPDATED (Ar_pc-3_274.071978_.gbw) ****
             **** DENSITY FILE WAS UPDATED (Ar_pc-3_274.071978_.scfp) ****
----------------
ORBITAL ENERGIES
----------------

  NO   OCC          E(Eh)            E(eV) 
   0   2.0000    -146.707123     -3992.1038 
   1   0.0000     -33.943726      -923.6557 
   2   0.0000     -32.846702      -893.8042 
   3   0.0000     -32.846702      -893.8042 
   4   0.0000     -32.846702      -893.8042 
   5   0.0000     -14.236798      -387.4030 
   6   0.0000     -14.208593      -386.6355 
   7   0.0000     -14.208593      -386.6355 
   8   0.0000     -14.208593      -386.6355 
   9   0.0000     -14.208593      -386.6355 
  10   0.0000     -14.208593      -386.6355 
  11   0.0000     -13.690250      -372.5306 
  12   0.0000     -13.690250      -372.5306 
  13   0.0000     -13.690250      -372.5306 
  14   0.0000      -7.886611      -214.6056 
  15   0.0000      -7.886611      -214.6056 
  16   0.0000      -7.886611      -214.6056 
  17   0.0000      -7.886611      -214.6056 
  18   0.0000      -7.886611      -214.6056 
  19   0.0000      -7.788236      -211.9287 
  20   0.0000      -7.788236      -211.9287 
  21   0.0000      -7.788236      -211.9287 
  22   0.0000      -7.788236      -211.9287 
  23   0.0000      -7.788236      -211.9287 
  24   0.0000      -7.788236      -211.9287 
  25   0.0000      -7.788236      -211.9287 
  26   0.0000      -7.642140      -207.9532 
  27   0.0000      -7.442878      -202.5310 
  28   0.0000      -7.442878      -202.5310 
  29   0.0000      -7.442878      -202.5310 
  30   0.0000      -4.922815      -133.9566 
  31   0.0000      -4.922815      -133.9566 
  32   0.0000      -4.922815      -133.9566 
  33   0.0000      -4.922815      -133.9566 
  34   0.0000      -4.922815      -133.9566 
  35   0.0000      -4.893645      -133.1629 
  36   0.0000      -4.893645      -133.1629 
  37   0.0000      -4.893645      -133.1629 
  38   0.0000      -4.893645      -133.1629 
  39   0.0000      -4.893645      -133.1629 
  40   0.0000      -4.893645      -133.1629 
  41   0.0000      -4.893645      -133.1629 
  42   0.0000      -4.893645      -133.1629 
  43   0.0000      -4.893645      -133.1629 
  44   0.0000      -4.796805      -130.5277 
  45   0.0000      -4.796805      -130.5277 
  46   0.0000      -4.796805      -130.5277 
  47   0.0000      -4.796805      -130.5277 
  48   0.0000      -4.796805      -130.5277 
  49   0.0000      -4.796805      -130.5277 
  50   0.0000      -4.796805      -130.5277 
  51   0.0000      -4.652693      -126.6062 
  52   0.0000      -4.652693      -126.6062 
  53   0.0000      -4.652693      -126.6062 
  54   0.0000      -4.645830      -126.4195 
  55   0.0000      -3.064384       -83.3861 
  56   0.0000      -3.064384       -83.3861 
  57   0.0000      -3.064384       -83.3861 
  58   0.0000       2.297642        62.5220 
  59   0.0000       2.297642        62.5220 
  60   0.0000       2.297642        62.5220 
  61   0.0000       2.297642        62.5220 
  62   0.0000       2.297642        62.5220 
  63   0.0000      14.418217       392.3396 

                    ********************************
                    * MULLIKEN POPULATION ANALYSIS *
                    ********************************

-----------------------
MULLIKEN ATOMIC CHARGES
-----------------------
   0 Ar:   16.000000
Sum of atomic charges:   16.0000000

--------------------------------
MULLIKEN REDUCED ORBITAL CHARGES
--------------------------------
  0 Ars       :     2.000000  s :     2.000000
      pz      :     0.000000  p :     0.000000
      px      :     0.000000
      py      :     0.000000
      dz2     :     0.000000  d :     0.000000
      dxz     :     0.000000
      dyz     :     0.000000
      dx2y2   :     0.000000
      dxy     :     0.000000
      f0      :     0.000000  f :     0.000000
      f+1     :     0.000000
      f-1     :     0.000000
      f+2     :     0.000000
      f-2     :     0.000000
      f+3     :     0.000000
      f-3     :     0.000000
      g0      :     0.000000  g :     0.000000
      g+1     :     0.000000
      g-1     :     0.000000
      g+2     :     0.000000
      g-2     :     0.000000
      g+3     :     0.000000
      g-3     :     0.000000
      g+4     :     0.000000
      g-4     :     0.000000


                     *******************************
                     * LOEWDIN POPULATION ANALYSIS *
                     *******************************

----------------------
LOEWDIN ATOMIC CHARGES
----------------------
   0 Ar:   16.000000

-------------------------------
LOEWDIN REDUCED ORBITAL CHARGES
-------------------------------
  0 Ars       :     2.000000  s :     2.000000
      pz      :     0.000000  p :     0.000000
      px      :     0.000000
      py      :     0.000000
      dz2     :     0.000000  d :     0.000000
      dxz     :     0.000000
      dyz     :     0.000000
      dx2y2   :     0.000000
      dxy     :     0.000000
      f0      :     0.000000  f :     0.000000
      f+1     :     0.000000
      f-1     :     0.000000
      f+2     :     0.000000
      f-2     :     0.000000
      f+3     :     0.000000
      f-3     :     0.000000
      g0      :     0.000000  g :     0.000000
      g+1     :     0.000000
      g-1     :     0.000000
      g+2     :     0.000000
      g-2     :     0.000000
      g+3     :     0.000000
      g-3     :     0.000000
      g+4     :     0.000000
      g-4     :     0.000000


                      *****************************
                      * MAYER POPULATION ANALYSIS *
                      *****************************

  NA   - Mulliken gross atomic population
  ZA   - Total nuclear charge
  QA   - Mulliken gross atomic charge
  VA   - Mayer's total valence
  BVA  - Mayer's bonded valence
  FA   - Mayer's free valence

  ATOM       NA         ZA         QA         VA         BVA        FA
  0 Ar     2.0000    18.0000    16.0000     0.0000     0.0000     0.0000

  Mayer bond orders larger than 0.100000


--------------------------
ATOM BASIS FOR ELEMENT Ar
--------------------------
 NewGTO Ar
 S 35
    1    1702200.000000000000         0.000011023418
    2     254910.000000000000         0.000085691908
    3      58011.000000000000         0.000450575192
    4      16431.000000000000         0.001898225291
    5       5360.500000000000         0.006864955060
    6       1935.400000000000         0.021883594650
    7        755.090000000000         0.061597747772
    8        313.080000000000         0.148011839965
    9        135.880000000000         0.283812558096
   10         61.092000000000         0.361872514514
   11         28.024000000000         0.230218856599
   12         11.860000000000         0.037167502057
   13      16431.000000000000         0.000000225822
   14       5360.500000000000         0.000000375601
   15       1935.400000000000         0.000009273970
   16        755.090000000000         0.000042117398
   17        313.080000000000         0.000312428236
   18        135.880000000000         0.001234346697
   19         61.092000000000         0.004077777609
   20         28.024000000000         0.004662595535
   21         11.860000000000        -0.008177694620
   22          5.511700000000        -0.021268835454
   23       5360.500000000000        -0.000000081944
   24       1935.400000000000        -0.000000717367
   25        755.090000000000        -0.000005258337
   26        313.080000000000        -0.000031305938
   27        135.880000000000        -0.000145303972
   28         61.092000000000        -0.000454883683
   29         28.024000000000        -0.000666987239
   30         11.860000000000         0.001327771587
   31          5.511700000000         0.006104552040
   32          2.482200000000         0.007650231677
   33          0.917610000000        -0.001203155732
   34          0.407030000000        -0.000316979548
   35          0.162380000000         0.000235807526
 S 35
    1    1702200.000000000000         0.000002625377
    2     254910.000000000000         0.000020408693
    3      58011.000000000000         0.000107310608
    4      16431.000000000000         0.000452088163
    5       5360.500000000000         0.001634982388
    6       1935.400000000000         0.005211875611
    7        755.090000000000         0.014670341159
    8        313.080000000000         0.035251032162
    9        135.880000000000         0.067593819628
   10         61.092000000000         0.086184859607
   11         28.024000000000         0.054829750918
   12         11.860000000000         0.008851945971
   13      16431.000000000000         0.000005968750
   14       5360.500000000000         0.000009927585
   15       1935.400000000000         0.000245122435
   16        755.090000000000         0.001113214593
   17        313.080000000000         0.008257862347
   18        135.880000000000         0.032625300622
   19         61.092000000000         0.107780675147
   20         28.024000000000         0.123238131871
   21         11.860000000000        -0.216146521900
   22          5.511700000000        -0.562161467503
   23       5360.500000000000         0.000002709904
   24       1935.400000000000         0.000023723542
   25        755.090000000000         0.000173894812
   26        313.080000000000         0.001035297029
   27        135.880000000000         0.004805247157
   28         61.092000000000         0.015043143679
   29         28.024000000000         0.022057473676
   30         11.860000000000        -0.043909815848
   31          5.511700000000        -0.201879418452
   32          2.482200000000        -0.252995520687
   33          0.917610000000         0.154187817717
   34          0.407030000000        -0.105090638197
   35          0.162380000000         0.031283904155
 S 35
    1    1702200.000000000000         0.000000191434
    2     254910.000000000000         0.000001488139
    3      58011.000000000000         0.000007824759
    4      16431.000000000000         0.000032964876
    5       5360.500000000000         0.000119217880
    6       1935.400000000000         0.000380033917
    7        755.090000000000         0.001069716091
    8        313.080000000000         0.002570396689
    9        135.880000000000         0.004928733132
   10         61.092000000000         0.006284334506
   11         28.024000000000         0.003998016557
   12         11.860000000000         0.000645456635
   13      16431.000000000000         0.000005237835
   14       5360.500000000000         0.000008711883
   15       1935.400000000000         0.000215105477
   16        755.090000000000         0.000976893676
   17        313.080000000000         0.007246629321
   18        135.880000000000         0.028630104274
   19         61.092000000000         0.094582177308
   20         28.024000000000         0.108146760297
   21         11.860000000000        -0.189677867864
   22          5.511700000000        -0.493320862228
   23       5360.500000000000         0.000002189172
   24       1935.400000000000         0.000019164855
   25        755.090000000000         0.000140479399
   26        313.080000000000         0.000836355628
   27        135.880000000000         0.003881876787
   28         61.092000000000         0.012152471734
   29         28.024000000000         0.017818936726
   30         11.860000000000        -0.035472159765
   31          5.511700000000        -0.163086518271
   32          2.482200000000        -0.204380213314
   33          0.917610000000         1.897512372290
   34          0.407030000000        -0.719124120010
   35          0.162380000000         0.193122735953
 S 35
    1    1702200.000000000000        -0.000000248306
    2     254910.000000000000        -0.000001930237
    3      58011.000000000000        -0.000010149345
    4      16431.000000000000        -0.000042758110
    5       5360.500000000000        -0.000154635231
    6       1935.400000000000        -0.000492934721
    7        755.090000000000        -0.001387508273
    8        313.080000000000        -0.003334012361
    9        135.880000000000        -0.006392965435
   10         61.092000000000        -0.008151290037
   11         28.024000000000        -0.005185750774
   12         11.860000000000        -0.000837209451
   13      16431.000000000000         0.000003744236
   14       5360.500000000000         0.000006227638
   15       1935.400000000000         0.000153766883
   16        755.090000000000         0.000698326687
   17        313.080000000000         0.005180210259
   18        135.880000000000         0.020466061299
   19         61.092000000000         0.067611511996
   20         28.024000000000         0.077308074198
   21         11.860000000000        -0.135590105911
   22          5.511700000000        -0.352647510807
   23       5360.500000000000         0.000000734487
   24       1935.400000000000         0.000006429984
   25        755.090000000000         0.000047132119
   26        313.080000000000         0.000280604936
   27        135.880000000000         0.001302405042
   28         61.092000000000         0.004077265027
   29         28.024000000000         0.005978415676
   30         11.860000000000        -0.011901232901
   31          5.511700000000        -0.054717013279
   32          2.482200000000        -0.068571424324
   33          0.917610000000         2.602609806120
   34          0.407030000000        -2.982740047932
   35          0.162380000000         0.396887706534
 S 35
    1    1702200.000000000000         0.000000267303
    2     254910.000000000000         0.000002077916
    3      58011.000000000000         0.000010925857
    4      16431.000000000000         0.000046029474
    5       5360.500000000000         0.000166466157
    6       1935.400000000000         0.000530648470
    7        755.090000000000         0.001493664599
    8        313.080000000000         0.003589093005
    9        135.880000000000         0.006882082320
   10         61.092000000000         0.008774933890
   11         28.024000000000         0.005582505346
   12         11.860000000000         0.000901263181
   13      16431.000000000000        -0.000002466686
   14       5360.500000000000        -0.000004102740
   15       1935.400000000000        -0.000101300943
   16        755.090000000000        -0.000460054535
   17        313.080000000000        -0.003412699628
   18        135.880000000000        -0.013482950746
   19         61.092000000000        -0.044542165334
   20         28.024000000000        -0.050930217664
   21         11.860000000000         0.089326162613
   22          5.511700000000         0.232322621802
   23       5360.500000000000         0.000000086527
   24       1935.400000000000         0.000000757492
   25        755.090000000000         0.000005552456
   26        313.080000000000         0.000033057003
   27        135.880000000000         0.000153431395
   28         61.092000000000         0.000480327118
   29         28.024000000000         0.000704294460
   30         11.860000000000        -0.001402039078
   31          5.511700000000        -0.006446003663
   32          2.482200000000        -0.008078139245
   33          0.917610000000        -1.958200275845
   34          0.407030000000         3.884356744171
   35          0.162380000000        -2.644503368988
 S 35
    1    1702200.000000000000        -0.000011590951
    2     254910.000000000000        -0.000090103694
    3      58011.000000000000        -0.000473772732
    4      16431.000000000000        -0.001995954057
    5       5360.500000000000        -0.007218392344
    6       1935.400000000000        -0.023010255814
    7        755.090000000000        -0.064769063606
    8        313.080000000000        -0.155632123315
    9        135.880000000000        -0.298424443952
   10         61.092000000000        -0.380503261200
   11         28.024000000000        -0.242071509198
   12         11.860000000000        -0.039081044225
   13      16431.000000000000         0.000062680510
   14       5360.500000000000         0.000104253999
   15       1935.400000000000         0.002574140031
   16        755.090000000000         0.011690363029
   17        313.080000000000         0.086719496240
   18        135.880000000000         0.342612835582
   19         61.092000000000         1.131852949359
   20         28.024000000000         1.294178597796
   21         11.860000000000        -2.269851046781
   22          5.511700000000        -5.903508343576
   23       5360.500000000000        -0.000056114418
   24       1935.400000000000        -0.000491247213
   25        755.090000000000        -0.003600867973
   26        313.080000000000        -0.021438062919
   27        135.880000000000        -0.099503029558
   28         61.092000000000        -0.311500807591
   29         28.024000000000        -0.456747672554
   30         11.860000000000         0.909247653915
   31          5.511700000000         4.180349747669
   32          2.482200000000         5.238819138549
   33          0.917610000000        -5.851301284697
   34          0.407030000000         4.021170485021
   35          0.162380000000        -1.216869009345
 P 21
    1       4415.500000000000         0.000126040876
    2       1046.300000000000         0.001109574256
    3        339.540000000000         0.006231632363
    4        128.100000000000         0.026813556010
    5         53.823000000000         0.083446356320
    6         24.307000000000         0.201909201261
    7         11.440000000000         0.344487963965
    8          5.513200000000         0.393313896007
    9          2.633100000000         0.229871343865
   10       1046.300000000000        -0.000003244215
   11        339.540000000000         0.000009271284
   12        128.100000000000         0.000015230785
   13         53.823000000000         0.000818973327
   14         24.307000000000         0.002898908023
   15         11.440000000000         0.013147976057
   16          5.513200000000         0.011345098342
   17          2.633100000000        -0.030954739065
   18          1.210900000000        -0.291250967985
   19          0.534110000000         0.230064845856
   20          0.223140000000        -0.117273976849
   21          0.088792000000         0.036145543087
 P 21
    1       4415.500000000000         0.000045038160
    2       1046.300000000000         0.000396483936
    3        339.540000000000         0.002226747885
    4        128.100000000000         0.009581282345
    5         53.823000000000         0.029817869002
    6         24.307000000000         0.072148172540
    7         11.440000000000         0.123095811914
    8          5.513200000000         0.140542771970
    9          2.633100000000         0.082139879092
   10       1046.300000000000        -0.000015642247
   11        339.540000000000         0.000044702258
   12        128.100000000000         0.000073436476
   13         53.823000000000         0.003948747012
   14         24.307000000000         0.013977322605
   15         11.440000000000         0.063394044073
   16          5.513200000000         0.054701321417
   17          2.633100000000        -0.149250811230
   18          1.210900000000        -1.404290410980
   19          0.534110000000         0.611243499116
   20          0.223140000000        -0.300652461152
   21          0.088792000000         0.090155643854
 P 21
    1       4415.500000000000        -0.000016403547
    2       1046.300000000000        -0.000144405162
    3        339.540000000000        -0.000811013664
    4        128.100000000000        -0.003489641084
    5         53.823000000000        -0.010860097526
    6         24.307000000000        -0.026277403997
    7         11.440000000000        -0.044833268344
    8          5.513200000000        -0.051187702584
    9          2.633100000000        -0.029916527490
   10       1046.300000000000         0.000015228290
   11        339.540000000000        -0.000043519255
   12        128.100000000000        -0.000071493051
   13         53.823000000000        -0.003844247218
   14         24.307000000000        -0.013607426198
   15         11.440000000000        -0.061716381632
   16          5.513200000000        -0.053253703526
   17          2.633100000000         0.145301031975
   18          1.210900000000         1.367127215092
   19          0.534110000000        -2.081911403286
   20          0.223140000000         0.374646897250
   21          0.088792000000        -0.115341723371
 P 21
    1       4415.500000000000        -0.000006606952
    2       1046.300000000000        -0.000058162908
    3        339.540000000000        -0.000326656697
    4        128.100000000000        -0.001405543062
    5         53.823000000000        -0.004374184728
    6         24.307000000000        -0.010583903044
    7         11.440000000000        -0.018057756593
    8          5.513200000000        -0.020617169079
    9          2.633100000000        -0.012049654007
   10       1046.300000000000         0.000010965993
   11        339.540000000000        -0.000031338506
   12        128.100000000000        -0.000051482622
   13         53.823000000000        -0.002768268049
   14         24.307000000000        -0.009798798318
   15         11.440000000000        -0.044442377842
   16          5.513200000000        -0.038348346922
   17          2.633100000000         0.104632241765
   18          1.210900000000         0.984477421458
   19          0.534110000000        -2.519600098485
   20          0.223140000000         2.269669337199
   21          0.088792000000        -0.214167667988
 P 21
    1       4415.500000000000         0.000002653055
    2       1046.300000000000         0.000023355611
    3        339.540000000000         0.000131170656
    4        128.100000000000         0.000564402955
    5         53.823000000000         0.001756476092
    6         24.307000000000         0.004250020019
    7         11.440000000000         0.007251183868
    8          5.513200000000         0.008278928950
    9          2.633100000000         0.004838599762
   10       1046.300000000000        -0.000005867015
   11        339.540000000000         0.000016766697
   12        128.100000000000         0.000027544183
   13         53.823000000000         0.001481076081
   14         24.307000000000         0.005242543552
   15         11.440000000000         0.023777517796
   16          5.513200000000         0.020517095296
   17          2.633100000000        -0.055980240289
   18          1.210900000000        -0.526714153134
   19          0.534110000000         1.682089233346
   20          0.223140000000        -2.590583007364
   21          0.088792000000         1.976960050922
 D 4
    1         10.860000000000         0.321152631365
    2          2.860000000000         0.766082155522
    3          0.840000000000         0.077186172610
    4          0.310000000000        -0.006605387090
 D 4
    1         10.860000000000         0.265050292173
    2          2.860000000000         0.390152628398
    3          0.840000000000        -1.077482514672
    4          0.310000000000        -0.019723702322
 D 4
    1         10.860000000000         0.183718254318
    2          2.860000000000         0.147921050331
    3          0.840000000000        -0.978066898140
    4          0.310000000000         1.346263485379
 D 4
    1         10.860000000000         1.087321979548
    2          2.860000000000        -1.168719836920
    3          0.840000000000         0.839263485406
    4          0.310000000000        -0.399670361617
 F 2
    1          1.910000000000         0.786774810490
    2          0.630000000000         0.332355447986
 F 2
    1          1.910000000000         0.863896430713
    2          0.630000000000        -1.120210472016
 G 1
    1          0.930000000000         1.000000000000
 end
  // -----------------------------------------------
  // The basis set
  // -----------------------------------------------
  BAS[ATNO] = new BFNGauss[NSH];
  // Basis function   1 L = s
  InitBFNGauss(BAS[ATNO][  0]);
  BAS[ATNO][  0].l  = 0;
  BAS[ATNO][  0].ng = 35;
  BAS[ATNO][  0].a[  0] =   1702200.000000000000;     BAS[ATNO][  0].d[  0] =         0.000011023418;
  BAS[ATNO][  0].a[  1] =    254910.000000000000;     BAS[ATNO][  0].d[  1] =         0.000085691908;
  BAS[ATNO][  0].a[  2] =     58011.000000000000;     BAS[ATNO][  0].d[  2] =         0.000450575192;
  BAS[ATNO][  0].a[  3] =     16431.000000000000;     BAS[ATNO][  0].d[  3] =         0.001898225291;
  BAS[ATNO][  0].a[  4] =      5360.500000000000;     BAS[ATNO][  0].d[  4] =         0.006864955060;
  BAS[ATNO][  0].a[  5] =      1935.400000000000;     BAS[ATNO][  0].d[  5] =         0.021883594650;
  BAS[ATNO][  0].a[  6] =       755.090000000000;     BAS[ATNO][  0].d[  6] =         0.061597747772;
  BAS[ATNO][  0].a[  7] =       313.080000000000;     BAS[ATNO][  0].d[  7] =         0.148011839965;
  BAS[ATNO][  0].a[  8] =       135.880000000000;     BAS[ATNO][  0].d[  8] =         0.283812558096;
  BAS[ATNO][  0].a[  9] =        61.092000000000;     BAS[ATNO][  0].d[  9] =         0.361872514514;
  BAS[ATNO][  0].a[ 10] =        28.024000000000;     BAS[ATNO][  0].d[ 10] =         0.230218856599;
  BAS[ATNO][  0].a[ 11] =        11.860000000000;     BAS[ATNO][  0].d[ 11] =         0.037167502057;
  BAS[ATNO][  0].a[ 12] =     16431.000000000000;     BAS[ATNO][  0].d[ 12] =         0.000000225822;
  BAS[ATNO][  0].a[ 13] =      5360.500000000000;     BAS[ATNO][  0].d[ 13] =         0.000000375601;
  BAS[ATNO][  0].a[ 14] =      1935.400000000000;     BAS[ATNO][  0].d[ 14] =         0.000009273970;
  BAS[ATNO][  0].a[ 15] =       755.090000000000;     BAS[ATNO][  0].d[ 15] =         0.000042117398;
  BAS[ATNO][  0].a[ 16] =       313.080000000000;     BAS[ATNO][  0].d[ 16] =         0.000312428236;
  BAS[ATNO][  0].a[ 17] =       135.880000000000;     BAS[ATNO][  0].d[ 17] =         0.001234346697;
  BAS[ATNO][  0].a[ 18] =        61.092000000000;     BAS[ATNO][  0].d[ 18] =         0.004077777609;
  BAS[ATNO][  0].a[ 19] =        28.024000000000;     BAS[ATNO][  0].d[ 19] =         0.004662595535;
  BAS[ATNO][  0].a[ 20] =        11.860000000000;     BAS[ATNO][  0].d[ 20] =        -0.008177694620;
  BAS[ATNO][  0].a[ 21] =         5.511700000000;     BAS[ATNO][  0].d[ 21] =        -0.021268835454;
  BAS[ATNO][  0].a[ 22] =      5360.500000000000;     BAS[ATNO][  0].d[ 22] =        -0.000000081944;
  BAS[ATNO][  0].a[ 23] =      1935.400000000000;     BAS[ATNO][  0].d[ 23] =        -0.000000717367;
  BAS[ATNO][  0].a[ 24] =       755.090000000000;     BAS[ATNO][  0].d[ 24] =        -0.000005258337;
  BAS[ATNO][  0].a[ 25] =       313.080000000000;     BAS[ATNO][  0].d[ 25] =        -0.000031305938;
  BAS[ATNO][  0].a[ 26] =       135.880000000000;     BAS[ATNO][  0].d[ 26] =        -0.000145303972;
  BAS[ATNO][  0].a[ 27] =        61.092000000000;     BAS[ATNO][  0].d[ 27] =        -0.000454883683;
  BAS[ATNO][  0].a[ 28] =        28.024000000000;     BAS[ATNO][  0].d[ 28] =        -0.000666987239;
  BAS[ATNO][  0].a[ 29] =        11.860000000000;     BAS[ATNO][  0].d[ 29] =         0.001327771587;
  BAS[ATNO][  0].a[ 30] =         5.511700000000;     BAS[ATNO][  0].d[ 30] =         0.006104552040;
  BAS[ATNO][  0].a[ 31] =         2.482200000000;     BAS[ATNO][  0].d[ 31] =         0.007650231677;
  BAS[ATNO][  0].a[ 32] =         0.917610000000;     BAS[ATNO][  0].d[ 32] =        -0.001203155732;
  BAS[ATNO][  0].a[ 33] =         0.407030000000;     BAS[ATNO][  0].d[ 33] =        -0.000316979548;
  BAS[ATNO][  0].a[ 34] =         0.162380000000;     BAS[ATNO][  0].d[ 34] =         0.000235807526;

  // Basis function   2 L = s
  InitBFNGauss(BAS[ATNO][  1]);
  BAS[ATNO][  1].l  = 0;
  BAS[ATNO][  1].ng = 35;
  BAS[ATNO][  1].a[  0] =   1702200.000000000000;     BAS[ATNO][  1].d[  0] =        -0.000002625377;
  BAS[ATNO][  1].a[  1] =    254910.000000000000;     BAS[ATNO][  1].d[  1] =        -0.000020408693;
  BAS[ATNO][  1].a[  2] =     58011.000000000000;     BAS[ATNO][  1].d[  2] =        -0.000107310608;
  BAS[ATNO][  1].a[  3] =     16431.000000000000;     BAS[ATNO][  1].d[  3] =        -0.000452088163;
  BAS[ATNO][  1].a[  4] =      5360.500000000000;     BAS[ATNO][  1].d[  4] =        -0.001634982388;
  BAS[ATNO][  1].a[  5] =      1935.400000000000;     BAS[ATNO][  1].d[  5] =        -0.005211875611;
  BAS[ATNO][  1].a[  6] =       755.090000000000;     BAS[ATNO][  1].d[  6] =        -0.014670341159;
  BAS[ATNO][  1].a[  7] =       313.080000000000;     BAS[ATNO][  1].d[  7] =        -0.035251032162;
  BAS[ATNO][  1].a[  8] =       135.880000000000;     BAS[ATNO][  1].d[  8] =        -0.067593819628;
  BAS[ATNO][  1].a[  9] =        61.092000000000;     BAS[ATNO][  1].d[  9] =        -0.086184859607;
  BAS[ATNO][  1].a[ 10] =        28.024000000000;     BAS[ATNO][  1].d[ 10] =        -0.054829750918;
  BAS[ATNO][  1].a[ 11] =        11.860000000000;     BAS[ATNO][  1].d[ 11] =        -0.008851945971;
  BAS[ATNO][  1].a[ 12] =     16431.000000000000;     BAS[ATNO][  1].d[ 12] =        -0.000005968750;
  BAS[ATNO][  1].a[ 13] =      5360.500000000000;     BAS[ATNO][  1].d[ 13] =        -0.000009927585;
  BAS[ATNO][  1].a[ 14] =      1935.400000000000;     BAS[ATNO][  1].d[ 14] =        -0.000245122435;
  BAS[ATNO][  1].a[ 15] =       755.090000000000;     BAS[ATNO][  1].d[ 15] =        -0.001113214593;
  BAS[ATNO][  1].a[ 16] =       313.080000000000;     BAS[ATNO][  1].d[ 16] =        -0.008257862347;
  BAS[ATNO][  1].a[ 17] =       135.880000000000;     BAS[ATNO][  1].d[ 17] =        -0.032625300622;
  BAS[ATNO][  1].a[ 18] =        61.092000000000;     BAS[ATNO][  1].d[ 18] =        -0.107780675147;
  BAS[ATNO][  1].a[ 19] =        28.024000000000;     BAS[ATNO][  1].d[ 19] =        -0.123238131871;
  BAS[ATNO][  1].a[ 20] =        11.860000000000;     BAS[ATNO][  1].d[ 20] =         0.216146521900;
  BAS[ATNO][  1].a[ 21] =         5.511700000000;     BAS[ATNO][  1].d[ 21] =         0.562161467503;
  BAS[ATNO][  1].a[ 22] =      5360.500000000000;     BAS[ATNO][  1].d[ 22] =        -0.000002709904;
  BAS[ATNO][  1].a[ 23] =      1935.400000000000;     BAS[ATNO][  1].d[ 23] =        -0.000023723542;
  BAS[ATNO][  1].a[ 24] =       755.090000000000;     BAS[ATNO][  1].d[ 24] =        -0.000173894812;
  BAS[ATNO][  1].a[ 25] =       313.080000000000;     BAS[ATNO][  1].d[ 25] =        -0.001035297029;
  BAS[ATNO][  1].a[ 26] =       135.880000000000;     BAS[ATNO][  1].d[ 26] =        -0.004805247157;
  BAS[ATNO][  1].a[ 27] =        61.092000000000;     BAS[ATNO][  1].d[ 27] =        -0.015043143679;
  BAS[ATNO][  1].a[ 28] =        28.024000000000;     BAS[ATNO][  1].d[ 28] =        -0.022057473676;
  BAS[ATNO][  1].a[ 29] =        11.860000000000;     BAS[ATNO][  1].d[ 29] =         0.043909815848;
  BAS[ATNO][  1].a[ 30] =         5.511700000000;     BAS[ATNO][  1].d[ 30] =         0.201879418452;
  BAS[ATNO][  1].a[ 31] =         2.482200000000;     BAS[ATNO][  1].d[ 31] =         0.252995520687;
  BAS[ATNO][  1].a[ 32] =         0.917610000000;     BAS[ATNO][  1].d[ 32] =        -0.154187817717;
  BAS[ATNO][  1].a[ 33] =         0.407030000000;     BAS[ATNO][  1].d[ 33] =         0.105090638197;
  BAS[ATNO][  1].a[ 34] =         0.162380000000;     BAS[ATNO][  1].d[ 34] =        -0.031283904155;

  // Basis function   3 L = s
  InitBFNGauss(BAS[ATNO][  2]);
  BAS[ATNO][  2].l  = 0;
  BAS[ATNO][  2].ng = 35;
  BAS[ATNO][  2].a[  0] =   1702200.000000000000;     BAS[ATNO][  2].d[  0] =         0.000000191434;
  BAS[ATNO][  2].a[  1] =    254910.000000000000;     BAS[ATNO][  2].d[  1] =         0.000001488139;
  BAS[ATNO][  2].a[  2] =     58011.000000000000;     BAS[ATNO][  2].d[  2] =         0.000007824759;
  BAS[ATNO][  2].a[  3] =     16431.000000000000;     BAS[ATNO][  2].d[  3] =         0.000032964876;
  BAS[ATNO][  2].a[  4] =      5360.500000000000;     BAS[ATNO][  2].d[  4] =         0.000119217880;
  BAS[ATNO][  2].a[  5] =      1935.400000000000;     BAS[ATNO][  2].d[  5] =         0.000380033917;
  BAS[ATNO][  2].a[  6] =       755.090000000000;     BAS[ATNO][  2].d[  6] =         0.001069716091;
  BAS[ATNO][  2].a[  7] =       313.080000000000;     BAS[ATNO][  2].d[  7] =         0.002570396689;
  BAS[ATNO][  2].a[  8] =       135.880000000000;     BAS[ATNO][  2].d[  8] =         0.004928733132;
  BAS[ATNO][  2].a[  9] =        61.092000000000;     BAS[ATNO][  2].d[  9] =         0.006284334506;
  BAS[ATNO][  2].a[ 10] =        28.024000000000;     BAS[ATNO][  2].d[ 10] =         0.003998016557;
  BAS[ATNO][  2].a[ 11] =        11.860000000000;     BAS[ATNO][  2].d[ 11] =         0.000645456635;
  BAS[ATNO][  2].a[ 12] =     16431.000000000000;     BAS[ATNO][  2].d[ 12] =         0.000005237835;
  BAS[ATNO][  2].a[ 13] =      5360.500000000000;     BAS[ATNO][  2].d[ 13] =         0.000008711883;
  BAS[ATNO][  2].a[ 14] =      1935.400000000000;     BAS[ATNO][  2].d[ 14] =         0.000215105477;
  BAS[ATNO][  2].a[ 15] =       755.090000000000;     BAS[ATNO][  2].d[ 15] =         0.000976893676;
  BAS[ATNO][  2].a[ 16] =       313.080000000000;     BAS[ATNO][  2].d[ 16] =         0.007246629321;
  BAS[ATNO][  2].a[ 17] =       135.880000000000;     BAS[ATNO][  2].d[ 17] =         0.028630104274;
  BAS[ATNO][  2].a[ 18] =        61.092000000000;     BAS[ATNO][  2].d[ 18] =         0.094582177308;
  BAS[ATNO][  2].a[ 19] =        28.024000000000;     BAS[ATNO][  2].d[ 19] =         0.108146760297;
  BAS[ATNO][  2].a[ 20] =        11.860000000000;     BAS[ATNO][  2].d[ 20] =        -0.189677867864;
  BAS[ATNO][  2].a[ 21] =         5.511700000000;     BAS[ATNO][  2].d[ 21] =        -0.493320862228;
  BAS[ATNO][  2].a[ 22] =      5360.500000000000;     BAS[ATNO][  2].d[ 22] =         0.000002189172;
  BAS[ATNO][  2].a[ 23] =      1935.400000000000;     BAS[ATNO][  2].d[ 23] =         0.000019164855;
  BAS[ATNO][  2].a[ 24] =       755.090000000000;     BAS[ATNO][  2].d[ 24] =         0.000140479399;
  BAS[ATNO][  2].a[ 25] =       313.080000000000;     BAS[ATNO][  2].d[ 25] =         0.000836355628;
  BAS[ATNO][  2].a[ 26] =       135.880000000000;     BAS[ATNO][  2].d[ 26] =         0.003881876787;
  BAS[ATNO][  2].a[ 27] =        61.092000000000;     BAS[ATNO][  2].d[ 27] =         0.012152471734;
  BAS[ATNO][  2].a[ 28] =        28.024000000000;     BAS[ATNO][  2].d[ 28] =         0.017818936726;
  BAS[ATNO][  2].a[ 29] =        11.860000000000;     BAS[ATNO][  2].d[ 29] =        -0.035472159765;
  BAS[ATNO][  2].a[ 30] =         5.511700000000;     BAS[ATNO][  2].d[ 30] =        -0.163086518271;
  BAS[ATNO][  2].a[ 31] =         2.482200000000;     BAS[ATNO][  2].d[ 31] =        -0.204380213314;
  BAS[ATNO][  2].a[ 32] =         0.917610000000;     BAS[ATNO][  2].d[ 32] =         1.897512372290;
  BAS[ATNO][  2].a[ 33] =         0.407030000000;     BAS[ATNO][  2].d[ 33] =        -0.719124120010;
  BAS[ATNO][  2].a[ 34] =         0.162380000000;     BAS[ATNO][  2].d[ 34] =         0.193122735953;

  // Basis function   4 L = s
  InitBFNGauss(BAS[ATNO][  3]);
  BAS[ATNO][  3].l  = 0;
  BAS[ATNO][  3].ng = 35;
  BAS[ATNO][  3].a[  0] =   1702200.000000000000;     BAS[ATNO][  3].d[  0] =         0.000000248306;
  BAS[ATNO][  3].a[  1] =    254910.000000000000;     BAS[ATNO][  3].d[  1] =         0.000001930237;
  BAS[ATNO][  3].a[  2] =     58011.000000000000;     BAS[ATNO][  3].d[  2] =         0.000010149345;
  BAS[ATNO][  3].a[  3] =     16431.000000000000;     BAS[ATNO][  3].d[  3] =         0.000042758110;
  BAS[ATNO][  3].a[  4] =      5360.500000000000;     BAS[ATNO][  3].d[  4] =         0.000154635231;
  BAS[ATNO][  3].a[  5] =      1935.400000000000;     BAS[ATNO][  3].d[  5] =         0.000492934721;
  BAS[ATNO][  3].a[  6] =       755.090000000000;     BAS[ATNO][  3].d[  6] =         0.001387508273;
  BAS[ATNO][  3].a[  7] =       313.080000000000;     BAS[ATNO][  3].d[  7] =         0.003334012361;
  BAS[ATNO][  3].a[  8] =       135.880000000000;     BAS[ATNO][  3].d[  8] =         0.006392965435;
  BAS[ATNO][  3].a[  9] =        61.092000000000;     BAS[ATNO][  3].d[  9] =         0.008151290037;
  BAS[ATNO][  3].a[ 10] =        28.024000000000;     BAS[ATNO][  3].d[ 10] =         0.005185750774;
  BAS[ATNO][  3].a[ 11] =        11.860000000000;     BAS[ATNO][  3].d[ 11] =         0.000837209451;
  BAS[ATNO][  3].a[ 12] =     16431.000000000000;     BAS[ATNO][  3].d[ 12] =        -0.000003744236;
  BAS[ATNO][  3].a[ 13] =      5360.500000000000;     BAS[ATNO][  3].d[ 13] =        -0.000006227638;
  BAS[ATNO][  3].a[ 14] =      1935.400000000000;     BAS[ATNO][  3].d[ 14] =        -0.000153766883;
  BAS[ATNO][  3].a[ 15] =       755.090000000000;     BAS[ATNO][  3].d[ 15] =        -0.000698326687;
  BAS[ATNO][  3].a[ 16] =       313.080000000000;     BAS[ATNO][  3].d[ 16] =        -0.005180210259;
  BAS[ATNO][  3].a[ 17] =       135.880000000000;     BAS[ATNO][  3].d[ 17] =        -0.020466061299;
  BAS[ATNO][  3].a[ 18] =        61.092000000000;     BAS[ATNO][  3].d[ 18] =        -0.067611511996;
  BAS[ATNO][  3].a[ 19] =        28.024000000000;     BAS[ATNO][  3].d[ 19] =        -0.077308074198;
  BAS[ATNO][  3].a[ 20] =        11.860000000000;     BAS[ATNO][  3].d[ 20] =         0.135590105911;
  BAS[ATNO][  3].a[ 21] =         5.511700000000;     BAS[ATNO][  3].d[ 21] =         0.352647510807;
  BAS[ATNO][  3].a[ 22] =      5360.500000000000;     BAS[ATNO][  3].d[ 22] =        -0.000000734487;
  BAS[ATNO][  3].a[ 23] =      1935.400000000000;     BAS[ATNO][  3].d[ 23] =        -0.000006429984;
  BAS[ATNO][  3].a[ 24] =       755.090000000000;     BAS[ATNO][  3].d[ 24] =        -0.000047132119;
  BAS[ATNO][  3].a[ 25] =       313.080000000000;     BAS[ATNO][  3].d[ 25] =        -0.000280604936;
  BAS[ATNO][  3].a[ 26] =       135.880000000000;     BAS[ATNO][  3].d[ 26] =        -0.001302405042;
  BAS[ATNO][  3].a[ 27] =        61.092000000000;     BAS[ATNO][  3].d[ 27] =        -0.004077265027;
  BAS[ATNO][  3].a[ 28] =        28.024000000000;     BAS[ATNO][  3].d[ 28] =        -0.005978415676;
  BAS[ATNO][  3].a[ 29] =        11.860000000000;     BAS[ATNO][  3].d[ 29] =         0.011901232901;
  BAS[ATNO][  3].a[ 30] =         5.511700000000;     BAS[ATNO][  3].d[ 30] =         0.054717013279;
  BAS[ATNO][  3].a[ 31] =         2.482200000000;     BAS[ATNO][  3].d[ 31] =         0.068571424324;
  BAS[ATNO][  3].a[ 32] =         0.917610000000;     BAS[ATNO][  3].d[ 32] =        -2.602609806120;
  BAS[ATNO][  3].a[ 33] =         0.407030000000;     BAS[ATNO][  3].d[ 33] =         2.982740047932;
  BAS[ATNO][  3].a[ 34] =         0.162380000000;     BAS[ATNO][  3].d[ 34] =        -0.396887706534;

  // Basis function   5 L = s
  InitBFNGauss(BAS[ATNO][  4]);
  BAS[ATNO][  4].l  = 0;
  BAS[ATNO][  4].ng = 35;
  BAS[ATNO][  4].a[  0] =   1702200.000000000000;     BAS[ATNO][  4].d[  0] =         0.000000267303;
  BAS[ATNO][  4].a[  1] =    254910.000000000000;     BAS[ATNO][  4].d[  1] =         0.000002077916;
  BAS[ATNO][  4].a[  2] =     58011.000000000000;     BAS[ATNO][  4].d[  2] =         0.000010925857;
  BAS[ATNO][  4].a[  3] =     16431.000000000000;     BAS[ATNO][  4].d[  3] =         0.000046029474;
  BAS[ATNO][  4].a[  4] =      5360.500000000000;     BAS[ATNO][  4].d[  4] =         0.000166466157;
  BAS[ATNO][  4].a[  5] =      1935.400000000000;     BAS[ATNO][  4].d[  5] =         0.000530648470;
  BAS[ATNO][  4].a[  6] =       755.090000000000;     BAS[ATNO][  4].d[  6] =         0.001493664599;
  BAS[ATNO][  4].a[  7] =       313.080000000000;     BAS[ATNO][  4].d[  7] =         0.003589093005;
  BAS[ATNO][  4].a[  8] =       135.880000000000;     BAS[ATNO][  4].d[  8] =         0.006882082320;
  BAS[ATNO][  4].a[  9] =        61.092000000000;     BAS[ATNO][  4].d[  9] =         0.008774933890;
  BAS[ATNO][  4].a[ 10] =        28.024000000000;     BAS[ATNO][  4].d[ 10] =         0.005582505346;
  BAS[ATNO][  4].a[ 11] =        11.860000000000;     BAS[ATNO][  4].d[ 11] =         0.000901263181;
  BAS[ATNO][  4].a[ 12] =     16431.000000000000;     BAS[ATNO][  4].d[ 12] =        -0.000002466686;
  BAS[ATNO][  4].a[ 13] =      5360.500000000000;     BAS[ATNO][  4].d[ 13] =        -0.000004102740;
  BAS[ATNO][  4].a[ 14] =      1935.400000000000;     BAS[ATNO][  4].d[ 14] =        -0.000101300943;
  BAS[ATNO][  4].a[ 15] =       755.090000000000;     BAS[ATNO][  4].d[ 15] =        -0.000460054535;
  BAS[ATNO][  4].a[ 16] =       313.080000000000;     BAS[ATNO][  4].d[ 16] =        -0.003412699628;
  BAS[ATNO][  4].a[ 17] =       135.880000000000;     BAS[ATNO][  4].d[ 17] =        -0.013482950746;
  BAS[ATNO][  4].a[ 18] =        61.092000000000;     BAS[ATNO][  4].d[ 18] =        -0.044542165334;
  BAS[ATNO][  4].a[ 19] =        28.024000000000;     BAS[ATNO][  4].d[ 19] =        -0.050930217664;
  BAS[ATNO][  4].a[ 20] =        11.860000000000;     BAS[ATNO][  4].d[ 20] =         0.089326162613;
  BAS[ATNO][  4].a[ 21] =         5.511700000000;     BAS[ATNO][  4].d[ 21] =         0.232322621802;
  BAS[ATNO][  4].a[ 22] =      5360.500000000000;     BAS[ATNO][  4].d[ 22] =         0.000000086527;
  BAS[ATNO][  4].a[ 23] =      1935.400000000000;     BAS[ATNO][  4].d[ 23] =         0.000000757492;
  BAS[ATNO][  4].a[ 24] =       755.090000000000;     BAS[ATNO][  4].d[ 24] =         0.000005552456;
  BAS[ATNO][  4].a[ 25] =       313.080000000000;     BAS[ATNO][  4].d[ 25] =         0.000033057003;
  BAS[ATNO][  4].a[ 26] =       135.880000000000;     BAS[ATNO][  4].d[ 26] =         0.000153431395;
  BAS[ATNO][  4].a[ 27] =        61.092000000000;     BAS[ATNO][  4].d[ 27] =         0.000480327118;
  BAS[ATNO][  4].a[ 28] =        28.024000000000;     BAS[ATNO][  4].d[ 28] =         0.000704294460;
  BAS[ATNO][  4].a[ 29] =        11.860000000000;     BAS[ATNO][  4].d[ 29] =        -0.001402039078;
  BAS[ATNO][  4].a[ 30] =         5.511700000000;     BAS[ATNO][  4].d[ 30] =        -0.006446003663;
  BAS[ATNO][  4].a[ 31] =         2.482200000000;     BAS[ATNO][  4].d[ 31] =        -0.008078139245;
  BAS[ATNO][  4].a[ 32] =         0.917610000000;     BAS[ATNO][  4].d[ 32] =        -1.958200275845;
  BAS[ATNO][  4].a[ 33] =         0.407030000000;     BAS[ATNO][  4].d[ 33] =         3.884356744171;
  BAS[ATNO][  4].a[ 34] =         0.162380000000;     BAS[ATNO][  4].d[ 34] =        -2.644503368988;

  // Basis function   6 L = s
  InitBFNGauss(BAS[ATNO][  5]);
  BAS[ATNO][  5].l  = 0;
  BAS[ATNO][  5].ng = 35;
  BAS[ATNO][  5].a[  0] =   1702200.000000000000;     BAS[ATNO][  5].d[  0] =         0.000011590951;
  BAS[ATNO][  5].a[  1] =    254910.000000000000;     BAS[ATNO][  5].d[  1] =         0.000090103694;
  BAS[ATNO][  5].a[  2] =     58011.000000000000;     BAS[ATNO][  5].d[  2] =         0.000473772732;
  BAS[ATNO][  5].a[  3] =     16431.000000000000;     BAS[ATNO][  5].d[  3] =         0.001995954057;
  BAS[ATNO][  5].a[  4] =      5360.500000000000;     BAS[ATNO][  5].d[  4] =         0.007218392344;
  BAS[ATNO][  5].a[  5] =      1935.400000000000;     BAS[ATNO][  5].d[  5] =         0.023010255814;
  BAS[ATNO][  5].a[  6] =       755.090000000000;     BAS[ATNO][  5].d[  6] =         0.064769063606;
  BAS[ATNO][  5].a[  7] =       313.080000000000;     BAS[ATNO][  5].d[  7] =         0.155632123315;
  BAS[ATNO][  5].a[  8] =       135.880000000000;     BAS[ATNO][  5].d[  8] =         0.298424443952;
  BAS[ATNO][  5].a[  9] =        61.092000000000;     BAS[ATNO][  5].d[  9] =         0.380503261200;
  BAS[ATNO][  5].a[ 10] =        28.024000000000;     BAS[ATNO][  5].d[ 10] =         0.242071509198;
  BAS[ATNO][  5].a[ 11] =        11.860000000000;     BAS[ATNO][  5].d[ 11] =         0.039081044225;
  BAS[ATNO][  5].a[ 12] =     16431.000000000000;     BAS[ATNO][  5].d[ 12] =        -0.000062680510;
  BAS[ATNO][  5].a[ 13] =      5360.500000000000;     BAS[ATNO][  5].d[ 13] =        -0.000104253999;
  BAS[ATNO][  5].a[ 14] =      1935.400000000000;     BAS[ATNO][  5].d[ 14] =        -0.002574140031;
  BAS[ATNO][  5].a[ 15] =       755.090000000000;     BAS[ATNO][  5].d[ 15] =        -0.011690363029;
  BAS[ATNO][  5].a[ 16] =       313.080000000000;     BAS[ATNO][  5].d[ 16] =        -0.086719496240;
  BAS[ATNO][  5].a[ 17] =       135.880000000000;     BAS[ATNO][  5].d[ 17] =        -0.342612835582;
  BAS[ATNO][  5].a[ 18] =        61.092000000000;     BAS[ATNO][  5].d[ 18] =        -1.131852949359;
  BAS[ATNO][  5].a[ 19] =        28.024000000000;     BAS[ATNO][  5].d[ 19] =        -1.294178597796;
  BAS[ATNO][  5].a[ 20] =        11.860000000000;     BAS[ATNO][  5].d[ 20] =         2.269851046781;
  BAS[ATNO][  5].a[ 21] =         5.511700000000;     BAS[ATNO][  5].d[ 21] =         5.903508343576;
  BAS[ATNO][  5].a[ 22] =      5360.500000000000;     BAS[ATNO][  5].d[ 22] =         0.000056114418;
  BAS[ATNO][  5].a[ 23] =      1935.400000000000;     BAS[ATNO][  5].d[ 23] =         0.000491247213;
  BAS[ATNO][  5].a[ 24] =       755.090000000000;     BAS[ATNO][  5].d[ 24] =         0.003600867973;
  BAS[ATNO][  5].a[ 25] =       313.080000000000;     BAS[ATNO][  5].d[ 25] =         0.021438062919;
  BAS[ATNO][  5].a[ 26] =       135.880000000000;     BAS[ATNO][  5].d[ 26] =         0.099503029558;
  BAS[ATNO][  5].a[ 27] =        61.092000000000;     BAS[ATNO][  5].d[ 27] =         0.311500807591;
  BAS[ATNO][  5].a[ 28] =        28.024000000000;     BAS[ATNO][  5].d[ 28] =         0.456747672554;
  BAS[ATNO][  5].a[ 29] =        11.860000000000;     BAS[ATNO][  5].d[ 29] =        -0.909247653915;
  BAS[ATNO][  5].a[ 30] =         5.511700000000;     BAS[ATNO][  5].d[ 30] =        -4.180349747669;
  BAS[ATNO][  5].a[ 31] =         2.482200000000;     BAS[ATNO][  5].d[ 31] =        -5.238819138549;
  BAS[ATNO][  5].a[ 32] =         0.917610000000;     BAS[ATNO][  5].d[ 32] =         5.851301284697;
  BAS[ATNO][  5].a[ 33] =         0.407030000000;     BAS[ATNO][  5].d[ 33] =        -4.021170485021;
  BAS[ATNO][  5].a[ 34] =         0.162380000000;     BAS[ATNO][  5].d[ 34] =         1.216869009345;

  // Basis function   7 L = p
  InitBFNGauss(BAS[ATNO][  6]);
  BAS[ATNO][  6].l  = 1;
  BAS[ATNO][  6].ng = 21;
  BAS[ATNO][  6].a[  0] =      4415.500000000000;     BAS[ATNO][  6].d[  0] =         0.000126040876;
  BAS[ATNO][  6].a[  1] =      1046.300000000000;     BAS[ATNO][  6].d[  1] =         0.001109574256;
  BAS[ATNO][  6].a[  2] =       339.540000000000;     BAS[ATNO][  6].d[  2] =         0.006231632363;
  BAS[ATNO][  6].a[  3] =       128.100000000000;     BAS[ATNO][  6].d[  3] =         0.026813556010;
  BAS[ATNO][  6].a[  4] =        53.823000000000;     BAS[ATNO][  6].d[  4] =         0.083446356320;
  BAS[ATNO][  6].a[  5] =        24.307000000000;     BAS[ATNO][  6].d[  5] =         0.201909201261;
  BAS[ATNO][  6].a[  6] =        11.440000000000;     BAS[ATNO][  6].d[  6] =         0.344487963965;
  BAS[ATNO][  6].a[  7] =         5.513200000000;     BAS[ATNO][  6].d[  7] =         0.393313896007;
  BAS[ATNO][  6].a[  8] =         2.633100000000;     BAS[ATNO][  6].d[  8] =         0.229871343865;
  BAS[ATNO][  6].a[  9] =      1046.300000000000;     BAS[ATNO][  6].d[  9] =        -0.000003244215;
  BAS[ATNO][  6].a[ 10] =       339.540000000000;     BAS[ATNO][  6].d[ 10] =         0.000009271284;
  BAS[ATNO][  6].a[ 11] =       128.100000000000;     BAS[ATNO][  6].d[ 11] =         0.000015230785;
  BAS[ATNO][  6].a[ 12] =        53.823000000000;     BAS[ATNO][  6].d[ 12] =         0.000818973327;
  BAS[ATNO][  6].a[ 13] =        24.307000000000;     BAS[ATNO][  6].d[ 13] =         0.002898908023;
  BAS[ATNO][  6].a[ 14] =        11.440000000000;     BAS[ATNO][  6].d[ 14] =         0.013147976057;
  BAS[ATNO][  6].a[ 15] =         5.513200000000;     BAS[ATNO][  6].d[ 15] =         0.011345098342;
  BAS[ATNO][  6].a[ 16] =         2.633100000000;     BAS[ATNO][  6].d[ 16] =        -0.030954739065;
  BAS[ATNO][  6].a[ 17] =         1.210900000000;     BAS[ATNO][  6].d[ 17] =        -0.291250967985;
  BAS[ATNO][  6].a[ 18] =         0.534110000000;     BAS[ATNO][  6].d[ 18] =         0.230064845856;
  BAS[ATNO][  6].a[ 19] =         0.223140000000;     BAS[ATNO][  6].d[ 19] =        -0.117273976849;
  BAS[ATNO][  6].a[ 20] =         0.088792000000;     BAS[ATNO][  6].d[ 20] =         0.036145543087;

  // Basis function   8 L = p
  InitBFNGauss(BAS[ATNO][  7]);
  BAS[ATNO][  7].l  = 1;
  BAS[ATNO][  7].ng = 21;
  BAS[ATNO][  7].a[  0] =      4415.500000000000;     BAS[ATNO][  7].d[  0] =        -0.000045038160;
  BAS[ATNO][  7].a[  1] =      1046.300000000000;     BAS[ATNO][  7].d[  1] =        -0.000396483936;
  BAS[ATNO][  7].a[  2] =       339.540000000000;     BAS[ATNO][  7].d[  2] =        -0.002226747885;
  BAS[ATNO][  7].a[  3] =       128.100000000000;     BAS[ATNO][  7].d[  3] =        -0.009581282345;
  BAS[ATNO][  7].a[  4] =        53.823000000000;     BAS[ATNO][  7].d[  4] =        -0.029817869002;
  BAS[ATNO][  7].a[  5] =        24.307000000000;     BAS[ATNO][  7].d[  5] =        -0.072148172540;
  BAS[ATNO][  7].a[  6] =        11.440000000000;     BAS[ATNO][  7].d[  6] =        -0.123095811914;
  BAS[ATNO][  7].a[  7] =         5.513200000000;     BAS[ATNO][  7].d[  7] =        -0.140542771970;
  BAS[ATNO][  7].a[  8] =         2.633100000000;     BAS[ATNO][  7].d[  8] =        -0.082139879092;
  BAS[ATNO][  7].a[  9] =      1046.300000000000;     BAS[ATNO][  7].d[  9] =         0.000015642247;
  BAS[ATNO][  7].a[ 10] =       339.540000000000;     BAS[ATNO][  7].d[ 10] =        -0.000044702258;
  BAS[ATNO][  7].a[ 11] =       128.100000000000;     BAS[ATNO][  7].d[ 11] =        -0.000073436476;
  BAS[ATNO][  7].a[ 12] =        53.823000000000;     BAS[ATNO][  7].d[ 12] =        -0.003948747012;
  BAS[ATNO][  7].a[ 13] =        24.307000000000;     BAS[ATNO][  7].d[ 13] =        -0.013977322605;
  BAS[ATNO][  7].a[ 14] =        11.440000000000;     BAS[ATNO][  7].d[ 14] =        -0.063394044073;
  BAS[ATNO][  7].a[ 15] =         5.513200000000;     BAS[ATNO][  7].d[ 15] =        -0.054701321417;
  BAS[ATNO][  7].a[ 16] =         2.633100000000;     BAS[ATNO][  7].d[ 16] =         0.149250811230;
  BAS[ATNO][  7].a[ 17] =         1.210900000000;     BAS[ATNO][  7].d[ 17] =         1.404290410980;
  BAS[ATNO][  7].a[ 18] =         0.534110000000;     BAS[ATNO][  7].d[ 18] =        -0.611243499116;
  BAS[ATNO][  7].a[ 19] =         0.223140000000;     BAS[ATNO][  7].d[ 19] =         0.300652461152;
  BAS[ATNO][  7].a[ 20] =         0.088792000000;     BAS[ATNO][  7].d[ 20] =        -0.090155643854;

  // Basis function   9 L = p
  InitBFNGauss(BAS[ATNO][  8]);
  BAS[ATNO][  8].l  = 1;
  BAS[ATNO][  8].ng = 21;
  BAS[ATNO][  8].a[  0] =      4415.500000000000;     BAS[ATNO][  8].d[  0] =         0.000016403547;
  BAS[ATNO][  8].a[  1] =      1046.300000000000;     BAS[ATNO][  8].d[  1] =         0.000144405162;
  BAS[ATNO][  8].a[  2] =       339.540000000000;     BAS[ATNO][  8].d[  2] =         0.000811013664;
  BAS[ATNO][  8].a[  3] =       128.100000000000;     BAS[ATNO][  8].d[  3] =         0.003489641084;
  BAS[ATNO][  8].a[  4] =        53.823000000000;     BAS[ATNO][  8].d[  4] =         0.010860097526;
  BAS[ATNO][  8].a[  5] =        24.307000000000;     BAS[ATNO][  8].d[  5] =         0.026277403997;
  BAS[ATNO][  8].a[  6] =        11.440000000000;     BAS[ATNO][  8].d[  6] =         0.044833268344;
  BAS[ATNO][  8].a[  7] =         5.513200000000;     BAS[ATNO][  8].d[  7] =         0.051187702584;
  BAS[ATNO][  8].a[  8] =         2.633100000000;     BAS[ATNO][  8].d[  8] =         0.029916527490;
  BAS[ATNO][  8].a[  9] =      1046.300000000000;     BAS[ATNO][  8].d[  9] =        -0.000015228290;
  BAS[ATNO][  8].a[ 10] =       339.540000000000;     BAS[ATNO][  8].d[ 10] =         0.000043519255;
  BAS[ATNO][  8].a[ 11] =       128.100000000000;     BAS[ATNO][  8].d[ 11] =         0.000071493051;
  BAS[ATNO][  8].a[ 12] =        53.823000000000;     BAS[ATNO][  8].d[ 12] =         0.003844247218;
  BAS[ATNO][  8].a[ 13] =        24.307000000000;     BAS[ATNO][  8].d[ 13] =         0.013607426198;
  BAS[ATNO][  8].a[ 14] =        11.440000000000;     BAS[ATNO][  8].d[ 14] =         0.061716381632;
  BAS[ATNO][  8].a[ 15] =         5.513200000000;     BAS[ATNO][  8].d[ 15] =         0.053253703526;
  BAS[ATNO][  8].a[ 16] =         2.633100000000;     BAS[ATNO][  8].d[ 16] =        -0.145301031975;
  BAS[ATNO][  8].a[ 17] =         1.210900000000;     BAS[ATNO][  8].d[ 17] =        -1.367127215092;
  BAS[ATNO][  8].a[ 18] =         0.534110000000;     BAS[ATNO][  8].d[ 18] =         2.081911403286;
  BAS[ATNO][  8].a[ 19] =         0.223140000000;     BAS[ATNO][  8].d[ 19] =        -0.374646897250;
  BAS[ATNO][  8].a[ 20] =         0.088792000000;     BAS[ATNO][  8].d[ 20] =         0.115341723371;

  // Basis function  10 L = p
  InitBFNGauss(BAS[ATNO][  9]);
  BAS[ATNO][  9].l  = 1;
  BAS[ATNO][  9].ng = 21;
  BAS[ATNO][  9].a[  0] =      4415.500000000000;     BAS[ATNO][  9].d[  0] =         0.000006606952;
  BAS[ATNO][  9].a[  1] =      1046.300000000000;     BAS[ATNO][  9].d[  1] =         0.000058162908;
  BAS[ATNO][  9].a[  2] =       339.540000000000;     BAS[ATNO][  9].d[  2] =         0.000326656697;
  BAS[ATNO][  9].a[  3] =       128.100000000000;     BAS[ATNO][  9].d[  3] =         0.001405543062;
  BAS[ATNO][  9].a[  4] =        53.823000000000;     BAS[ATNO][  9].d[  4] =         0.004374184728;
  BAS[ATNO][  9].a[  5] =        24.307000000000;     BAS[ATNO][  9].d[  5] =         0.010583903044;
  BAS[ATNO][  9].a[  6] =        11.440000000000;     BAS[ATNO][  9].d[  6] =         0.018057756593;
  BAS[ATNO][  9].a[  7] =         5.513200000000;     BAS[ATNO][  9].d[  7] =         0.020617169079;
  BAS[ATNO][  9].a[  8] =         2.633100000000;     BAS[ATNO][  9].d[  8] =         0.012049654007;
  BAS[ATNO][  9].a[  9] =      1046.300000000000;     BAS[ATNO][  9].d[  9] =        -0.000010965993;
  BAS[ATNO][  9].a[ 10] =       339.540000000000;     BAS[ATNO][  9].d[ 10] =         0.000031338506;
  BAS[ATNO][  9].a[ 11] =       128.100000000000;     BAS[ATNO][  9].d[ 11] =         0.000051482622;
  BAS[ATNO][  9].a[ 12] =        53.823000000000;     BAS[ATNO][  9].d[ 12] =         0.002768268049;
  BAS[ATNO][  9].a[ 13] =        24.307000000000;     BAS[ATNO][  9].d[ 13] =         0.009798798318;
  BAS[ATNO][  9].a[ 14] =        11.440000000000;     BAS[ATNO][  9].d[ 14] =         0.044442377842;
  BAS[ATNO][  9].a[ 15] =         5.513200000000;     BAS[ATNO][  9].d[ 15] =         0.038348346922;
  BAS[ATNO][  9].a[ 16] =         2.633100000000;     BAS[ATNO][  9].d[ 16] =        -0.104632241765;
  BAS[ATNO][  9].a[ 17] =         1.210900000000;     BAS[ATNO][  9].d[ 17] =        -0.984477421458;
  BAS[ATNO][  9].a[ 18] =         0.534110000000;     BAS[ATNO][  9].d[ 18] =         2.519600098485;
  BAS[ATNO][  9].a[ 19] =         0.223140000000;     BAS[ATNO][  9].d[ 19] =        -2.269669337199;
  BAS[ATNO][  9].a[ 20] =         0.088792000000;     BAS[ATNO][  9].d[ 20] =         0.214167667988;

  // Basis function  11 L = p
  InitBFNGauss(BAS[ATNO][ 10]);
  BAS[ATNO][ 10].l  = 1;
  BAS[ATNO][ 10].ng = 21;
  BAS[ATNO][ 10].a[  0] =      4415.500000000000;     BAS[ATNO][ 10].d[  0] =        -0.000002653055;
  BAS[ATNO][ 10].a[  1] =      1046.300000000000;     BAS[ATNO][ 10].d[  1] =        -0.000023355611;
  BAS[ATNO][ 10].a[  2] =       339.540000000000;     BAS[ATNO][ 10].d[  2] =        -0.000131170656;
  BAS[ATNO][ 10].a[  3] =       128.100000000000;     BAS[ATNO][ 10].d[  3] =        -0.000564402955;
  BAS[ATNO][ 10].a[  4] =        53.823000000000;     BAS[ATNO][ 10].d[  4] =        -0.001756476092;
  BAS[ATNO][ 10].a[  5] =        24.307000000000;     BAS[ATNO][ 10].d[  5] =        -0.004250020019;
  BAS[ATNO][ 10].a[  6] =        11.440000000000;     BAS[ATNO][ 10].d[  6] =        -0.007251183868;
  BAS[ATNO][ 10].a[  7] =         5.513200000000;     BAS[ATNO][ 10].d[  7] =        -0.008278928950;
  BAS[ATNO][ 10].a[  8] =         2.633100000000;     BAS[ATNO][ 10].d[  8] =        -0.004838599762;
  BAS[ATNO][ 10].a[  9] =      1046.300000000000;     BAS[ATNO][ 10].d[  9] =         0.000005867015;
  BAS[ATNO][ 10].a[ 10] =       339.540000000000;     BAS[ATNO][ 10].d[ 10] =        -0.000016766697;
  BAS[ATNO][ 10].a[ 11] =       128.100000000000;     BAS[ATNO][ 10].d[ 11] =        -0.000027544183;
  BAS[ATNO][ 10].a[ 12] =        53.823000000000;     BAS[ATNO][ 10].d[ 12] =        -0.001481076081;
  BAS[ATNO][ 10].a[ 13] =        24.307000000000;     BAS[ATNO][ 10].d[ 13] =        -0.005242543552;
  BAS[ATNO][ 10].a[ 14] =        11.440000000000;     BAS[ATNO][ 10].d[ 14] =        -0.023777517796;
  BAS[ATNO][ 10].a[ 15] =         5.513200000000;     BAS[ATNO][ 10].d[ 15] =        -0.020517095296;
  BAS[ATNO][ 10].a[ 16] =         2.633100000000;     BAS[ATNO][ 10].d[ 16] =         0.055980240289;
  BAS[ATNO][ 10].a[ 17] =         1.210900000000;     BAS[ATNO][ 10].d[ 17] =         0.526714153134;
  BAS[ATNO][ 10].a[ 18] =         0.534110000000;     BAS[ATNO][ 10].d[ 18] =        -1.682089233346;
  BAS[ATNO][ 10].a[ 19] =         0.223140000000;     BAS[ATNO][ 10].d[ 19] =         2.590583007364;
  BAS[ATNO][ 10].a[ 20] =         0.088792000000;     BAS[ATNO][ 10].d[ 20] =        -1.976960050922;

  // Basis function  12 L = d
  InitBFNGauss(BAS[ATNO][ 11]);
  BAS[ATNO][ 11].l  = 2;
  BAS[ATNO][ 11].ng = 4;
  BAS[ATNO][ 11].a[  0] =        10.860000000000;     BAS[ATNO][ 11].d[  0] =         0.321152631365;
  BAS[ATNO][ 11].a[  1] =         2.860000000000;     BAS[ATNO][ 11].d[  1] =         0.766082155522;
  BAS[ATNO][ 11].a[  2] =         0.840000000000;     BAS[ATNO][ 11].d[  2] =         0.077186172610;
  BAS[ATNO][ 11].a[  3] =         0.310000000000;     BAS[ATNO][ 11].d[  3] =        -0.006605387090;

  // Basis function  13 L = d
  InitBFNGauss(BAS[ATNO][ 12]);
  BAS[ATNO][ 12].l  = 2;
  BAS[ATNO][ 12].ng = 4;
  BAS[ATNO][ 12].a[  0] =        10.860000000000;     BAS[ATNO][ 12].d[  0] =        -0.265050292173;
  BAS[ATNO][ 12].a[  1] =         2.860000000000;     BAS[ATNO][ 12].d[  1] =        -0.390152628398;
  BAS[ATNO][ 12].a[  2] =         0.840000000000;     BAS[ATNO][ 12].d[  2] =         1.077482514672;
  BAS[ATNO][ 12].a[  3] =         0.310000000000;     BAS[ATNO][ 12].d[  3] =         0.019723702322;

  // Basis function  14 L = d
  InitBFNGauss(BAS[ATNO][ 13]);
  BAS[ATNO][ 13].l  = 2;
  BAS[ATNO][ 13].ng = 4;
  BAS[ATNO][ 13].a[  0] =        10.860000000000;     BAS[ATNO][ 13].d[  0] =         0.183718254318;
  BAS[ATNO][ 13].a[  1] =         2.860000000000;     BAS[ATNO][ 13].d[  1] =         0.147921050331;
  BAS[ATNO][ 13].a[  2] =         0.840000000000;     BAS[ATNO][ 13].d[  2] =        -0.978066898140;
  BAS[ATNO][ 13].a[  3] =         0.310000000000;     BAS[ATNO][ 13].d[  3] =         1.346263485379;

  // Basis function  15 L = d
  InitBFNGauss(BAS[ATNO][ 14]);
  BAS[ATNO][ 14].l  = 2;
  BAS[ATNO][ 14].ng = 4;
  BAS[ATNO][ 14].a[  0] =        10.860000000000;     BAS[ATNO][ 14].d[  0] =        -1.087321979548;
  BAS[ATNO][ 14].a[  1] =         2.860000000000;     BAS[ATNO][ 14].d[  1] =         1.168719836920;
  BAS[ATNO][ 14].a[  2] =         0.840000000000;     BAS[ATNO][ 14].d[  2] =        -0.839263485406;
  BAS[ATNO][ 14].a[  3] =         0.310000000000;     BAS[ATNO][ 14].d[  3] =         0.399670361617;

  // Basis function  16 L = f
  InitBFNGauss(BAS[ATNO][ 15]);
  BAS[ATNO][ 15].l  = 3;
  BAS[ATNO][ 15].ng = 2;
  BAS[ATNO][ 15].a[  0] =         1.910000000000;     BAS[ATNO][ 15].d[  0] =         0.786774810490;
  BAS[ATNO][ 15].a[  1] =         0.630000000000;     BAS[ATNO][ 15].d[  1] =         0.332355447986;

  // Basis function  17 L = f
  InitBFNGauss(BAS[ATNO][ 16]);
  BAS[ATNO][ 16].l  = 3;
  BAS[ATNO][ 16].ng = 2;
  BAS[ATNO][ 16].a[  0] =         1.910000000000;     BAS[ATNO][ 16].d[  0] =        -0.863896430713;
  BAS[ATNO][ 16].a[  1] =         0.630000000000;     BAS[ATNO][ 16].d[  1] =         1.120210472016;

  // Basis function  18 L = g
  InitBFNGauss(BAS[ATNO][ 17]);
  BAS[ATNO][ 17].l  = 4;
  BAS[ATNO][ 17].ng = 1;
  BAS[ATNO][ 17].a[  0] =         0.930000000000;     BAS[ATNO][ 17].d[  0] =         1.000000000000;

-------
TIMINGS
-------

Total SCF time: 0 days 0 hours 0 min 1 sec 

Total time                  ....       1.492 sec
Sum of individual times     ....       1.291 sec  ( 86.5%)

Fock matrix formation       ....       0.832 sec  ( 55.8%)
  XC integration            ....       0.018 sec  (  2.2% of F)
    Basis function eval.    ....       0.004 sec  ( 20.9% of XC)
    Density eval.           ....       0.001 sec  (  7.4% of XC)
    XC-Functional eval.     ....       0.001 sec  (  6.6% of XC)
    XC-Potential eval.      ....       0.002 sec  ( 11.9% of XC)
Diagonalization             ....       0.001 sec  (  0.1%)
Density matrix formation    ....       0.000 sec  (  0.0%)
Population analysis         ....       0.001 sec  (  0.1%)
Initial guess               ....       0.082 sec  (  5.5%)
Orbital Transformation      ....       0.000 sec  (  0.0%)
Orbital Orthonormalization  ....       0.000 sec  (  0.0%)
DIIS solution               ....       0.000 sec  (  0.0%)
SOSCF solution              ....       0.001 sec  (  0.1%)
Grid generation             ....       0.373 sec  ( 25.0%)

-------------------------   --------------------
FINAL SINGLE POINT ENERGY      -312.189835296947
-------------------------   --------------------


                            ***************************************
                            *     ORCA property calculations      *
                            ***************************************

                                    ---------------------
                                    Active property flags
                                    ---------------------
   (+) Dipole Moment


------------------------------------------------------------------------------
                       ORCA ELECTRIC PROPERTIES CALCULATION
------------------------------------------------------------------------------

Dipole Moment Calculation                       ... on
Quadrupole Moment Calculation                   ... off
Polarizability Calculation                      ... off
GBWName                                         ... Ar_pc-3_274.071978_.gbw
Electron density file                           ... Ar_pc-3_274.071978_.scfp
The origin for moment calculation is the CENTER OF MASS  = ( 0.000000,  0.000000  0.000000)

-------------
DIPOLE MOMENT
-------------
                                X             Y             Z
Electronic contribution:      0.00000      -0.00000      -0.00000
Nuclear contribution   :      0.00000       0.00000       0.00000
                        -----------------------------------------
Total Dipole Moment    :      0.00000      -0.00000      -0.00000
                        -----------------------------------------
Magnitude (a.u.)       :      0.00000
Magnitude (Debye)      :      0.00000



--------------------
Rotational spectrum 
--------------------
 
Rotational constants in cm-1:     0.000000     0.000000     0.000000 
Rotational constants in MHz :     0.000000     0.000000     0.000000 

 Dipole components along the rotational axes: 
x,y,z [a.u.] :     0.000000    -0.000000    -0.000000 
x,y,z [Debye]:     0.000000    -0.000000    -0.000000 

 

Timings for individual modules:

Sum of individual times         ...        2.713 sec (=   0.045 min)
GTO integral calculation        ...        0.594 sec (=   0.010 min)  21.9 %
Relativistic integrals          ...        0.384 sec (=   0.006 min)  14.1 %
SCF iterations                  ...        1.734 sec (=   0.029 min)  63.9 %
                             ****ORCA TERMINATED NORMALLY****
TOTAL RUN TIME: 0 days 0 hours 0 minutes 3 seconds 47 msec
