
                                 *****************
                                 * O   R   C   A *
                                 *****************

           --- An Ab Initio, DFT and Semiempirical electronic structure package ---

                  #######################################################
                  #                        -***-                        #
                  #          Department of theory and spectroscopy      #
                  #               Directorship: Frank Neese             #
                  #        Max Planck Institute fuer Kohlenforschung    #
                  #                Kaiser Wilhelm Platz 1               #
                  #                 D-45470 Muelheim/Ruhr               #
                  #                      Germany                        #
                  #                                                     #
                  #                  All rights reserved                #
                  #                        -***-                        #
                  #######################################################


                         Program Version 4.2.1 -  RELEASE  -


 With contributions from (in alphabetic order):
   Daniel Aravena         : Magnetic Suceptibility
   Michael Atanasov       : Ab Initio Ligand Field Theory (pilot matlab implementation)
   Alexander A. Auer      : GIAO ZORA, VPT2
   Ute Becker             : Parallelization
   Giovanni Bistoni       : ED, misc. LED, open-shell LED, HFLD
   Martin Brehm           : Molecular dynamics
   Dmytro Bykov           : SCF Hessian
   Vijay G. Chilkuri      : MRCI spin determinant printing, contributions to CSF-ICE
   Dipayan Datta          : RHF DLPNO-CCSD density
   Achintya Kumar Dutta   : EOM-CC, STEOM-CC
   Dmitry Ganyushin       : Spin-Orbit,Spin-Spin,Magnetic field MRCI
   Miquel Garcia          : C-PCM Hessian, Gaussian charge scheme
   Yang Guo               : DLPNO-NEVPT2, CIM, IAO-localization
   Andreas Hansen         : Spin unrestricted coupled pair/coupled cluster methods
   Benjamin Helmich-Paris : CASSCF linear response (MC-RPA)
   Lee Huntington         : MR-EOM, pCC
   Robert Izsak           : Overlap fitted RIJCOSX, COSX-SCS-MP3, EOM
   Christian Kollmar      : KDIIS, OOCD, Brueckner-CCSD(T), CCSD density
   Simone Kossmann        : Meta GGA functionals, TD-DFT gradient, OOMP2, MP2 Hessian
   Martin Krupicka        : AUTO-CI
   Lucas Lang             : DCDCAS
   Dagmar Lenk            : GEPOL surface, SMD
   Dimitrios Liakos       : Extrapolation schemes; Compound Job, initial MDCI parallelization
   Dimitrios Manganas     : Further ROCIS development; embedding schemes
   Dimitrios Pantazis     : SARC Basis sets
   Taras Petrenko         : DFT Hessian,TD-DFT gradient, ASA, ECA, R-Raman, ABS, FL, XAS/XES, NRVS
   Peter Pinski           : DLPNO-MP2, DLPNO-MP2 Gradient
   Christoph Reimann      : Effective Core Potentials
   Marius Retegan         : Local ZFS, SOC
   Christoph Riplinger    : Optimizer, TS searches, QM/MM, DLPNO-CCSD(T), (RO)-DLPNO pert. Triples
   Tobias Risthaus        : Range-separated hybrids, TD-DFT gradient, RPA, STAB
   Michael Roemelt        : Original ROCIS implementation
   Masaaki Saitow         : Open-shell DLPNO-CCSD energy and density
   Barbara Sandhoefer     : DKH picture change effects
   Avijit Sen             : IP-ROCIS
   Kantharuban Sivalingam : CASSCF convergence, NEVPT2, FIC-MRCI
   Bernardo de Souza      : ESD, SOC TD-DFT
   Georgi Stoychev        : AutoAux, RI-MP2 NMR
   Willem Van den Heuvel  : Paramagnetic NMR
   Boris Wezisla          : Elementary symmetry handling
   Frank Wennmohs         : Technical directorship


 We gratefully acknowledge several colleagues who have allowed us to
 interface, adapt or use parts of their codes:
   Stefan Grimme, W. Hujo, H. Kruse,             : VdW corrections, initial TS optimization,
                  C. Bannwarth                     DFT functionals, gCP, sTDA/sTD-DF
   Ed Valeev, F. Pavosevic, A. Kumar             : LibInt (2-el integral package), F12 methods
   Garnet Chan, S. Sharma, J. Yang, R. Olivares  : DMRG
   Ulf Ekstrom                                   : XCFun DFT Library
   Mihaly Kallay                                 : mrcc  (arbitrary order and MRCC methods)
   Andreas Klamt, Michael Diedenhofen            : otool_cosmo (COSMO solvation model)
   Jiri Pittner, Ondrej Demel                    : Mk-CCSD
   Frank Weinhold                                : gennbo (NPA and NBO analysis)
   Christopher J. Cramer and Donald G. Truhlar   : smd solvation model
   Lars Goerigk                                  : TD-DFT with DH, B97 family of functionals
   V. Asgeirsson, H. Jonsson                     : NEB implementation
   FAccTs GmbH                                   : IRC, NEB, NEB-TS, Multilevel, MM, QM/MM, CI optimization
   S Lehtola, MJT Oliveira, MAL Marques          : LibXC Library


 Your calculation uses the libint2 library for the computation of 2-el integrals
 For citations please refer to: http://libint.valeyev.net

 Your ORCA version has been built with support for libXC version: 4.2.3
 For citations please refer to: https://tddft.org/programs/libxc/

 This ORCA versions uses:
   CBLAS   interface :  Fast vector & matrix operations
   LAPACKE interface :  Fast linear algebra routines
   SCALAPACK package :  Parallel linear algebra routines


----- Orbital basis set information -----
Your calculation utilizes the basis: pc-4
   H, C-F              : F. Jensen, J. Chem. Phys. 115, 9113 (2001).
                         F. Jensen, J. Chem. Phys. 116, 7372 (2002).
                         F. Jensen, J. Chem. Phys. 117, 9234 (2002).
   Si-Cl               : F. Jensen, T. Helgaker, J. Chem. Phys. 121, 3463 (2004).
   He-B, Ne-Mg, Al, Ar : F. Jensen, J. Phys. Chem. A 111, 11198 (2007).
   K, Ca, Ga-Kr        : F. Jensen, J. Chem. Phys. 136, 094110 (2012).
   Sc-Zn               : F. Jensen, J. Chem. Phys. 138, 014107 (2013).

================================================================================
                                        WARNINGS
                       Please study these warnings very carefully!
================================================================================


INFO   : the flag for use of LIBINT has been found!

================================================================================
                                       INPUT FILE
================================================================================
NAME = Ar_pc-4_2192.575824_.inp
|  1> ! LDA pc-4 nori grid5 finalgrid6 verytightscf
|  2> %Pal NProcs 18 End
|  3> 
|  4> % REL
|  5>   Method ZORA
|  6>   ModelPot 1, 0, 0, 0
|  7>   velit 2192.575824
|  8> END
|  9> 
| 10> *xyz 16 1
| 11> Ar 0.0 0.0 0.0
| 12> **                         ****END OF INPUT****
================================================================================

                       ****************************
                       * Single Point Calculation *
                       ****************************

---------------------------------
CARTESIAN COORDINATES (ANGSTROEM)
---------------------------------
  Ar     0.000000    0.000000    0.000000

----------------------------
CARTESIAN COORDINATES (A.U.)
----------------------------
  NO LB      ZA    FRAG     MASS         X           Y           Z
   0 Ar   18.0000    0    39.948    0.000000    0.000000    0.000000

--------------------------------
INTERNAL COORDINATES (ANGSTROEM)
--------------------------------
 Ar     0   0   0     0.000000000000     0.00000000     0.00000000

---------------------------
INTERNAL COORDINATES (A.U.)
---------------------------
 Ar     0   0   0     0.000000000000     0.00000000     0.00000000

---------------------
BASIS SET INFORMATION
---------------------
There are 1 groups of distinct atoms

 Group   1 Type Ar  : 43s26p6d3f2g1h contracted to 7s6p6d3f2g1h pattern {1512121111/11111111/111111/111/11/1}

Atom   0Ar   basis set group =>   1


           ************************************************************
           *        Program running with 18 parallel MPI-processes    *
           *              working on a common directory               *
           ************************************************************
------------------------------------------------------------------------------
                           ORCA GTO INTEGRAL CALCULATION
------------------------------------------------------------------------------

                         BASIS SET STATISTICS AND STARTUP INFO

 # of primitive gaussian shells          ...   81
 # of primitive gaussian functions       ...  201
 # of contracted shells                  ...   25
 # of contracted basis functions         ...  105
 Highest angular momentum                ...    5
 Maximum contraction depth               ...   15
 Integral package used                   ... LIBINT
 Integral threshhold            Thresh   ...  1.000e-12
 Primitive cut-off              TCut     ...  1.000e-14


------------------------------ INTEGRAL EVALUATION ----------------------------


 * One electron integrals 
 Pre-screening matrix                    ... done
 Shell pair data                         ... done (   0.000 sec)



           ************************************************************
           *        Program running with 18 parallel MPI-processes    *
           *              working on a common directory               *
           ************************************************************
------------------------------------------------------------------------------
                          ORCA RELATIVISTIC HAMILTONIAN
------------------------------------------------------------------------------

Relativistic Method            ... ZORA(MP)
Treatment of potential         ... Van Wuellen
Nucleus model                  ... Point Nucleus
Speed of light used            ... 2192.57582400000001


            *************************************************
            *         ZERO ORDER REGULAR APPROXIMATION      *
            *                     ZORA(MP)                  *
            *            Programmed by FN according to      *
            *                   C. van Wuellen              *
            *       J. Chem. Phys. (1998) vol 109, 392-399  *
            *************************************************

Terms included in model potential: +V(e,N)
Basis function cutoff value   ... 1.000000e-12
Loading the fitted atomic densities  (DKH4)  ... done
Calculating the cutoffs                      ... done
Number of fit functions                      ... 15
Setting up the integration grid ... done


           ************************************************************
           *        Program running with 18 parallel MPI-processes    *
           *              working on a common directory               *
           ************************************************************
-------------------------------------------------------------------------------
                                 ORCA SCF
-------------------------------------------------------------------------------

------------
SCF SETTINGS
------------
Hamiltonian:
 Density Functional     Method          .... DFT(GTOs)
 Exchange Functional    Exchange        .... Slater
   X-Alpha parameter    XAlpha          ....  0.666667
 Correlation Functional Correlation     .... VWN-5
 Gradients option       PostSCFGGA      .... off
   Density functional embedding theory  .... OFF

Relativistic Settings:
 Scalar relativistic method             .... ZORA
 Speed of light used       Velit        ....       2192.57582
Orbital energies will be scaled


General Settings:
 Integral files         IntName         .... Ar_pc-4_2192.575824_
 Hartree-Fock type      HFTyp           .... RHF
 Total Charge           Charge          ....   16
 Multiplicity           Mult            ....    1
 Number of Electrons    NEL             ....    2
 Basis Dimension        Dim             ....  105
 Nuclear Repulsion      ENuc            ....      0.0000000000 Eh

Convergence Acceleration:
 DIIS                   CNVDIIS         .... on
   Start iteration      DIISMaxIt       ....    12
   Startup error        DIISStart       ....  0.200000
   # of expansion vecs  DIISMaxEq       ....     5
   Bias factor          DIISBfac        ....   1.050
   Max. coefficient     DIISMaxC        ....  10.000
 Newton-Raphson         CNVNR           .... off
 SOSCF                  CNVSOSCF        .... on
   Start iteration      SOSCFMaxIt      ....   150
   Startup grad/error   SOSCFStart      ....  0.003300
 Level Shifting         CNVShift        .... on
   Level shift para.    LevelShift      ....    0.2500
   Turn off err/grad.   ShiftErr        ....    0.0010
 Zerner damping         CNVZerner       .... off
 Static damping         CNVDamp         .... on
   Fraction old density DampFac         ....    0.7000
   Max. Damping (<1)    DampMax         ....    0.9800
   Min. Damping (>=0)   DampMin         ....    0.0000
   Turn off err/grad.   DampErr         ....    0.1000
 Fernandez-Rico         CNVRico         .... off

SCF Procedure:
 Maximum # iterations   MaxIter         ....   125
 SCF integral mode      SCFMode         .... Direct
   Integral package                     .... LIBINT
 Reset frequency        DirectResetFreq ....    20
 Integral Threshold     Thresh          ....  1.000e-12 Eh
 Primitive CutOff       TCut            ....  1.000e-14 Eh

Convergence Tolerance:
 Convergence Check Mode ConvCheckMode   .... Total+1el-Energy
 Convergence forced     ConvForced      .... 0
 Energy Change          TolE            ....  1.000e-09 Eh
 1-El. energy change                    ....  1.000e-06 Eh
 Orbital Gradient       TolG            ....  2.000e-06
 Orbital Rotation angle TolX            ....  2.000e-06
 DIIS Error             TolErr          ....  1.000e-08


Diagonalization of the overlap matrix:
Smallest eigenvalue                        ... 6.886e-04
Time for diagonalization                   ...    0.003 sec
Threshold for overlap eigenvalues          ... 1.000e-08
Number of eigenvalues below threshold      ... 0
Time for construction of square roots      ...    0.002 sec
Total time needed                          ...    0.005 sec

-------------------
DFT GRID GENERATION
-------------------

General Integration Accuracy     IntAcc      ...  5.010
Radial Grid Type                 RadialGrid  ... Gauss-Chebyshev
Angular Grid (max. acc.)         AngularGrid ... Lebedev-434
Angular grid pruning method      GridPruning ... 3 (G Style)
Weight generation scheme         WeightScheme... Becke
Basis function cutoff            BFCut       ...    1.0000e-12
Integration weight cutoff        WCut        ...    1.0000e-14
Grids for H and He will be reduced by one unit

# of grid points (after initial pruning)     ...  11992 (   0.0 sec)
# of grid points (after weights+screening)   ...  11992 (   0.0 sec)
Grid point division into batches done        ...    0.1 sec
Reduced shell lists constructed in    0.1 sec

Total number of grid points                  ...    11992
Total number of batches                      ...      188
Average number of points per batch           ...       63
Average number of grid points per atom       ...    11992
Average number of shells per batch           ...     1.75 ( 7.00%)
Average number of basis functions per batch  ...     5.25 ( 5.00%)
Average number of large shells per batch     ...     0.92 (52.38%)
Average number of large basis fcns per batch ...     2.75 (52.38%)
Maximum spatial batch extension              ...  18.71, 18.71, 18.71 au
Average spatial batch extension              ...   0.97,  0.98,  0.97 au

Time for grid setup =    0.150 sec

------------------------------
INITIAL GUESS: MODEL POTENTIAL
------------------------------
Loading ZORA relativistic densities                ... done
Calculating cut-offs                               ... done
Setting up the integral package                    ... done
Initializing the effective Hamiltonian             ... done
Starting the Coulomb interaction                   ... done (   0.0 sec)
Reading the grid                                   ... done
Mapping shells                                     ... done
Starting the XC term evaluation                    ... done (   0.0 sec)
  promolecular density results
     # of electrons  =     18.000000116
     EX              =    -28.047870263
     EC              =     -1.433252902
     EX+EC           =    -29.481123164
Transforming the Hamiltonian                       ... done (   0.0 sec)
Diagonalizing the Hamiltonian                      ... done (   0.0 sec)
Back transforming the eigenvectors                 ... done (   0.0 sec)
Now organizing SCF variables                       ... done
                      ------------------
                      INITIAL GUESS DONE (   0.2 sec)
                      ------------------
--------------
SCF ITERATIONS
--------------
ITER       Energy         Delta-E        Max-DP      RMS-DP      [F,P]     Damp
               ***  Starting incremental Fock matrix formation  ***
  0   -311.5179211335   0.000000000000 0.02062834  0.00024933  2.0725197 0.7000
                      *** Initiating the SOSCF procedure ***
                      *** Re-Reading the Fockian *** 
                      *** Removing any level shift *** 
ITER      Energy       Delta-E        Grad      Rot      Max-DP    RMS-DP
  1   -311.52488876  -0.0069676250  0.000923  0.000923  0.048344  0.000585
               *** Restarting incremental Fock matrix formation ***
  2   -311.54103132  -0.0161425599  0.005333  0.000047  0.000526  0.000008
  3   -311.54103194  -0.0000006231  0.000040  0.000000  0.000004  0.000000
                 **** Energy Check signals convergence ****
              ***Rediagonalizing the Fockian in SOSCF/NRSCF***

               *****************************************************
               *                     SUCCESS                       *
               *           SCF CONVERGED AFTER   4 CYCLES          *
               *****************************************************

Setting up the final grid:

General Integration Accuracy     IntAcc      ...  5.340
Radial Grid Type                 RadialGrid  ... Gauss-Chebyshev
Angular Grid (max. acc.)         AngularGrid ... Lebedev-590
Angular grid pruning method      GridPruning ... 3 (G Style)
Weight generation scheme         WeightScheme... Becke
Basis function cutoff            BFCut       ...    1.0000e-12
Integration weight cutoff        WCut        ...    1.0000e-14
Grids for H and He will be reduced by one unit

# of grid points (after initial pruning)     ...  18110 (   0.0 sec)
# of grid points (after weights+screening)   ...  18110 (   0.0 sec)
Grid point division into batches done        ...    0.2 sec
Reduced shell lists constructed in    0.2 sec

Total number of grid points                  ...    18110
Total number of batches                      ...      283
Average number of points per batch           ...       63
Average number of grid points per atom       ...    18110
Average number of shells per batch           ...     0.59 ( 2.35%)
Average number of basis functions per batch  ...     1.76 ( 1.68%)
Average number of large shells per batch     ...     0.59 (100.00%)
Average number of large basis fcns per batch ...     1.76 (100.00%)
Maximum spatial batch extension              ...  19.03, 19.03, 19.03 au
Average spatial batch extension              ...   0.84,  0.84,  0.80 au

Final grid set up in    0.3 sec
Final integration                            ... done (   0.0 sec)
Change in XC energy                          ...    -0.000009165
Integrated number of electrons               ...     1.999999894
Previous integrated no of electrons          ...     1.999999729

----------------
TOTAL SCF ENERGY
----------------

Total Energy       :         -311.54104111 Eh           -8477.46271 eV

Components:
Nuclear Repulsion  :            0.00000000 Eh               0.00000 eV
Electronic Energy  :         -311.54104111 Eh           -8477.46271 eV
One Electron Energy:         -323.81989588 Eh           -8811.58734 eV
Two Electron Energy:           12.27885478 Eh             334.12463 eV

Virial components:
Potential Energy   :         -621.24572505 Eh          -16904.95561 eV
Kinetic Energy     :          309.70468394 Eh            8427.49290 eV
Virial Ratio       :            2.00592938


DFT components:
N(Alpha)           :        0.999999946954 electrons
N(Beta)            :        0.999999946954 electrons
N(Total)           :        1.999999893907 electrons
E(X)               :       -9.406071259318 Eh       
E(C)               :       -0.236738362117 Eh       
E(XC)              :       -9.642809621435 Eh       
DFET-embed. en.    :        0.000000000000 Eh       

---------------
SCF CONVERGENCE
---------------

  Last Energy change         ...   -3.5413e-11  Tolerance :   1.0000e-09
  Last MAX-Density change    ...    0.0000e+00  Tolerance :   1.0000e-08
  Last RMS-Density change    ...    0.0000e+00  Tolerance :   1.0000e-09
  Last Orbital Gradient      ...    2.7548e-10  Tolerance :   2.0000e-06
  Last Orbital Rotation      ...    0.0000e+00  Tolerance :   2.0000e-06

================================================================================
                                        WARNING
Number of found core electrons (2) does not match given number of chemical core electrons (10)
================================================================================
             **** THE GBW FILE WAS UPDATED (Ar_pc-4_2192.575824_.gbw) ****
             **** DENSITY FILE WAS UPDATED (Ar_pc-4_2192.575824_.scfp) ****
             **** ENERGY FILE WAS UPDATED (Ar_pc-4_2192.575824_.en.tmp) ****
             **** THE GBW FILE WAS UPDATED (Ar_pc-4_2192.575824_.gbw) ****
             **** DENSITY FILE WAS UPDATED (Ar_pc-4_2192.575824_.scfp) ****
----------------
ORBITAL ENERGIES
----------------

  NO   OCC          E(Eh)            E(eV) 
   0   2.0000    -146.386910     -3983.3903 
   1   0.0000     -33.937991      -923.4997 
   2   0.0000     -32.947237      -896.5399 
   3   0.0000     -32.947237      -896.5399 
   4   0.0000     -32.947237      -896.5399 
   5   0.0000     -14.475727      -393.9046 
   6   0.0000     -14.315478      -389.5439 
   7   0.0000     -14.315478      -389.5439 
   8   0.0000     -14.315478      -389.5439 
   9   0.0000     -14.315478      -389.5439 
  10   0.0000     -14.315478      -389.5439 
  11   0.0000     -14.005077      -381.0975 
  12   0.0000     -14.005077      -381.0975 
  13   0.0000     -14.005077      -381.0975 
  14   0.0000      -8.019619      -218.2249 
  15   0.0000      -8.019619      -218.2249 
  16   0.0000      -8.019619      -218.2249 
  17   0.0000      -8.019619      -218.2249 
  18   0.0000      -8.019619      -218.2249 
  19   0.0000      -7.980585      -217.1628 
  20   0.0000      -7.798028      -212.1951 
  21   0.0000      -7.798028      -212.1951 
  22   0.0000      -7.798028      -212.1951 
  23   0.0000      -7.798028      -212.1951 
  24   0.0000      -7.798028      -212.1951 
  25   0.0000      -7.798028      -212.1951 
  26   0.0000      -7.798028      -212.1951 
  27   0.0000      -7.730697      -210.3630 
  28   0.0000      -7.730697      -210.3630 
  29   0.0000      -7.730697      -210.3630 
  30   0.0000      -5.105448      -138.9263 
  31   0.0000      -5.105448      -138.9263 
  32   0.0000      -5.105448      -138.9263 
  33   0.0000      -5.105448      -138.9263 
  34   0.0000      -5.105448      -138.9263 
  35   0.0000      -5.089218      -138.4847 
  36   0.0000      -5.089218      -138.4847 
  37   0.0000      -5.089218      -138.4847 
  38   0.0000      -5.089218      -138.4847 
  39   0.0000      -5.089218      -138.4847 
  40   0.0000      -5.089218      -138.4847 
  41   0.0000      -5.089218      -138.4847 
  42   0.0000      -5.089218      -138.4847 
  43   0.0000      -5.089218      -138.4847 
  44   0.0000      -5.062931      -137.7694 
  45   0.0000      -4.931558      -134.1945 
  46   0.0000      -4.931558      -134.1945 
  47   0.0000      -4.931558      -134.1945 
  48   0.0000      -4.931558      -134.1945 
  49   0.0000      -4.931558      -134.1945 
  50   0.0000      -4.931558      -134.1945 
  51   0.0000      -4.931558      -134.1945 
  52   0.0000      -4.926293      -134.0512 
  53   0.0000      -4.926293      -134.0512 
  54   0.0000      -4.926293      -134.0512 
  55   0.0000      -3.500171       -95.2445 
  56   0.0000      -3.500171       -95.2445 
  57   0.0000      -3.500171       -95.2445 
  58   0.0000      -3.500171       -95.2445 
  59   0.0000      -3.500171       -95.2445 
  60   0.0000      -3.479121       -94.6717 
  61   0.0000      -3.419787       -93.0571 
  62   0.0000      -3.419787       -93.0571 
  63   0.0000      -3.419787       -93.0571 
  64   0.0000      -2.704554       -73.5947 
  65   0.0000      -2.704554       -73.5947 
  66   0.0000      -2.704554       -73.5947 
  67   0.0000      -2.704554       -73.5947 
  68   0.0000      -2.704554       -73.5947 
  69   0.0000      -2.704554       -73.5947 
  70   0.0000      -2.704554       -73.5947 
  71   0.0000      -2.704554       -73.5947 
  72   0.0000      -2.704554       -73.5947 
  73   0.0000      -2.704554       -73.5947 
  74   0.0000      -2.704554       -73.5947 
  75   0.0000      -2.482206       -67.5443 
  76   0.0000      -2.482206       -67.5443 
  77   0.0000      -2.482206       -67.5443 
  78   0.0000      -1.831764       -49.8448 
  79   0.0000      -1.831764       -49.8448 
  80   0.0000      -1.831764       -49.8448 
  81   0.0000      -1.831764       -49.8448 
  82   0.0000      -1.831764       -49.8448 
  83   0.0000      -1.831764       -49.8448 
  84   0.0000      -1.831764       -49.8448 
  85   0.0000      -1.831764       -49.8448 
  86   0.0000      -1.831764       -49.8448 
  87   0.0000      -1.542158       -41.9643 
  88   0.0000      -1.542158       -41.9643 
  89   0.0000      -1.542158       -41.9643 
  90   0.0000      -1.542158       -41.9643 
  91   0.0000      -1.542158       -41.9643 
  92   0.0000      -1.542158       -41.9643 
  93   0.0000      -1.542158       -41.9643 
  94   0.0000       0.658610        17.9217 
  95   0.0000       0.658610        17.9217 
  96   0.0000       0.658610        17.9217 
  97   0.0000       0.658610        17.9217 
  98   0.0000       0.658610        17.9217 
  99   0.0000      30.694273       835.2336 
 100   0.0000      43.499015      1183.6684 
 101   0.0000      43.499015      1183.6684 
 102   0.0000      43.499015      1183.6684 
 103   0.0000      43.499015      1183.6684 
 104   0.0000      43.499015      1183.6684 

                    ********************************
                    * MULLIKEN POPULATION ANALYSIS *
                    ********************************

-----------------------
MULLIKEN ATOMIC CHARGES
-----------------------
   0 Ar:   16.000000
Sum of atomic charges:   16.0000000

--------------------------------
MULLIKEN REDUCED ORBITAL CHARGES
--------------------------------
  0 Ars       :     2.000000  s :     2.000000
      pz      :     0.000000  p :     0.000000
      px      :     0.000000
      py      :     0.000000
      dz2     :     0.000000  d :     0.000000
      dxz     :     0.000000
      dyz     :     0.000000
      dx2y2   :     0.000000
      dxy     :     0.000000
      f0      :     0.000000  f :     0.000000
      f+1     :     0.000000
      f-1     :     0.000000
      f+2     :     0.000000
      f-2     :     0.000000
      f+3     :     0.000000
      f-3     :     0.000000
      g0      :     0.000000  g :     0.000000
      g+1     :     0.000000
      g-1     :     0.000000
      g+2     :     0.000000
      g-2     :     0.000000
      g+3     :     0.000000
      g-3     :     0.000000
      g+4     :     0.000000
      g-4     :     0.000000
      h0      :     0.000000  h :     0.000000
      h+1     :     0.000000
      h-1     :     0.000000
      h+2     :     0.000000
      h-2     :     0.000000
      h+3     :     0.000000
      h-3     :     0.000000
      h+4     :     0.000000
      h-4     :     0.000000
      h+5     :     0.000000
      h-5     :     0.000000


                     *******************************
                     * LOEWDIN POPULATION ANALYSIS *
                     *******************************

----------------------
LOEWDIN ATOMIC CHARGES
----------------------
   0 Ar:   16.000000

-------------------------------
LOEWDIN REDUCED ORBITAL CHARGES
-------------------------------
  0 Ars       :     2.000000  s :     2.000000
      pz      :     0.000000  p :     0.000000
      px      :     0.000000
      py      :     0.000000
      dz2     :     0.000000  d :     0.000000
      dxz     :     0.000000
      dyz     :     0.000000
      dx2y2   :     0.000000
      dxy     :     0.000000
      f0      :     0.000000  f :     0.000000
      f+1     :     0.000000
      f-1     :     0.000000
      f+2     :     0.000000
      f-2     :     0.000000
      f+3     :     0.000000
      f-3     :     0.000000
      g0      :     0.000000  g :     0.000000
      g+1     :     0.000000
      g-1     :     0.000000
      g+2     :     0.000000
      g-2     :     0.000000
      g+3     :     0.000000
      g-3     :     0.000000
      g+4     :     0.000000
      g-4     :     0.000000
      h0      :     0.000000  h :     0.000000
      h+1     :     0.000000
      h-1     :     0.000000
      h+2     :     0.000000
      h-2     :     0.000000
      h+3     :     0.000000
      h-3     :     0.000000
      h+4     :     0.000000
      h-4     :     0.000000
      h+5     :     0.000000
      h-5     :     0.000000


                      *****************************
                      * MAYER POPULATION ANALYSIS *
                      *****************************

  NA   - Mulliken gross atomic population
  ZA   - Total nuclear charge
  QA   - Mulliken gross atomic charge
  VA   - Mayer's total valence
  BVA  - Mayer's bonded valence
  FA   - Mayer's free valence

  ATOM       NA         ZA         QA         VA         BVA        FA
  0 Ar     2.0000    18.0000    16.0000    -0.0000     0.0000    -0.0000

  Mayer bond orders larger than 0.100000


--------------------------
ATOM BASIS FOR ELEMENT Ar
--------------------------
 NewGTO Ar
 S 43
    1    9445100.000000000000         0.000001293176
    2    1414100.000000000000         0.000010059238
    3     321810.000000000000         0.000052922111
    4      91158.000000000000         0.000223622996
    5      29743.000000000000         0.000815174764
    6      10740.000000000000         0.002659694770
    7       4190.000000000000         0.007925326861
    8       1738.900000000000         0.021708816806
    9        759.290000000000         0.054275039642
   10        345.500000000000         0.120932278393
   11        162.360000000000         0.226840448828
   12         78.888000000000         0.316289647044
   13         39.321000000000         0.277780128509
   14         19.918000000000         0.111201980222
   15          9.576400000000         0.010267273138
   16      29743.000000000000         0.000000051890
   17      10740.000000000000         0.000000037286
   18       4190.000000000000         0.000002181365
   19       1738.900000000000         0.000009466198
   20        759.290000000000         0.000071815681
   21        345.500000000000         0.000311083573
   22        162.360000000000         0.001427443948
   23         78.888000000000         0.003843550954
   24         39.321000000000         0.008244913295
   25         19.918000000000         0.000979350834
   26          9.576400000000        -0.018531324065
   27          4.916100000000        -0.033857768163
   28      10740.000000000000        -0.000000107235
   29       4190.000000000000        -0.000000804352
   30       1738.900000000000        -0.000005374727
   31        759.290000000000        -0.000031008326
   32        345.500000000000        -0.000152683221
   33        162.360000000000        -0.000645146691
   34         78.888000000000        -0.001865535469
   35         39.321000000000        -0.003808853521
   36         19.918000000000        -0.000924391149
   37          9.576400000000         0.010850670287
   38          4.916100000000         0.022083771605
   39          2.464800000000         0.015195276276
   40          1.183000000000        -0.010037658052
   41          0.575210000000         0.004916868062
   42          0.270410000000        -0.001774153112
   43          0.123120000000         0.000393123133
 S 43
    1    9445100.000000000000         0.000000332713
    2    1414100.000000000000         0.000002588078
    3     321810.000000000000         0.000013615997
    4      91158.000000000000         0.000057534553
    5      29743.000000000000         0.000209731186
    6      10740.000000000000         0.000684296132
    7       4190.000000000000         0.002039057480
    8       1738.900000000000         0.005585324879
    9        759.290000000000         0.013964083438
   10        345.500000000000         0.031113904973
   11        162.360000000000         0.058362351745
   12         78.888000000000         0.081376173119
   13         39.321000000000         0.071468301406
   14         19.918000000000         0.028610457782
   15          9.576400000000         0.002641602102
   16      29743.000000000000         0.000000521941
   17      10740.000000000000         0.000000375041
   18       4190.000000000000         0.000021941376
   19       1738.900000000000         0.000095216242
   20        759.290000000000         0.000722361768
   21        345.500000000000         0.003129050347
   22        162.360000000000         0.014358019406
   23         78.888000000000         0.038660557744
   24         39.321000000000         0.082931890414
   25         19.918000000000         0.009850851449
   26          9.576400000000        -0.186398289658
   27          4.916100000000        -0.340560127012
   28      10740.000000000000         0.000001732622
   29       4190.000000000000         0.000012996077
   30       1738.900000000000         0.000086840576
   31        759.290000000000         0.000501007970
   32        345.500000000000         0.002466934565
   33        162.360000000000         0.010423769297
   34         78.888000000000         0.030141844675
   35         39.321000000000         0.061540438720
   36         19.918000000000         0.014935580098
   37          9.576400000000        -0.175316537168
   38          4.916100000000        -0.356812092074
   39          2.464800000000        -0.245513239981
   40          1.183000000000         0.299165049065
   41          0.575210000000        -0.268016206236
   42          0.270410000000         0.141387335031
   43          0.123120000000        -0.038971382509
 S 43
    1    9445100.000000000000         0.000000087817
    2    1414100.000000000000         0.000000683102
    3     321810.000000000000         0.000003593829
    4      91158.000000000000         0.000015185768
    5      29743.000000000000         0.000055356807
    6      10740.000000000000         0.000180614290
    7       4190.000000000000         0.000538192313
    8       1738.900000000000         0.001474200185
    9        759.290000000000         0.003685704026
   10        345.500000000000         0.008212257206
   11        162.360000000000         0.015404258773
   12         78.888000000000         0.021478566083
   13         39.321000000000         0.018863465505
   14         19.918000000000         0.007551493079
   15          9.576400000000         0.000697228969
   16      29743.000000000000        -0.000000105320
   17      10740.000000000000        -0.000000075678
   18       4190.000000000000        -0.000004427446
   19       1738.900000000000        -0.000019213233
   20        759.290000000000        -0.000145761950
   21        345.500000000000        -0.000631396209
   22        162.360000000000        -0.002897236545
   23         78.888000000000        -0.007801130335
   24         39.321000000000        -0.016734432295
   25         19.918000000000        -0.001987756529
   26          9.576400000000         0.037612425601
   27          4.916100000000         0.068720010594
   28      10740.000000000000         0.000003488261
   29       4190.000000000000         0.000026164795
   30       1738.900000000000         0.000174834745
   31        759.290000000000         0.001008671350
   32        345.500000000000         0.004966639985
   33        162.360000000000         0.020986008350
   34         78.888000000000         0.060684094784
   35         39.321000000000         0.123898383017
   36         19.918000000000         0.030069565021
   37          9.576400000000        -0.352961986021
   38          4.916100000000        -0.718364089829
   39          2.464800000000        -0.494287887372
   40          1.183000000000         2.406934871224
   41          0.575210000000        -1.080001808182
   42          0.270410000000         0.548861550407
   43          0.123120000000        -0.146710670772
 S 43
    1    9445100.000000000000         0.000000032622
    2    1414100.000000000000         0.000000253758
    3     321810.000000000000         0.000001335033
    4      91158.000000000000         0.000005641198
    5      29743.000000000000         0.000020563904
    6      10740.000000000000         0.000067094457
    7       4190.000000000000         0.000199927267
    8       1738.900000000000         0.000547634752
    9        759.290000000000         0.001369162498
   10        345.500000000000         0.003050682993
   11        162.360000000000         0.005722362206
   12         78.888000000000         0.007978841215
   13         39.321000000000         0.007007385663
   14         19.918000000000         0.002805222843
   15          9.576400000000         0.000259006081
   16      29743.000000000000        -0.000000261518
   17      10740.000000000000        -0.000000187914
   18       4190.000000000000        -0.000010993693
   19       1738.900000000000        -0.000047707951
   20        759.290000000000        -0.000361938249
   21        345.500000000000        -0.001567805848
   22        162.360000000000        -0.007194063469
   23         78.888000000000        -0.019370812805
   24         39.321000000000        -0.041552895729
   25         19.918000000000        -0.004935753919
   26          9.576400000000         0.093394575422
   27          4.916100000000         0.170637126157
   28      10740.000000000000         0.000003126032
   29       4190.000000000000         0.000023447785
   30       1738.900000000000         0.000156679519
   31        759.290000000000         0.000903928685
   32        345.500000000000         0.004450893101
   33        162.360000000000         0.018806774814
   34         78.888000000000         0.054382524127
   35         39.321000000000         0.111032500816
   36         19.918000000000         0.026947074864
   37          9.576400000000        -0.316309632512
   38          4.916100000000        -0.643767573457
   39          2.464800000000        -0.442959939602
   40          1.183000000000         3.756891828575
   41          0.575210000000        -3.633144265388
   42          0.270410000000         0.574538358438
   43          0.123120000000        -0.188173508334
 S 43
    1    9445100.000000000000         0.000000016763
    2    1414100.000000000000         0.000000130395
    3     321810.000000000000         0.000000686012
    4      91158.000000000000         0.000002898750
    5      29743.000000000000         0.000010566838
    6      10740.000000000000         0.000034476734
    7       4190.000000000000         0.000102733363
    8       1738.900000000000         0.000281404136
    9        759.290000000000         0.000703549197
   10        345.500000000000         0.001567604702
   11        162.360000000000         0.002940456915
   12         78.888000000000         0.004099956972
   13         39.321000000000         0.003600770955
   14         19.918000000000         0.001441474099
   15          9.576400000000         0.000133091230
   16      29743.000000000000        -0.000000271199
   17      10740.000000000000        -0.000000194870
   18       4190.000000000000        -0.000011400678
   19       1738.900000000000        -0.000049474093
   20        759.290000000000        -0.000375337156
   21        345.500000000000        -0.001625845816
   22        162.360000000000        -0.007460386757
   23         78.888000000000        -0.020087917759
   24         39.321000000000        -0.043091178489
   25         19.918000000000        -0.005118474883
   26          9.576400000000         0.096852030377
   27          4.916100000000         0.176954090228
   28      10740.000000000000         0.000002507046
   29       4190.000000000000         0.000018804887
   30       1738.900000000000         0.000125655391
   31        759.290000000000         0.000724941674
   32        345.500000000000         0.003569571302
   33        162.360000000000         0.015082843407
   34         78.888000000000         0.043614234954
   35         39.321000000000         0.089046943958
   36         19.918000000000         0.021611281810
   37          9.576400000000        -0.253677129782
   38          4.916100000000        -0.516295090303
   39          2.464800000000        -0.355249396594
   40          1.183000000000         4.058513846190
   41          0.575210000000        -6.705477344126
   42          0.270410000000         3.890459192948
   43          0.123120000000        -0.089988027102
 S 43
    1    9445100.000000000000        -0.000000007574
    2    1414100.000000000000        -0.000000058919
    3     321810.000000000000        -0.000000309975
    4      91158.000000000000        -0.000001309804
    5      29743.000000000000        -0.000004774639
    6      10740.000000000000        -0.000015578356
    7       4190.000000000000        -0.000046420200
    8       1738.900000000000        -0.000127152815
    9        759.290000000000        -0.000317899596
   10        345.500000000000        -0.000708324170
   11        162.360000000000        -0.001328649181
   12         78.888000000000        -0.001852570750
   13         39.321000000000        -0.001627012916
   14         19.918000000000        -0.000651331897
   15          9.576400000000        -0.000060137441
   16      29743.000000000000         0.000000188066
   17      10740.000000000000         0.000000135135
   18       4190.000000000000         0.000007905938
   19       1738.900000000000         0.000034308411
   20        759.290000000000         0.000260282114
   21        345.500000000000         0.001127462549
   22        162.360000000000         0.005173495906
   23         78.888000000000         0.013930210816
   24         39.321000000000         0.029882101662
   25         19.918000000000         0.003549468642
   26          9.576400000000        -0.067163218075
   27          4.916100000000        -0.122710965428
   28      10740.000000000000        -0.000001700317
   29       4190.000000000000        -0.000012753762
   30       1738.900000000000        -0.000085221411
   31        759.290000000000        -0.000491666546
   32        345.500000000000        -0.002420937927
   33        162.360000000000        -0.010229415399
   34         78.888000000000        -0.029579842118
   35         39.321000000000        -0.060393001187
   36         19.918000000000        -0.014657102311
   37          9.576400000000         0.172047714601
   38          4.916100000000         0.350159237542
   39          2.464800000000         0.240935581579
   40          1.183000000000        -3.344478190677
   41          0.575210000000         7.393434710178
   42          0.270410000000        -8.041020847734
   43          0.123120000000         3.893007638524
 S 43
    1    9445100.000000000000        -0.000001871780
    2    1414100.000000000000        -0.000014560023
    3     321810.000000000000        -0.000076600949
    4      91158.000000000000        -0.000323678206
    5      29743.000000000000        -0.001179906853
    6      10740.000000000000        -0.003849716925
    7       4190.000000000000        -0.011471340734
    8       1738.900000000000        -0.031421951281
    9        759.290000000000        -0.078559217053
   10        345.500000000000        -0.175040776933
   11        162.360000000000        -0.328335237957
   12         78.888000000000        -0.457806520231
   13         39.321000000000        -0.402066761307
   14         19.918000000000        -0.160956870021
   15          9.576400000000        -0.014861139565
   16      29743.000000000000         0.000023106664
   17      10740.000000000000         0.000016603296
   18       4190.000000000000         0.000971358498
   19       1738.900000000000         0.004215282850
   20        759.290000000000         0.031979409417
   21        345.500000000000         0.138525025193
   22        162.360000000000         0.635638541800
   23         78.888000000000         1.711527185894
   24         39.321000000000         3.671446903624
   25         19.918000000000         0.436103383994
   26          9.576400000000        -8.251969417152
   27          4.916100000000       -15.076810833208
   28      10740.000000000000        -0.000064633860
   29       4190.000000000000        -0.000484806544
   30       1738.900000000000        -0.003239506658
   31        759.290000000000        -0.018689634866
   32        345.500000000000        -0.092026692212
   33        162.360000000000        -0.388848987828
   34         78.888000000000        -1.124413392037
   35         39.321000000000        -2.295708646738
   36         19.918000000000        -0.557157880039
   37          9.576400000000         6.540019841643
   38          4.916100000000        13.310542174719
   39          2.464800000000         9.158642343719
   40          1.183000000000       -12.601135792478
   41          0.575210000000        10.138232021870
   42          0.270410000000        -5.132048573339
   43          0.123120000000         1.392033328254
 P 26
    1      13006.000000000000         0.000019209078
    2       3078.100000000000         0.000171502367
    3        999.560000000000         0.000999898288
    4        380.970000000000         0.004551018858
    5        160.280000000000         0.016765957893
    6         74.494000000000         0.048221574908
    7         36.065000000000         0.120061158827
    8         18.164000000000         0.230744058837
    9          9.466500000000         0.323620641799
   10          5.163000000000         0.318781248112
   11          2.808500000000         0.208555770245
   12       3078.100000000000        -0.000001233637
   13        999.560000000000         0.000000817711
   14        380.970000000000        -0.000020316576
   15        160.280000000000         0.000114346191
   16         74.494000000000         0.000245993560
   17         36.065000000000         0.003738683233
   18         18.164000000000         0.007385893093
   19          9.466500000000         0.034254182569
   20          5.163000000000        -0.000743154028
   21          2.808500000000        -0.000537696955
   22          1.523500000000        -0.381149496384
   23          0.743790000000         0.352325692549
   24          0.356800000000        -0.222894279550
   25          0.162210000000         0.101123186904
   26          0.069956000000        -0.028391068345
 P 26
    1      13006.000000000000         0.000006634369
    2       3078.100000000000         0.000059232926
    3        999.560000000000         0.000345341594
    4        380.970000000000         0.001571815982
    5        160.280000000000         0.005790571604
    6         74.494000000000         0.016654609545
    7         36.065000000000         0.041466329658
    8         18.164000000000         0.079693627014
    9          9.466500000000         0.111771036930
   10          5.163000000000         0.110099622994
   11          2.808500000000         0.072030308599
   12       3078.100000000000        -0.000005054229
   13        999.560000000000         0.000003350173
   14        380.970000000000        -0.000083237287
   15        160.280000000000         0.000468477887
   16         74.494000000000         0.001007838929
   17         36.065000000000         0.015317435562
   18         18.164000000000         0.030260103482
   19          9.466500000000         0.140339847354
   20          5.163000000000        -0.003044712060
   21          2.808500000000        -0.002202951668
   22          1.523500000000        -1.561574620377
   23          0.743790000000         0.712799693641
   24          0.356800000000        -0.478099192536
   25          0.162210000000         0.214466330897
   26          0.069956000000        -0.059631465897
 P 26
    1      13006.000000000000        -0.000001783806
    2       3078.100000000000        -0.000015926163
    3        999.560000000000        -0.000092853198
    4        380.970000000000        -0.000422619641
    5        160.280000000000        -0.001556931169
    6         74.494000000000        -0.004477982916
    7         36.065000000000        -0.011149196580
    8         18.164000000000        -0.021427503255
    9          9.466500000000        -0.030052268260
   10          5.163000000000        -0.029602869370
   11          2.808500000000        -0.019367040124
   12       3078.100000000000         0.000005721611
   13        999.560000000000        -0.000003792545
   14        380.970000000000         0.000094228293
   15        160.280000000000        -0.000530337705
   16         74.494000000000        -0.001140918279
   17         36.065000000000        -0.017340015082
   18         18.164000000000        -0.034255776606
   19          9.466500000000        -0.158870919350
   20          5.163000000000         0.003446748826
   21          2.808500000000         0.002493838802
   22          1.523500000000         1.767771593384
   23          0.743790000000        -2.086631088401
   24          0.356800000000         0.179258678170
   25          0.162210000000        -0.187515844007
   26          0.069956000000         0.053704842451
 P 26
    1      13006.000000000000        -0.000000036948
    2       3078.100000000000        -0.000000329881
    3        999.560000000000        -0.000001923284
    4        380.970000000000        -0.000008753792
    5        160.280000000000        -0.000032248979
    6         74.494000000000        -0.000092753217
    7         36.065000000000        -0.000230935194
    8         18.164000000000        -0.000443831499
    9          9.466500000000        -0.000622477715
   10          5.163000000000        -0.000613169240
   11          2.808500000000        -0.000401152777
   12       3078.100000000000         0.000005406275
   13        999.560000000000        -0.000003583525
   14        380.970000000000         0.000089035073
   15        160.280000000000        -0.000501109110
   16         74.494000000000        -0.001078038651
   17         36.065000000000        -0.016384351801
   18         18.164000000000        -0.032367832004
   19          9.466500000000        -0.150115038611
   20          5.163000000000         0.003256787556
   21          2.808500000000         0.002356395429
   22          1.523500000000         1.670344088670
   23          0.743790000000        -3.320363197000
   24          0.356800000000         2.015764018094
   25          0.162210000000         0.293012779358
   26          0.069956000000        -0.007383189726
 P 26
    1      13006.000000000000        -0.000000578880
    2       3078.100000000000        -0.000005168355
    3        999.560000000000        -0.000030132698
    4        380.970000000000        -0.000137148428
    5        160.280000000000        -0.000505254941
    6         74.494000000000        -0.001453193974
    7         36.065000000000        -0.003618134681
    8         18.164000000000        -0.006953648374
    9          9.466500000000        -0.009752555107
   10          5.163000000000        -0.009606716284
   11          2.808500000000        -0.006284987357
   12       3078.100000000000        -0.000004740110
   13        999.560000000000         0.000003141961
   14        380.970000000000        -0.000078064107
   15        160.280000000000         0.000439362085
   16         74.494000000000         0.000945201952
   17         36.065000000000         0.014365460178
   18         18.164000000000         0.028379444444
   19          9.466500000000         0.131617755494
   20          5.163000000000        -0.002855483849
   21          2.808500000000        -0.002066038688
   22          1.523500000000        -1.464523087668
   23          0.743790000000         3.838751455590
   24          0.356800000000        -4.523943298511
   25          0.162210000000         2.375194796749
   26          0.069956000000         0.104328061076
 P 26
    1      13006.000000000000        -0.000000535575
    2       3078.100000000000        -0.000004781717
    3        999.560000000000        -0.000027878509
    4        380.970000000000        -0.000126888527
    5        160.280000000000        -0.000467457456
    6         74.494000000000        -0.001344482367
    7         36.065000000000        -0.003347466592
    8         18.164000000000        -0.006433454714
    9          9.466500000000        -0.009022978767
   10          5.163000000000        -0.008888049962
   11          2.808500000000        -0.005814815385
   12       3078.100000000000        -0.000003071701
   13        999.560000000000         0.000002036063
   14        380.970000000000        -0.000050587346
   15        160.280000000000         0.000284716790
   16         74.494000000000         0.000612512721
   17         36.065000000000         0.009309150360
   18         18.164000000000         0.018390536203
   19          9.466500000000         0.085291348889
   20          5.163000000000        -0.001850419560
   21          2.808500000000        -0.001338840842
   22          1.523500000000        -0.949044824220
   23          0.743790000000         2.828341079416
   24          0.356800000000        -4.352296767343
   25          0.162210000000         4.345425468078
   26          0.069956000000        -2.410286796909
 D 6
    1         26.330000000000         0.064378829889
    2          7.530000000000         0.412981744887
    3          2.600000000000         0.628255905295
    4          0.930000000000         0.066064157011
    5          0.410000000000        -0.000844872598
    6          0.170000000000        -0.000985931380
 D 6
    1         26.330000000000         0.049174703229
    2          7.530000000000         0.366647525661
    3          2.600000000000         0.262214114060
    4          0.930000000000        -1.012570885906
    5          0.410000000000        -0.074423333947
    6          0.170000000000        -0.012575799927
 D 6
    1         26.330000000000         0.036237189041
    2          7.530000000000         0.296795382909
    3          2.600000000000         0.044802950530
    4          0.930000000000        -1.188651879180
    5          0.410000000000         1.412357368105
    6          0.170000000000         0.087826283373
 D 6
    1         26.330000000000         0.024550471138
    2          7.530000000000         0.219356054915
    3          2.600000000000        -0.066601520405
    4          0.930000000000        -0.822642837222
    5          0.410000000000         1.822934534430
    6          0.170000000000        -1.617851950252
 D 6
    1         26.330000000000         0.097754628742
    2          7.530000000000         1.109233664711
    3          2.600000000000        -1.866836369523
    4          0.930000000000         1.951830696068
    5          0.410000000000        -1.437215684625
    6          0.170000000000         0.546385176944
 D 6
    1         26.330000000000         1.235298456905
    2          7.530000000000        -1.134089144809
    3          2.600000000000         0.765732874526
    4          0.930000000000        -0.503267061074
    5          0.410000000000         0.302422249736
    6          0.170000000000        -0.101309991432
 F 3
    1          4.530000000000         0.340512493060
    2          1.060000000000         0.858221827493
    3          0.440000000000        -0.042221409046
 F 3
    1          4.530000000000         0.328414114892
    2          1.060000000000         0.452234680056
    3          0.440000000000        -1.154487903651
 F 3
    1          4.530000000000         0.973773973864
    2          1.060000000000        -1.050651845216
    3          0.440000000000         0.701939161187
 G 2
    1          2.180000000000         0.303452193940
    2          0.730000000000         0.824417882746
 G 2
    1          2.180000000000         1.081997621576
    2          0.730000000000        -0.763634232935
 H 1
    1          1.120000000000         1.000000000000
 end
  // -----------------------------------------------
  // The basis set
  // -----------------------------------------------
  BAS[ATNO] = new BFNGauss[NSH];
  // Basis function   1 L = s
  InitBFNGauss(BAS[ATNO][  0]);
  BAS[ATNO][  0].l  = 0;
  BAS[ATNO][  0].ng = 43;
  BAS[ATNO][  0].a[  0] =   9445100.000000000000;     BAS[ATNO][  0].d[  0] =         0.000001293176;
  BAS[ATNO][  0].a[  1] =   1414100.000000000000;     BAS[ATNO][  0].d[  1] =         0.000010059238;
  BAS[ATNO][  0].a[  2] =    321810.000000000000;     BAS[ATNO][  0].d[  2] =         0.000052922111;
  BAS[ATNO][  0].a[  3] =     91158.000000000000;     BAS[ATNO][  0].d[  3] =         0.000223622996;
  BAS[ATNO][  0].a[  4] =     29743.000000000000;     BAS[ATNO][  0].d[  4] =         0.000815174764;
  BAS[ATNO][  0].a[  5] =     10740.000000000000;     BAS[ATNO][  0].d[  5] =         0.002659694770;
  BAS[ATNO][  0].a[  6] =      4190.000000000000;     BAS[ATNO][  0].d[  6] =         0.007925326861;
  BAS[ATNO][  0].a[  7] =      1738.900000000000;     BAS[ATNO][  0].d[  7] =         0.021708816806;
  BAS[ATNO][  0].a[  8] =       759.290000000000;     BAS[ATNO][  0].d[  8] =         0.054275039642;
  BAS[ATNO][  0].a[  9] =       345.500000000000;     BAS[ATNO][  0].d[  9] =         0.120932278393;
  BAS[ATNO][  0].a[ 10] =       162.360000000000;     BAS[ATNO][  0].d[ 10] =         0.226840448828;
  BAS[ATNO][  0].a[ 11] =        78.888000000000;     BAS[ATNO][  0].d[ 11] =         0.316289647044;
  BAS[ATNO][  0].a[ 12] =        39.321000000000;     BAS[ATNO][  0].d[ 12] =         0.277780128509;
  BAS[ATNO][  0].a[ 13] =        19.918000000000;     BAS[ATNO][  0].d[ 13] =         0.111201980222;
  BAS[ATNO][  0].a[ 14] =         9.576400000000;     BAS[ATNO][  0].d[ 14] =         0.010267273138;
  BAS[ATNO][  0].a[ 15] =     29743.000000000000;     BAS[ATNO][  0].d[ 15] =         0.000000051890;
  BAS[ATNO][  0].a[ 16] =     10740.000000000000;     BAS[ATNO][  0].d[ 16] =         0.000000037286;
  BAS[ATNO][  0].a[ 17] =      4190.000000000000;     BAS[ATNO][  0].d[ 17] =         0.000002181365;
  BAS[ATNO][  0].a[ 18] =      1738.900000000000;     BAS[ATNO][  0].d[ 18] =         0.000009466198;
  BAS[ATNO][  0].a[ 19] =       759.290000000000;     BAS[ATNO][  0].d[ 19] =         0.000071815681;
  BAS[ATNO][  0].a[ 20] =       345.500000000000;     BAS[ATNO][  0].d[ 20] =         0.000311083573;
  BAS[ATNO][  0].a[ 21] =       162.360000000000;     BAS[ATNO][  0].d[ 21] =         0.001427443948;
  BAS[ATNO][  0].a[ 22] =        78.888000000000;     BAS[ATNO][  0].d[ 22] =         0.003843550954;
  BAS[ATNO][  0].a[ 23] =        39.321000000000;     BAS[ATNO][  0].d[ 23] =         0.008244913295;
  BAS[ATNO][  0].a[ 24] =        19.918000000000;     BAS[ATNO][  0].d[ 24] =         0.000979350834;
  BAS[ATNO][  0].a[ 25] =         9.576400000000;     BAS[ATNO][  0].d[ 25] =        -0.018531324065;
  BAS[ATNO][  0].a[ 26] =         4.916100000000;     BAS[ATNO][  0].d[ 26] =        -0.033857768163;
  BAS[ATNO][  0].a[ 27] =     10740.000000000000;     BAS[ATNO][  0].d[ 27] =        -0.000000107235;
  BAS[ATNO][  0].a[ 28] =      4190.000000000000;     BAS[ATNO][  0].d[ 28] =        -0.000000804352;
  BAS[ATNO][  0].a[ 29] =      1738.900000000000;     BAS[ATNO][  0].d[ 29] =        -0.000005374727;
  BAS[ATNO][  0].a[ 30] =       759.290000000000;     BAS[ATNO][  0].d[ 30] =        -0.000031008326;
  BAS[ATNO][  0].a[ 31] =       345.500000000000;     BAS[ATNO][  0].d[ 31] =        -0.000152683221;
  BAS[ATNO][  0].a[ 32] =       162.360000000000;     BAS[ATNO][  0].d[ 32] =        -0.000645146691;
  BAS[ATNO][  0].a[ 33] =        78.888000000000;     BAS[ATNO][  0].d[ 33] =        -0.001865535469;
  BAS[ATNO][  0].a[ 34] =        39.321000000000;     BAS[ATNO][  0].d[ 34] =        -0.003808853521;
  BAS[ATNO][  0].a[ 35] =        19.918000000000;     BAS[ATNO][  0].d[ 35] =        -0.000924391149;
  BAS[ATNO][  0].a[ 36] =         9.576400000000;     BAS[ATNO][  0].d[ 36] =         0.010850670287;
  BAS[ATNO][  0].a[ 37] =         4.916100000000;     BAS[ATNO][  0].d[ 37] =         0.022083771605;
  BAS[ATNO][  0].a[ 38] =         2.464800000000;     BAS[ATNO][  0].d[ 38] =         0.015195276276;
  BAS[ATNO][  0].a[ 39] =         1.183000000000;     BAS[ATNO][  0].d[ 39] =        -0.010037658052;
  BAS[ATNO][  0].a[ 40] =         0.575210000000;     BAS[ATNO][  0].d[ 40] =         0.004916868062;
  BAS[ATNO][  0].a[ 41] =         0.270410000000;     BAS[ATNO][  0].d[ 41] =        -0.001774153112;
  BAS[ATNO][  0].a[ 42] =         0.123120000000;     BAS[ATNO][  0].d[ 42] =         0.000393123133;

  // Basis function   2 L = s
  InitBFNGauss(BAS[ATNO][  1]);
  BAS[ATNO][  1].l  = 0;
  BAS[ATNO][  1].ng = 43;
  BAS[ATNO][  1].a[  0] =   9445100.000000000000;     BAS[ATNO][  1].d[  0] =        -0.000000332713;
  BAS[ATNO][  1].a[  1] =   1414100.000000000000;     BAS[ATNO][  1].d[  1] =        -0.000002588078;
  BAS[ATNO][  1].a[  2] =    321810.000000000000;     BAS[ATNO][  1].d[  2] =        -0.000013615997;
  BAS[ATNO][  1].a[  3] =     91158.000000000000;     BAS[ATNO][  1].d[  3] =        -0.000057534553;
  BAS[ATNO][  1].a[  4] =     29743.000000000000;     BAS[ATNO][  1].d[  4] =        -0.000209731186;
  BAS[ATNO][  1].a[  5] =     10740.000000000000;     BAS[ATNO][  1].d[  5] =        -0.000684296132;
  BAS[ATNO][  1].a[  6] =      4190.000000000000;     BAS[ATNO][  1].d[  6] =        -0.002039057480;
  BAS[ATNO][  1].a[  7] =      1738.900000000000;     BAS[ATNO][  1].d[  7] =        -0.005585324879;
  BAS[ATNO][  1].a[  8] =       759.290000000000;     BAS[ATNO][  1].d[  8] =        -0.013964083438;
  BAS[ATNO][  1].a[  9] =       345.500000000000;     BAS[ATNO][  1].d[  9] =        -0.031113904973;
  BAS[ATNO][  1].a[ 10] =       162.360000000000;     BAS[ATNO][  1].d[ 10] =        -0.058362351745;
  BAS[ATNO][  1].a[ 11] =        78.888000000000;     BAS[ATNO][  1].d[ 11] =        -0.081376173119;
  BAS[ATNO][  1].a[ 12] =        39.321000000000;     BAS[ATNO][  1].d[ 12] =        -0.071468301406;
  BAS[ATNO][  1].a[ 13] =        19.918000000000;     BAS[ATNO][  1].d[ 13] =        -0.028610457782;
  BAS[ATNO][  1].a[ 14] =         9.576400000000;     BAS[ATNO][  1].d[ 14] =        -0.002641602102;
  BAS[ATNO][  1].a[ 15] =     29743.000000000000;     BAS[ATNO][  1].d[ 15] =        -0.000000521941;
  BAS[ATNO][  1].a[ 16] =     10740.000000000000;     BAS[ATNO][  1].d[ 16] =        -0.000000375041;
  BAS[ATNO][  1].a[ 17] =      4190.000000000000;     BAS[ATNO][  1].d[ 17] =        -0.000021941376;
  BAS[ATNO][  1].a[ 18] =      1738.900000000000;     BAS[ATNO][  1].d[ 18] =        -0.000095216242;
  BAS[ATNO][  1].a[ 19] =       759.290000000000;     BAS[ATNO][  1].d[ 19] =        -0.000722361768;
  BAS[ATNO][  1].a[ 20] =       345.500000000000;     BAS[ATNO][  1].d[ 20] =        -0.003129050347;
  BAS[ATNO][  1].a[ 21] =       162.360000000000;     BAS[ATNO][  1].d[ 21] =        -0.014358019406;
  BAS[ATNO][  1].a[ 22] =        78.888000000000;     BAS[ATNO][  1].d[ 22] =        -0.038660557744;
  BAS[ATNO][  1].a[ 23] =        39.321000000000;     BAS[ATNO][  1].d[ 23] =        -0.082931890414;
  BAS[ATNO][  1].a[ 24] =        19.918000000000;     BAS[ATNO][  1].d[ 24] =        -0.009850851449;
  BAS[ATNO][  1].a[ 25] =         9.576400000000;     BAS[ATNO][  1].d[ 25] =         0.186398289658;
  BAS[ATNO][  1].a[ 26] =         4.916100000000;     BAS[ATNO][  1].d[ 26] =         0.340560127012;
  BAS[ATNO][  1].a[ 27] =     10740.000000000000;     BAS[ATNO][  1].d[ 27] =        -0.000001732622;
  BAS[ATNO][  1].a[ 28] =      4190.000000000000;     BAS[ATNO][  1].d[ 28] =        -0.000012996077;
  BAS[ATNO][  1].a[ 29] =      1738.900000000000;     BAS[ATNO][  1].d[ 29] =        -0.000086840576;
  BAS[ATNO][  1].a[ 30] =       759.290000000000;     BAS[ATNO][  1].d[ 30] =        -0.000501007970;
  BAS[ATNO][  1].a[ 31] =       345.500000000000;     BAS[ATNO][  1].d[ 31] =        -0.002466934565;
  BAS[ATNO][  1].a[ 32] =       162.360000000000;     BAS[ATNO][  1].d[ 32] =        -0.010423769297;
  BAS[ATNO][  1].a[ 33] =        78.888000000000;     BAS[ATNO][  1].d[ 33] =        -0.030141844675;
  BAS[ATNO][  1].a[ 34] =        39.321000000000;     BAS[ATNO][  1].d[ 34] =        -0.061540438720;
  BAS[ATNO][  1].a[ 35] =        19.918000000000;     BAS[ATNO][  1].d[ 35] =        -0.014935580098;
  BAS[ATNO][  1].a[ 36] =         9.576400000000;     BAS[ATNO][  1].d[ 36] =         0.175316537168;
  BAS[ATNO][  1].a[ 37] =         4.916100000000;     BAS[ATNO][  1].d[ 37] =         0.356812092074;
  BAS[ATNO][  1].a[ 38] =         2.464800000000;     BAS[ATNO][  1].d[ 38] =         0.245513239981;
  BAS[ATNO][  1].a[ 39] =         1.183000000000;     BAS[ATNO][  1].d[ 39] =        -0.299165049065;
  BAS[ATNO][  1].a[ 40] =         0.575210000000;     BAS[ATNO][  1].d[ 40] =         0.268016206236;
  BAS[ATNO][  1].a[ 41] =         0.270410000000;     BAS[ATNO][  1].d[ 41] =        -0.141387335031;
  BAS[ATNO][  1].a[ 42] =         0.123120000000;     BAS[ATNO][  1].d[ 42] =         0.038971382509;

  // Basis function   3 L = s
  InitBFNGauss(BAS[ATNO][  2]);
  BAS[ATNO][  2].l  = 0;
  BAS[ATNO][  2].ng = 43;
  BAS[ATNO][  2].a[  0] =   9445100.000000000000;     BAS[ATNO][  2].d[  0] =         0.000000087817;
  BAS[ATNO][  2].a[  1] =   1414100.000000000000;     BAS[ATNO][  2].d[  1] =         0.000000683102;
  BAS[ATNO][  2].a[  2] =    321810.000000000000;     BAS[ATNO][  2].d[  2] =         0.000003593829;
  BAS[ATNO][  2].a[  3] =     91158.000000000000;     BAS[ATNO][  2].d[  3] =         0.000015185768;
  BAS[ATNO][  2].a[  4] =     29743.000000000000;     BAS[ATNO][  2].d[  4] =         0.000055356807;
  BAS[ATNO][  2].a[  5] =     10740.000000000000;     BAS[ATNO][  2].d[  5] =         0.000180614290;
  BAS[ATNO][  2].a[  6] =      4190.000000000000;     BAS[ATNO][  2].d[  6] =         0.000538192313;
  BAS[ATNO][  2].a[  7] =      1738.900000000000;     BAS[ATNO][  2].d[  7] =         0.001474200185;
  BAS[ATNO][  2].a[  8] =       759.290000000000;     BAS[ATNO][  2].d[  8] =         0.003685704026;
  BAS[ATNO][  2].a[  9] =       345.500000000000;     BAS[ATNO][  2].d[  9] =         0.008212257206;
  BAS[ATNO][  2].a[ 10] =       162.360000000000;     BAS[ATNO][  2].d[ 10] =         0.015404258773;
  BAS[ATNO][  2].a[ 11] =        78.888000000000;     BAS[ATNO][  2].d[ 11] =         0.021478566083;
  BAS[ATNO][  2].a[ 12] =        39.321000000000;     BAS[ATNO][  2].d[ 12] =         0.018863465505;
  BAS[ATNO][  2].a[ 13] =        19.918000000000;     BAS[ATNO][  2].d[ 13] =         0.007551493079;
  BAS[ATNO][  2].a[ 14] =         9.576400000000;     BAS[ATNO][  2].d[ 14] =         0.000697228969;
  BAS[ATNO][  2].a[ 15] =     29743.000000000000;     BAS[ATNO][  2].d[ 15] =        -0.000000105320;
  BAS[ATNO][  2].a[ 16] =     10740.000000000000;     BAS[ATNO][  2].d[ 16] =        -0.000000075678;
  BAS[ATNO][  2].a[ 17] =      4190.000000000000;     BAS[ATNO][  2].d[ 17] =        -0.000004427446;
  BAS[ATNO][  2].a[ 18] =      1738.900000000000;     BAS[ATNO][  2].d[ 18] =        -0.000019213233;
  BAS[ATNO][  2].a[ 19] =       759.290000000000;     BAS[ATNO][  2].d[ 19] =        -0.000145761950;
  BAS[ATNO][  2].a[ 20] =       345.500000000000;     BAS[ATNO][  2].d[ 20] =        -0.000631396209;
  BAS[ATNO][  2].a[ 21] =       162.360000000000;     BAS[ATNO][  2].d[ 21] =        -0.002897236545;
  BAS[ATNO][  2].a[ 22] =        78.888000000000;     BAS[ATNO][  2].d[ 22] =        -0.007801130335;
  BAS[ATNO][  2].a[ 23] =        39.321000000000;     BAS[ATNO][  2].d[ 23] =        -0.016734432295;
  BAS[ATNO][  2].a[ 24] =        19.918000000000;     BAS[ATNO][  2].d[ 24] =        -0.001987756529;
  BAS[ATNO][  2].a[ 25] =         9.576400000000;     BAS[ATNO][  2].d[ 25] =         0.037612425601;
  BAS[ATNO][  2].a[ 26] =         4.916100000000;     BAS[ATNO][  2].d[ 26] =         0.068720010594;
  BAS[ATNO][  2].a[ 27] =     10740.000000000000;     BAS[ATNO][  2].d[ 27] =         0.000003488261;
  BAS[ATNO][  2].a[ 28] =      4190.000000000000;     BAS[ATNO][  2].d[ 28] =         0.000026164795;
  BAS[ATNO][  2].a[ 29] =      1738.900000000000;     BAS[ATNO][  2].d[ 29] =         0.000174834745;
  BAS[ATNO][  2].a[ 30] =       759.290000000000;     BAS[ATNO][  2].d[ 30] =         0.001008671350;
  BAS[ATNO][  2].a[ 31] =       345.500000000000;     BAS[ATNO][  2].d[ 31] =         0.004966639985;
  BAS[ATNO][  2].a[ 32] =       162.360000000000;     BAS[ATNO][  2].d[ 32] =         0.020986008350;
  BAS[ATNO][  2].a[ 33] =        78.888000000000;     BAS[ATNO][  2].d[ 33] =         0.060684094784;
  BAS[ATNO][  2].a[ 34] =        39.321000000000;     BAS[ATNO][  2].d[ 34] =         0.123898383017;
  BAS[ATNO][  2].a[ 35] =        19.918000000000;     BAS[ATNO][  2].d[ 35] =         0.030069565021;
  BAS[ATNO][  2].a[ 36] =         9.576400000000;     BAS[ATNO][  2].d[ 36] =        -0.352961986021;
  BAS[ATNO][  2].a[ 37] =         4.916100000000;     BAS[ATNO][  2].d[ 37] =        -0.718364089829;
  BAS[ATNO][  2].a[ 38] =         2.464800000000;     BAS[ATNO][  2].d[ 38] =        -0.494287887372;
  BAS[ATNO][  2].a[ 39] =         1.183000000000;     BAS[ATNO][  2].d[ 39] =         2.406934871224;
  BAS[ATNO][  2].a[ 40] =         0.575210000000;     BAS[ATNO][  2].d[ 40] =        -1.080001808182;
  BAS[ATNO][  2].a[ 41] =         0.270410000000;     BAS[ATNO][  2].d[ 41] =         0.548861550407;
  BAS[ATNO][  2].a[ 42] =         0.123120000000;     BAS[ATNO][  2].d[ 42] =        -0.146710670772;

  // Basis function   4 L = s
  InitBFNGauss(BAS[ATNO][  3]);
  BAS[ATNO][  3].l  = 0;
  BAS[ATNO][  3].ng = 43;
  BAS[ATNO][  3].a[  0] =   9445100.000000000000;     BAS[ATNO][  3].d[  0] =         0.000000032622;
  BAS[ATNO][  3].a[  1] =   1414100.000000000000;     BAS[ATNO][  3].d[  1] =         0.000000253758;
  BAS[ATNO][  3].a[  2] =    321810.000000000000;     BAS[ATNO][  3].d[  2] =         0.000001335033;
  BAS[ATNO][  3].a[  3] =     91158.000000000000;     BAS[ATNO][  3].d[  3] =         0.000005641198;
  BAS[ATNO][  3].a[  4] =     29743.000000000000;     BAS[ATNO][  3].d[  4] =         0.000020563904;
  BAS[ATNO][  3].a[  5] =     10740.000000000000;     BAS[ATNO][  3].d[  5] =         0.000067094457;
  BAS[ATNO][  3].a[  6] =      4190.000000000000;     BAS[ATNO][  3].d[  6] =         0.000199927267;
  BAS[ATNO][  3].a[  7] =      1738.900000000000;     BAS[ATNO][  3].d[  7] =         0.000547634752;
  BAS[ATNO][  3].a[  8] =       759.290000000000;     BAS[ATNO][  3].d[  8] =         0.001369162498;
  BAS[ATNO][  3].a[  9] =       345.500000000000;     BAS[ATNO][  3].d[  9] =         0.003050682993;
  BAS[ATNO][  3].a[ 10] =       162.360000000000;     BAS[ATNO][  3].d[ 10] =         0.005722362206;
  BAS[ATNO][  3].a[ 11] =        78.888000000000;     BAS[ATNO][  3].d[ 11] =         0.007978841215;
  BAS[ATNO][  3].a[ 12] =        39.321000000000;     BAS[ATNO][  3].d[ 12] =         0.007007385663;
  BAS[ATNO][  3].a[ 13] =        19.918000000000;     BAS[ATNO][  3].d[ 13] =         0.002805222843;
  BAS[ATNO][  3].a[ 14] =         9.576400000000;     BAS[ATNO][  3].d[ 14] =         0.000259006081;
  BAS[ATNO][  3].a[ 15] =     29743.000000000000;     BAS[ATNO][  3].d[ 15] =        -0.000000261518;
  BAS[ATNO][  3].a[ 16] =     10740.000000000000;     BAS[ATNO][  3].d[ 16] =        -0.000000187914;
  BAS[ATNO][  3].a[ 17] =      4190.000000000000;     BAS[ATNO][  3].d[ 17] =        -0.000010993693;
  BAS[ATNO][  3].a[ 18] =      1738.900000000000;     BAS[ATNO][  3].d[ 18] =        -0.000047707951;
  BAS[ATNO][  3].a[ 19] =       759.290000000000;     BAS[ATNO][  3].d[ 19] =        -0.000361938249;
  BAS[ATNO][  3].a[ 20] =       345.500000000000;     BAS[ATNO][  3].d[ 20] =        -0.001567805848;
  BAS[ATNO][  3].a[ 21] =       162.360000000000;     BAS[ATNO][  3].d[ 21] =        -0.007194063469;
  BAS[ATNO][  3].a[ 22] =        78.888000000000;     BAS[ATNO][  3].d[ 22] =        -0.019370812805;
  BAS[ATNO][  3].a[ 23] =        39.321000000000;     BAS[ATNO][  3].d[ 23] =        -0.041552895729;
  BAS[ATNO][  3].a[ 24] =        19.918000000000;     BAS[ATNO][  3].d[ 24] =        -0.004935753919;
  BAS[ATNO][  3].a[ 25] =         9.576400000000;     BAS[ATNO][  3].d[ 25] =         0.093394575422;
  BAS[ATNO][  3].a[ 26] =         4.916100000000;     BAS[ATNO][  3].d[ 26] =         0.170637126157;
  BAS[ATNO][  3].a[ 27] =     10740.000000000000;     BAS[ATNO][  3].d[ 27] =         0.000003126032;
  BAS[ATNO][  3].a[ 28] =      4190.000000000000;     BAS[ATNO][  3].d[ 28] =         0.000023447785;
  BAS[ATNO][  3].a[ 29] =      1738.900000000000;     BAS[ATNO][  3].d[ 29] =         0.000156679519;
  BAS[ATNO][  3].a[ 30] =       759.290000000000;     BAS[ATNO][  3].d[ 30] =         0.000903928685;
  BAS[ATNO][  3].a[ 31] =       345.500000000000;     BAS[ATNO][  3].d[ 31] =         0.004450893101;
  BAS[ATNO][  3].a[ 32] =       162.360000000000;     BAS[ATNO][  3].d[ 32] =         0.018806774814;
  BAS[ATNO][  3].a[ 33] =        78.888000000000;     BAS[ATNO][  3].d[ 33] =         0.054382524127;
  BAS[ATNO][  3].a[ 34] =        39.321000000000;     BAS[ATNO][  3].d[ 34] =         0.111032500816;
  BAS[ATNO][  3].a[ 35] =        19.918000000000;     BAS[ATNO][  3].d[ 35] =         0.026947074864;
  BAS[ATNO][  3].a[ 36] =         9.576400000000;     BAS[ATNO][  3].d[ 36] =        -0.316309632512;
  BAS[ATNO][  3].a[ 37] =         4.916100000000;     BAS[ATNO][  3].d[ 37] =        -0.643767573457;
  BAS[ATNO][  3].a[ 38] =         2.464800000000;     BAS[ATNO][  3].d[ 38] =        -0.442959939602;
  BAS[ATNO][  3].a[ 39] =         1.183000000000;     BAS[ATNO][  3].d[ 39] =         3.756891828575;
  BAS[ATNO][  3].a[ 40] =         0.575210000000;     BAS[ATNO][  3].d[ 40] =        -3.633144265388;
  BAS[ATNO][  3].a[ 41] =         0.270410000000;     BAS[ATNO][  3].d[ 41] =         0.574538358438;
  BAS[ATNO][  3].a[ 42] =         0.123120000000;     BAS[ATNO][  3].d[ 42] =        -0.188173508334;

  // Basis function   5 L = s
  InitBFNGauss(BAS[ATNO][  4]);
  BAS[ATNO][  4].l  = 0;
  BAS[ATNO][  4].ng = 43;
  BAS[ATNO][  4].a[  0] =   9445100.000000000000;     BAS[ATNO][  4].d[  0] =        -0.000000016763;
  BAS[ATNO][  4].a[  1] =   1414100.000000000000;     BAS[ATNO][  4].d[  1] =        -0.000000130395;
  BAS[ATNO][  4].a[  2] =    321810.000000000000;     BAS[ATNO][  4].d[  2] =        -0.000000686012;
  BAS[ATNO][  4].a[  3] =     91158.000000000000;     BAS[ATNO][  4].d[  3] =        -0.000002898750;
  BAS[ATNO][  4].a[  4] =     29743.000000000000;     BAS[ATNO][  4].d[  4] =        -0.000010566838;
  BAS[ATNO][  4].a[  5] =     10740.000000000000;     BAS[ATNO][  4].d[  5] =        -0.000034476734;
  BAS[ATNO][  4].a[  6] =      4190.000000000000;     BAS[ATNO][  4].d[  6] =        -0.000102733363;
  BAS[ATNO][  4].a[  7] =      1738.900000000000;     BAS[ATNO][  4].d[  7] =        -0.000281404136;
  BAS[ATNO][  4].a[  8] =       759.290000000000;     BAS[ATNO][  4].d[  8] =        -0.000703549197;
  BAS[ATNO][  4].a[  9] =       345.500000000000;     BAS[ATNO][  4].d[  9] =        -0.001567604702;
  BAS[ATNO][  4].a[ 10] =       162.360000000000;     BAS[ATNO][  4].d[ 10] =        -0.002940456915;
  BAS[ATNO][  4].a[ 11] =        78.888000000000;     BAS[ATNO][  4].d[ 11] =        -0.004099956972;
  BAS[ATNO][  4].a[ 12] =        39.321000000000;     BAS[ATNO][  4].d[ 12] =        -0.003600770955;
  BAS[ATNO][  4].a[ 13] =        19.918000000000;     BAS[ATNO][  4].d[ 13] =        -0.001441474099;
  BAS[ATNO][  4].a[ 14] =         9.576400000000;     BAS[ATNO][  4].d[ 14] =        -0.000133091230;
  BAS[ATNO][  4].a[ 15] =     29743.000000000000;     BAS[ATNO][  4].d[ 15] =         0.000000271199;
  BAS[ATNO][  4].a[ 16] =     10740.000000000000;     BAS[ATNO][  4].d[ 16] =         0.000000194870;
  BAS[ATNO][  4].a[ 17] =      4190.000000000000;     BAS[ATNO][  4].d[ 17] =         0.000011400678;
  BAS[ATNO][  4].a[ 18] =      1738.900000000000;     BAS[ATNO][  4].d[ 18] =         0.000049474093;
  BAS[ATNO][  4].a[ 19] =       759.290000000000;     BAS[ATNO][  4].d[ 19] =         0.000375337156;
  BAS[ATNO][  4].a[ 20] =       345.500000000000;     BAS[ATNO][  4].d[ 20] =         0.001625845816;
  BAS[ATNO][  4].a[ 21] =       162.360000000000;     BAS[ATNO][  4].d[ 21] =         0.007460386757;
  BAS[ATNO][  4].a[ 22] =        78.888000000000;     BAS[ATNO][  4].d[ 22] =         0.020087917759;
  BAS[ATNO][  4].a[ 23] =        39.321000000000;     BAS[ATNO][  4].d[ 23] =         0.043091178489;
  BAS[ATNO][  4].a[ 24] =        19.918000000000;     BAS[ATNO][  4].d[ 24] =         0.005118474883;
  BAS[ATNO][  4].a[ 25] =         9.576400000000;     BAS[ATNO][  4].d[ 25] =        -0.096852030377;
  BAS[ATNO][  4].a[ 26] =         4.916100000000;     BAS[ATNO][  4].d[ 26] =        -0.176954090228;
  BAS[ATNO][  4].a[ 27] =     10740.000000000000;     BAS[ATNO][  4].d[ 27] =        -0.000002507046;
  BAS[ATNO][  4].a[ 28] =      4190.000000000000;     BAS[ATNO][  4].d[ 28] =        -0.000018804887;
  BAS[ATNO][  4].a[ 29] =      1738.900000000000;     BAS[ATNO][  4].d[ 29] =        -0.000125655391;
  BAS[ATNO][  4].a[ 30] =       759.290000000000;     BAS[ATNO][  4].d[ 30] =        -0.000724941674;
  BAS[ATNO][  4].a[ 31] =       345.500000000000;     BAS[ATNO][  4].d[ 31] =        -0.003569571302;
  BAS[ATNO][  4].a[ 32] =       162.360000000000;     BAS[ATNO][  4].d[ 32] =        -0.015082843407;
  BAS[ATNO][  4].a[ 33] =        78.888000000000;     BAS[ATNO][  4].d[ 33] =        -0.043614234954;
  BAS[ATNO][  4].a[ 34] =        39.321000000000;     BAS[ATNO][  4].d[ 34] =        -0.089046943958;
  BAS[ATNO][  4].a[ 35] =        19.918000000000;     BAS[ATNO][  4].d[ 35] =        -0.021611281810;
  BAS[ATNO][  4].a[ 36] =         9.576400000000;     BAS[ATNO][  4].d[ 36] =         0.253677129782;
  BAS[ATNO][  4].a[ 37] =         4.916100000000;     BAS[ATNO][  4].d[ 37] =         0.516295090303;
  BAS[ATNO][  4].a[ 38] =         2.464800000000;     BAS[ATNO][  4].d[ 38] =         0.355249396594;
  BAS[ATNO][  4].a[ 39] =         1.183000000000;     BAS[ATNO][  4].d[ 39] =        -4.058513846190;
[...]
  BAS[ATNO][  9].a[ 11] =      3078.100000000000;     BAS[ATNO][  9].d[ 11] =        -0.000005721611;
  BAS[ATNO][  9].a[ 12] =       999.560000000000;     BAS[ATNO][  9].d[ 12] =         0.000003792545;
  BAS[ATNO][  9].a[ 13] =       380.970000000000;     BAS[ATNO][  9].d[ 13] =        -0.000094228293;
  BAS[ATNO][  9].a[ 14] =       160.280000000000;     BAS[ATNO][  9].d[ 14] =         0.000530337705;
  BAS[ATNO][  9].a[ 15] =        74.494000000000;     BAS[ATNO][  9].d[ 15] =         0.001140918279;
  BAS[ATNO][  9].a[ 16] =        36.065000000000;     BAS[ATNO][  9].d[ 16] =         0.017340015082;
  BAS[ATNO][  9].a[ 17] =        18.164000000000;     BAS[ATNO][  9].d[ 17] =         0.034255776606;
  BAS[ATNO][  9].a[ 18] =         9.466500000000;     BAS[ATNO][  9].d[ 18] =         0.158870919350;
  BAS[ATNO][  9].a[ 19] =         5.163000000000;     BAS[ATNO][  9].d[ 19] =        -0.003446748826;
  BAS[ATNO][  9].a[ 20] =         2.808500000000;     BAS[ATNO][  9].d[ 20] =        -0.002493838802;
  BAS[ATNO][  9].a[ 21] =         1.523500000000;     BAS[ATNO][  9].d[ 21] =        -1.767771593384;
  BAS[ATNO][  9].a[ 22] =         0.743790000000;     BAS[ATNO][  9].d[ 22] =         2.086631088401;
  BAS[ATNO][  9].a[ 23] =         0.356800000000;     BAS[ATNO][  9].d[ 23] =        -0.179258678170;
  BAS[ATNO][  9].a[ 24] =         0.162210000000;     BAS[ATNO][  9].d[ 24] =         0.187515844007;
  BAS[ATNO][  9].a[ 25] =         0.069956000000;     BAS[ATNO][  9].d[ 25] =        -0.053704842451;

  // Basis function  11 L = p
  InitBFNGauss(BAS[ATNO][ 10]);
  BAS[ATNO][ 10].l  = 1;
  BAS[ATNO][ 10].ng = 26;
  BAS[ATNO][ 10].a[  0] =     13006.000000000000;     BAS[ATNO][ 10].d[  0] =         0.000000036948;
  BAS[ATNO][ 10].a[  1] =      3078.100000000000;     BAS[ATNO][ 10].d[  1] =         0.000000329881;
  BAS[ATNO][ 10].a[  2] =       999.560000000000;     BAS[ATNO][ 10].d[  2] =         0.000001923284;
  BAS[ATNO][ 10].a[  3] =       380.970000000000;     BAS[ATNO][ 10].d[  3] =         0.000008753792;
  BAS[ATNO][ 10].a[  4] =       160.280000000000;     BAS[ATNO][ 10].d[  4] =         0.000032248979;
  BAS[ATNO][ 10].a[  5] =        74.494000000000;     BAS[ATNO][ 10].d[  5] =         0.000092753217;
  BAS[ATNO][ 10].a[  6] =        36.065000000000;     BAS[ATNO][ 10].d[  6] =         0.000230935194;
  BAS[ATNO][ 10].a[  7] =        18.164000000000;     BAS[ATNO][ 10].d[  7] =         0.000443831499;
  BAS[ATNO][ 10].a[  8] =         9.466500000000;     BAS[ATNO][ 10].d[  8] =         0.000622477715;
  BAS[ATNO][ 10].a[  9] =         5.163000000000;     BAS[ATNO][ 10].d[  9] =         0.000613169240;
  BAS[ATNO][ 10].a[ 10] =         2.808500000000;     BAS[ATNO][ 10].d[ 10] =         0.000401152777;
  BAS[ATNO][ 10].a[ 11] =      3078.100000000000;     BAS[ATNO][ 10].d[ 11] =        -0.000005406275;
  BAS[ATNO][ 10].a[ 12] =       999.560000000000;     BAS[ATNO][ 10].d[ 12] =         0.000003583525;
  BAS[ATNO][ 10].a[ 13] =       380.970000000000;     BAS[ATNO][ 10].d[ 13] =        -0.000089035073;
  BAS[ATNO][ 10].a[ 14] =       160.280000000000;     BAS[ATNO][ 10].d[ 14] =         0.000501109110;
  BAS[ATNO][ 10].a[ 15] =        74.494000000000;     BAS[ATNO][ 10].d[ 15] =         0.001078038651;
  BAS[ATNO][ 10].a[ 16] =        36.065000000000;     BAS[ATNO][ 10].d[ 16] =         0.016384351801;
  BAS[ATNO][ 10].a[ 17] =        18.164000000000;     BAS[ATNO][ 10].d[ 17] =         0.032367832004;
  BAS[ATNO][ 10].a[ 18] =         9.466500000000;     BAS[ATNO][ 10].d[ 18] =         0.150115038611;
  BAS[ATNO][ 10].a[ 19] =         5.163000000000;     BAS[ATNO][ 10].d[ 19] =        -0.003256787556;
  BAS[ATNO][ 10].a[ 20] =         2.808500000000;     BAS[ATNO][ 10].d[ 20] =        -0.002356395429;
  BAS[ATNO][ 10].a[ 21] =         1.523500000000;     BAS[ATNO][ 10].d[ 21] =        -1.670344088670;
  BAS[ATNO][ 10].a[ 22] =         0.743790000000;     BAS[ATNO][ 10].d[ 22] =         3.320363197000;
  BAS[ATNO][ 10].a[ 23] =         0.356800000000;     BAS[ATNO][ 10].d[ 23] =        -2.015764018094;
  BAS[ATNO][ 10].a[ 24] =         0.162210000000;     BAS[ATNO][ 10].d[ 24] =        -0.293012779358;
  BAS[ATNO][ 10].a[ 25] =         0.069956000000;     BAS[ATNO][ 10].d[ 25] =         0.007383189726;

  // Basis function  12 L = p
  InitBFNGauss(BAS[ATNO][ 11]);
  BAS[ATNO][ 11].l  = 1;
  BAS[ATNO][ 11].ng = 26;
  BAS[ATNO][ 11].a[  0] =     13006.000000000000;     BAS[ATNO][ 11].d[  0] =         0.000000578880;
  BAS[ATNO][ 11].a[  1] =      3078.100000000000;     BAS[ATNO][ 11].d[  1] =         0.000005168355;
  BAS[ATNO][ 11].a[  2] =       999.560000000000;     BAS[ATNO][ 11].d[  2] =         0.000030132698;
  BAS[ATNO][ 11].a[  3] =       380.970000000000;     BAS[ATNO][ 11].d[  3] =         0.000137148428;
  BAS[ATNO][ 11].a[  4] =       160.280000000000;     BAS[ATNO][ 11].d[  4] =         0.000505254941;
  BAS[ATNO][ 11].a[  5] =        74.494000000000;     BAS[ATNO][ 11].d[  5] =         0.001453193974;
  BAS[ATNO][ 11].a[  6] =        36.065000000000;     BAS[ATNO][ 11].d[  6] =         0.003618134681;
  BAS[ATNO][ 11].a[  7] =        18.164000000000;     BAS[ATNO][ 11].d[  7] =         0.006953648374;
  BAS[ATNO][ 11].a[  8] =         9.466500000000;     BAS[ATNO][ 11].d[  8] =         0.009752555107;
  BAS[ATNO][ 11].a[  9] =         5.163000000000;     BAS[ATNO][ 11].d[  9] =         0.009606716284;
  BAS[ATNO][ 11].a[ 10] =         2.808500000000;     BAS[ATNO][ 11].d[ 10] =         0.006284987357;
  BAS[ATNO][ 11].a[ 11] =      3078.100000000000;     BAS[ATNO][ 11].d[ 11] =         0.000004740110;
  BAS[ATNO][ 11].a[ 12] =       999.560000000000;     BAS[ATNO][ 11].d[ 12] =        -0.000003141961;
  BAS[ATNO][ 11].a[ 13] =       380.970000000000;     BAS[ATNO][ 11].d[ 13] =         0.000078064107;
  BAS[ATNO][ 11].a[ 14] =       160.280000000000;     BAS[ATNO][ 11].d[ 14] =        -0.000439362085;
  BAS[ATNO][ 11].a[ 15] =        74.494000000000;     BAS[ATNO][ 11].d[ 15] =        -0.000945201952;
  BAS[ATNO][ 11].a[ 16] =        36.065000000000;     BAS[ATNO][ 11].d[ 16] =        -0.014365460178;
  BAS[ATNO][ 11].a[ 17] =        18.164000000000;     BAS[ATNO][ 11].d[ 17] =        -0.028379444444;
  BAS[ATNO][ 11].a[ 18] =         9.466500000000;     BAS[ATNO][ 11].d[ 18] =        -0.131617755494;
  BAS[ATNO][ 11].a[ 19] =         5.163000000000;     BAS[ATNO][ 11].d[ 19] =         0.002855483849;
  BAS[ATNO][ 11].a[ 20] =         2.808500000000;     BAS[ATNO][ 11].d[ 20] =         0.002066038688;
  BAS[ATNO][ 11].a[ 21] =         1.523500000000;     BAS[ATNO][ 11].d[ 21] =         1.464523087668;
  BAS[ATNO][ 11].a[ 22] =         0.743790000000;     BAS[ATNO][ 11].d[ 22] =        -3.838751455590;
  BAS[ATNO][ 11].a[ 23] =         0.356800000000;     BAS[ATNO][ 11].d[ 23] =         4.523943298511;
  BAS[ATNO][ 11].a[ 24] =         0.162210000000;     BAS[ATNO][ 11].d[ 24] =        -2.375194796749;
  BAS[ATNO][ 11].a[ 25] =         0.069956000000;     BAS[ATNO][ 11].d[ 25] =        -0.104328061076;

  // Basis function  13 L = p
  InitBFNGauss(BAS[ATNO][ 12]);
  BAS[ATNO][ 12].l  = 1;
  BAS[ATNO][ 12].ng = 26;
  BAS[ATNO][ 12].a[  0] =     13006.000000000000;     BAS[ATNO][ 12].d[  0] =         0.000000535575;
  BAS[ATNO][ 12].a[  1] =      3078.100000000000;     BAS[ATNO][ 12].d[  1] =         0.000004781717;
  BAS[ATNO][ 12].a[  2] =       999.560000000000;     BAS[ATNO][ 12].d[  2] =         0.000027878509;
  BAS[ATNO][ 12].a[  3] =       380.970000000000;     BAS[ATNO][ 12].d[  3] =         0.000126888527;
  BAS[ATNO][ 12].a[  4] =       160.280000000000;     BAS[ATNO][ 12].d[  4] =         0.000467457456;
  BAS[ATNO][ 12].a[  5] =        74.494000000000;     BAS[ATNO][ 12].d[  5] =         0.001344482367;
  BAS[ATNO][ 12].a[  6] =        36.065000000000;     BAS[ATNO][ 12].d[  6] =         0.003347466592;
  BAS[ATNO][ 12].a[  7] =        18.164000000000;     BAS[ATNO][ 12].d[  7] =         0.006433454714;
  BAS[ATNO][ 12].a[  8] =         9.466500000000;     BAS[ATNO][ 12].d[  8] =         0.009022978767;
  BAS[ATNO][ 12].a[  9] =         5.163000000000;     BAS[ATNO][ 12].d[  9] =         0.008888049962;
  BAS[ATNO][ 12].a[ 10] =         2.808500000000;     BAS[ATNO][ 12].d[ 10] =         0.005814815385;
  BAS[ATNO][ 12].a[ 11] =      3078.100000000000;     BAS[ATNO][ 12].d[ 11] =         0.000003071701;
  BAS[ATNO][ 12].a[ 12] =       999.560000000000;     BAS[ATNO][ 12].d[ 12] =        -0.000002036063;
  BAS[ATNO][ 12].a[ 13] =       380.970000000000;     BAS[ATNO][ 12].d[ 13] =         0.000050587346;
  BAS[ATNO][ 12].a[ 14] =       160.280000000000;     BAS[ATNO][ 12].d[ 14] =        -0.000284716790;
  BAS[ATNO][ 12].a[ 15] =        74.494000000000;     BAS[ATNO][ 12].d[ 15] =        -0.000612512721;
  BAS[ATNO][ 12].a[ 16] =        36.065000000000;     BAS[ATNO][ 12].d[ 16] =        -0.009309150360;
  BAS[ATNO][ 12].a[ 17] =        18.164000000000;     BAS[ATNO][ 12].d[ 17] =        -0.018390536203;
  BAS[ATNO][ 12].a[ 18] =         9.466500000000;     BAS[ATNO][ 12].d[ 18] =        -0.085291348889;
  BAS[ATNO][ 12].a[ 19] =         5.163000000000;     BAS[ATNO][ 12].d[ 19] =         0.001850419560;
  BAS[ATNO][ 12].a[ 20] =         2.808500000000;     BAS[ATNO][ 12].d[ 20] =         0.001338840842;
  BAS[ATNO][ 12].a[ 21] =         1.523500000000;     BAS[ATNO][ 12].d[ 21] =         0.949044824220;
  BAS[ATNO][ 12].a[ 22] =         0.743790000000;     BAS[ATNO][ 12].d[ 22] =        -2.828341079416;
  BAS[ATNO][ 12].a[ 23] =         0.356800000000;     BAS[ATNO][ 12].d[ 23] =         4.352296767343;
  BAS[ATNO][ 12].a[ 24] =         0.162210000000;     BAS[ATNO][ 12].d[ 24] =        -4.345425468078;
  BAS[ATNO][ 12].a[ 25] =         0.069956000000;     BAS[ATNO][ 12].d[ 25] =         2.410286796909;

  // Basis function  14 L = d
  InitBFNGauss(BAS[ATNO][ 13]);
  BAS[ATNO][ 13].l  = 2;
  BAS[ATNO][ 13].ng = 6;
  BAS[ATNO][ 13].a[  0] =        26.330000000000;     BAS[ATNO][ 13].d[  0] =         0.064378829889;
  BAS[ATNO][ 13].a[  1] =         7.530000000000;     BAS[ATNO][ 13].d[  1] =         0.412981744887;
  BAS[ATNO][ 13].a[  2] =         2.600000000000;     BAS[ATNO][ 13].d[  2] =         0.628255905295;
  BAS[ATNO][ 13].a[  3] =         0.930000000000;     BAS[ATNO][ 13].d[  3] =         0.066064157011;
  BAS[ATNO][ 13].a[  4] =         0.410000000000;     BAS[ATNO][ 13].d[  4] =        -0.000844872598;
  BAS[ATNO][ 13].a[  5] =         0.170000000000;     BAS[ATNO][ 13].d[  5] =        -0.000985931380;

  // Basis function  15 L = d
  InitBFNGauss(BAS[ATNO][ 14]);
  BAS[ATNO][ 14].l  = 2;
  BAS[ATNO][ 14].ng = 6;
  BAS[ATNO][ 14].a[  0] =        26.330000000000;     BAS[ATNO][ 14].d[  0] =        -0.049174703229;
  BAS[ATNO][ 14].a[  1] =         7.530000000000;     BAS[ATNO][ 14].d[  1] =        -0.366647525661;
  BAS[ATNO][ 14].a[  2] =         2.600000000000;     BAS[ATNO][ 14].d[  2] =        -0.262214114060;
  BAS[ATNO][ 14].a[  3] =         0.930000000000;     BAS[ATNO][ 14].d[  3] =         1.012570885906;
  BAS[ATNO][ 14].a[  4] =         0.410000000000;     BAS[ATNO][ 14].d[  4] =         0.074423333947;
  BAS[ATNO][ 14].a[  5] =         0.170000000000;     BAS[ATNO][ 14].d[  5] =         0.012575799927;

  // Basis function  16 L = d
  InitBFNGauss(BAS[ATNO][ 15]);
  BAS[ATNO][ 15].l  = 2;
  BAS[ATNO][ 15].ng = 6;
  BAS[ATNO][ 15].a[  0] =        26.330000000000;     BAS[ATNO][ 15].d[  0] =         0.036237189041;
  BAS[ATNO][ 15].a[  1] =         7.530000000000;     BAS[ATNO][ 15].d[  1] =         0.296795382909;
  BAS[ATNO][ 15].a[  2] =         2.600000000000;     BAS[ATNO][ 15].d[  2] =         0.044802950530;
  BAS[ATNO][ 15].a[  3] =         0.930000000000;     BAS[ATNO][ 15].d[  3] =        -1.188651879180;
  BAS[ATNO][ 15].a[  4] =         0.410000000000;     BAS[ATNO][ 15].d[  4] =         1.412357368105;
  BAS[ATNO][ 15].a[  5] =         0.170000000000;     BAS[ATNO][ 15].d[  5] =         0.087826283373;

  // Basis function  17 L = d
  InitBFNGauss(BAS[ATNO][ 16]);
  BAS[ATNO][ 16].l  = 2;
  BAS[ATNO][ 16].ng = 6;
  BAS[ATNO][ 16].a[  0] =        26.330000000000;     BAS[ATNO][ 16].d[  0] =         0.024550471138;
  BAS[ATNO][ 16].a[  1] =         7.530000000000;     BAS[ATNO][ 16].d[  1] =         0.219356054915;
  BAS[ATNO][ 16].a[  2] =         2.600000000000;     BAS[ATNO][ 16].d[  2] =        -0.066601520405;
  BAS[ATNO][ 16].a[  3] =         0.930000000000;     BAS[ATNO][ 16].d[  3] =        -0.822642837222;
  BAS[ATNO][ 16].a[  4] =         0.410000000000;     BAS[ATNO][ 16].d[  4] =         1.822934534430;
  BAS[ATNO][ 16].a[  5] =         0.170000000000;     BAS[ATNO][ 16].d[  5] =        -1.617851950252;

  // Basis function  18 L = d
  InitBFNGauss(BAS[ATNO][ 17]);
  BAS[ATNO][ 17].l  = 2;
  BAS[ATNO][ 17].ng = 6;
  BAS[ATNO][ 17].a[  0] =        26.330000000000;     BAS[ATNO][ 17].d[  0] =         0.097754628742;
  BAS[ATNO][ 17].a[  1] =         7.530000000000;     BAS[ATNO][ 17].d[  1] =         1.109233664711;
  BAS[ATNO][ 17].a[  2] =         2.600000000000;     BAS[ATNO][ 17].d[  2] =        -1.866836369523;
  BAS[ATNO][ 17].a[  3] =         0.930000000000;     BAS[ATNO][ 17].d[  3] =         1.951830696068;
  BAS[ATNO][ 17].a[  4] =         0.410000000000;     BAS[ATNO][ 17].d[  4] =        -1.437215684625;
  BAS[ATNO][ 17].a[  5] =         0.170000000000;     BAS[ATNO][ 17].d[  5] =         0.546385176944;

  // Basis function  19 L = d
  InitBFNGauss(BAS[ATNO][ 18]);
  BAS[ATNO][ 18].l  = 2;
  BAS[ATNO][ 18].ng = 6;
  BAS[ATNO][ 18].a[  0] =        26.330000000000;     BAS[ATNO][ 18].d[  0] =         1.235298456905;
  BAS[ATNO][ 18].a[  1] =         7.530000000000;     BAS[ATNO][ 18].d[  1] =        -1.134089144809;
  BAS[ATNO][ 18].a[  2] =         2.600000000000;     BAS[ATNO][ 18].d[  2] =         0.765732874526;
  BAS[ATNO][ 18].a[  3] =         0.930000000000;     BAS[ATNO][ 18].d[  3] =        -0.503267061074;
  BAS[ATNO][ 18].a[  4] =         0.410000000000;     BAS[ATNO][ 18].d[  4] =         0.302422249736;
  BAS[ATNO][ 18].a[  5] =         0.170000000000;     BAS[ATNO][ 18].d[  5] =        -0.101309991432;

  // Basis function  20 L = f
  InitBFNGauss(BAS[ATNO][ 19]);
  BAS[ATNO][ 19].l  = 3;
  BAS[ATNO][ 19].ng = 3;
  BAS[ATNO][ 19].a[  0] =         4.530000000000;     BAS[ATNO][ 19].d[  0] =         0.340512493060;
  BAS[ATNO][ 19].a[  1] =         1.060000000000;     BAS[ATNO][ 19].d[  1] =         0.858221827493;
  BAS[ATNO][ 19].a[  2] =         0.440000000000;     BAS[ATNO][ 19].d[  2] =        -0.042221409046;

  // Basis function  21 L = f
  InitBFNGauss(BAS[ATNO][ 20]);
  BAS[ATNO][ 20].l  = 3;
  BAS[ATNO][ 20].ng = 3;
  BAS[ATNO][ 20].a[  0] =         4.530000000000;     BAS[ATNO][ 20].d[  0] =        -0.328414114892;
  BAS[ATNO][ 20].a[  1] =         1.060000000000;     BAS[ATNO][ 20].d[  1] =        -0.452234680056;
  BAS[ATNO][ 20].a[  2] =         0.440000000000;     BAS[ATNO][ 20].d[  2] =         1.154487903651;

  // Basis function  22 L = f
  InitBFNGauss(BAS[ATNO][ 21]);
  BAS[ATNO][ 21].l  = 3;
  BAS[ATNO][ 21].ng = 3;
  BAS[ATNO][ 21].a[  0] =         4.530000000000;     BAS[ATNO][ 21].d[  0] =        -0.973773973864;
  BAS[ATNO][ 21].a[  1] =         1.060000000000;     BAS[ATNO][ 21].d[  1] =         1.050651845216;
  BAS[ATNO][ 21].a[  2] =         0.440000000000;     BAS[ATNO][ 21].d[  2] =        -0.701939161187;

  // Basis function  23 L = g
  InitBFNGauss(BAS[ATNO][ 22]);
  BAS[ATNO][ 22].l  = 4;
  BAS[ATNO][ 22].ng = 2;
  BAS[ATNO][ 22].a[  0] =         2.180000000000;     BAS[ATNO][ 22].d[  0] =         0.303452193940;
  BAS[ATNO][ 22].a[  1] =         0.730000000000;     BAS[ATNO][ 22].d[  1] =         0.824417882746;

  // Basis function  24 L = g
  InitBFNGauss(BAS[ATNO][ 23]);
  BAS[ATNO][ 23].l  = 4;
  BAS[ATNO][ 23].ng = 2;
  BAS[ATNO][ 23].a[  0] =         2.180000000000;     BAS[ATNO][ 23].d[  0] =         1.081997621576;
  BAS[ATNO][ 23].a[  1] =         0.730000000000;     BAS[ATNO][ 23].d[  1] =        -0.763634232935;

  // Basis function  25 L = h
  InitBFNGauss(BAS[ATNO][ 24]);
  BAS[ATNO][ 24].l  = 5;
  BAS[ATNO][ 24].ng = 1;
  BAS[ATNO][ 24].a[  0] =         1.120000000000;     BAS[ATNO][ 24].d[  0] =         1.000000000000;

-------
TIMINGS
-------

Total SCF time: 0 days 0 hours 0 min 2 sec 

Total time                  ....       2.021 sec
Sum of individual times     ....       1.776 sec  ( 87.9%)

Fock matrix formation       ....       1.229 sec  ( 60.8%)
  XC integration            ....       0.028 sec  (  2.3% of F)
    Basis function eval.    ....       0.005 sec  ( 18.3% of XC)
    Density eval.           ....       0.002 sec  (  8.8% of XC)
    XC-Functional eval.     ....       0.001 sec  (  4.5% of XC)
    XC-Potential eval.      ....       0.005 sec  ( 18.6% of XC)
Diagonalization             ....       0.002 sec  (  0.1%)
Density matrix formation    ....       0.001 sec  (  0.1%)
Population analysis         ....       0.001 sec  (  0.1%)
Initial guess               ....       0.072 sec  (  3.6%)
Orbital Transformation      ....       0.000 sec  (  0.0%)
Orbital Orthonormalization  ....       0.000 sec  (  0.0%)
DIIS solution               ....       0.000 sec  (  0.0%)
SOSCF solution              ....       0.002 sec  (  0.1%)
Grid generation             ....       0.468 sec  ( 23.2%)

-------------------------   --------------------
FINAL SINGLE POINT ENERGY      -311.541041106821
-------------------------   --------------------


                            ***************************************
                            *     ORCA property calculations      *
                            ***************************************

                                    ---------------------
                                    Active property flags
                                    ---------------------
   (+) Dipole Moment


------------------------------------------------------------------------------
                       ORCA ELECTRIC PROPERTIES CALCULATION
------------------------------------------------------------------------------

Dipole Moment Calculation                       ... on
Quadrupole Moment Calculation                   ... off
Polarizability Calculation                      ... off
GBWName                                         ... Ar_pc-4_2192.575824_.gbw
Electron density file                           ... Ar_pc-4_2192.575824_.scfp
The origin for moment calculation is the CENTER OF MASS  = ( 0.000000,  0.000000  0.000000)

-------------
DIPOLE MOMENT
-------------
                                X             Y             Z
Electronic contribution:     -0.00000       0.00000       0.00000
Nuclear contribution   :      0.00000       0.00000       0.00000
                        -----------------------------------------
Total Dipole Moment    :     -0.00000       0.00000       0.00000
                        -----------------------------------------
Magnitude (a.u.)       :      0.00000
Magnitude (Debye)      :      0.00000



--------------------
Rotational spectrum 
--------------------
 
Rotational constants in cm-1:     0.000000     0.000000     0.000000 
Rotational constants in MHz :     0.000000     0.000000     0.000000 

 Dipole components along the rotational axes: 
x,y,z [a.u.] :    -0.000000     0.000000     0.000000 
x,y,z [Debye]:    -0.000000     0.000000     0.000000 

 

Timings for individual modules:

Sum of individual times         ...        3.469 sec (=   0.058 min)
GTO integral calculation        ...        0.807 sec (=   0.013 min)  23.3 %
Relativistic integrals          ...        0.372 sec (=   0.006 min)  10.7 %
SCF iterations                  ...        2.290 sec (=   0.038 min)  66.0 %
                             ****ORCA TERMINATED NORMALLY****
TOTAL RUN TIME: 0 days 0 hours 0 minutes 3 seconds 794 msec
