
                                 *****************
                                 * O   R   C   A *
                                 *****************

           --- An Ab Initio, DFT and Semiempirical electronic structure package ---

                  #######################################################
                  #                        -***-                        #
                  #          Department of theory and spectroscopy      #
                  #               Directorship: Frank Neese             #
                  #        Max Planck Institute fuer Kohlenforschung    #
                  #                Kaiser Wilhelm Platz 1               #
                  #                 D-45470 Muelheim/Ruhr               #
                  #                      Germany                        #
                  #                                                     #
                  #                  All rights reserved                #
                  #                        -***-                        #
                  #######################################################


                         Program Version 4.2.1 -  RELEASE  -


 With contributions from (in alphabetic order):
   Daniel Aravena         : Magnetic Suceptibility
   Michael Atanasov       : Ab Initio Ligand Field Theory (pilot matlab implementation)
   Alexander A. Auer      : GIAO ZORA, VPT2
   Ute Becker             : Parallelization
   Giovanni Bistoni       : ED, misc. LED, open-shell LED, HFLD
   Martin Brehm           : Molecular dynamics
   Dmytro Bykov           : SCF Hessian
   Vijay G. Chilkuri      : MRCI spin determinant printing, contributions to CSF-ICE
   Dipayan Datta          : RHF DLPNO-CCSD density
   Achintya Kumar Dutta   : EOM-CC, STEOM-CC
   Dmitry Ganyushin       : Spin-Orbit,Spin-Spin,Magnetic field MRCI
   Miquel Garcia          : C-PCM Hessian, Gaussian charge scheme
   Yang Guo               : DLPNO-NEVPT2, CIM, IAO-localization
   Andreas Hansen         : Spin unrestricted coupled pair/coupled cluster methods
   Benjamin Helmich-Paris : CASSCF linear response (MC-RPA)
   Lee Huntington         : MR-EOM, pCC
   Robert Izsak           : Overlap fitted RIJCOSX, COSX-SCS-MP3, EOM
   Christian Kollmar      : KDIIS, OOCD, Brueckner-CCSD(T), CCSD density
   Simone Kossmann        : Meta GGA functionals, TD-DFT gradient, OOMP2, MP2 Hessian
   Martin Krupicka        : AUTO-CI
   Lucas Lang             : DCDCAS
   Dagmar Lenk            : GEPOL surface, SMD
   Dimitrios Liakos       : Extrapolation schemes; Compound Job, initial MDCI parallelization
   Dimitrios Manganas     : Further ROCIS development; embedding schemes
   Dimitrios Pantazis     : SARC Basis sets
   Taras Petrenko         : DFT Hessian,TD-DFT gradient, ASA, ECA, R-Raman, ABS, FL, XAS/XES, NRVS
   Peter Pinski           : DLPNO-MP2, DLPNO-MP2 Gradient
   Christoph Reimann      : Effective Core Potentials
   Marius Retegan         : Local ZFS, SOC
   Christoph Riplinger    : Optimizer, TS searches, QM/MM, DLPNO-CCSD(T), (RO)-DLPNO pert. Triples
   Tobias Risthaus        : Range-separated hybrids, TD-DFT gradient, RPA, STAB
   Michael Roemelt        : Original ROCIS implementation
   Masaaki Saitow         : Open-shell DLPNO-CCSD energy and density
   Barbara Sandhoefer     : DKH picture change effects
   Avijit Sen             : IP-ROCIS
   Kantharuban Sivalingam : CASSCF convergence, NEVPT2, FIC-MRCI
   Bernardo de Souza      : ESD, SOC TD-DFT
   Georgi Stoychev        : AutoAux, RI-MP2 NMR
   Willem Van den Heuvel  : Paramagnetic NMR
   Boris Wezisla          : Elementary symmetry handling
   Frank Wennmohs         : Technical directorship


 We gratefully acknowledge several colleagues who have allowed us to
 interface, adapt or use parts of their codes:
   Stefan Grimme, W. Hujo, H. Kruse,             : VdW corrections, initial TS optimization,
                  C. Bannwarth                     DFT functionals, gCP, sTDA/sTD-DF
   Ed Valeev, F. Pavosevic, A. Kumar             : LibInt (2-el integral package), F12 methods
   Garnet Chan, S. Sharma, J. Yang, R. Olivares  : DMRG
   Ulf Ekstrom                                   : XCFun DFT Library
   Mihaly Kallay                                 : mrcc  (arbitrary order and MRCC methods)
   Andreas Klamt, Michael Diedenhofen            : otool_cosmo (COSMO solvation model)
   Jiri Pittner, Ondrej Demel                    : Mk-CCSD
   Frank Weinhold                                : gennbo (NPA and NBO analysis)
   Christopher J. Cramer and Donald G. Truhlar   : smd solvation model
   Lars Goerigk                                  : TD-DFT with DH, B97 family of functionals
   V. Asgeirsson, H. Jonsson                     : NEB implementation
   FAccTs GmbH                                   : IRC, NEB, NEB-TS, Multilevel, MM, QM/MM, CI optimization
   S Lehtola, MJT Oliveira, MAL Marques          : LibXC Library


 Your calculation uses the libint2 library for the computation of 2-el integrals
 For citations please refer to: http://libint.valeyev.net

 Your ORCA version has been built with support for libXC version: 4.2.3
 For citations please refer to: https://tddft.org/programs/libxc/

 This ORCA versions uses:
   CBLAS   interface :  Fast vector & matrix operations
   LAPACKE interface :  Fast linear algebra routines
   SCALAPACK package :  Parallel linear algebra routines


----- Orbital basis set information -----
Your calculation utilizes the basis: pc-2
   H, C-F              : F. Jensen, J. Chem. Phys. 115, 9113 (2001).
                         F. Jensen, J. Chem. Phys. 116, 7372 (2002).
                         F. Jensen, J. Chem. Phys. 117, 9234 (2002).
   Si-Cl               : F. Jensen, T. Helgaker, J. Chem. Phys. 121, 3463 (2004).
   He-B, Ne-Mg, Al, Ar : F. Jensen, J. Phys. Chem. A 111, 11198 (2007).
   K, Ca, Ga-Kr        : F. Jensen, J. Chem. Phys. 136, 094110 (2012).
   Sc-Zn               : F. Jensen, J. Chem. Phys. 138, 014107 (2013).

================================================================================
                                        WARNINGS
                       Please study these warnings very carefully!
================================================================================


INFO   : the flag for use of LIBINT has been found!

================================================================================
                                       INPUT FILE
================================================================================
NAME = Ar_pc-2_1096.287912_.inp
|  1> ! LDA pc-2 nori grid5 finalgrid6 verytightscf
|  2> %Pal NProcs 18 End
|  3> 
|  4> % REL
|  5>   Method ZORA
|  6>   ModelPot 1, 0, 0, 0
|  7>   velit 1096.287912
|  8> END
|  9> 
| 10> *xyz 16 1
| 11> Ar 0.0 0.0 0.0
| 12> **                         ****END OF INPUT****
================================================================================

                       ****************************
                       * Single Point Calculation *
                       ****************************

---------------------------------
CARTESIAN COORDINATES (ANGSTROEM)
---------------------------------
  Ar     0.000000    0.000000    0.000000

----------------------------
CARTESIAN COORDINATES (A.U.)
----------------------------
  NO LB      ZA    FRAG     MASS         X           Y           Z
   0 Ar   18.0000    0    39.948    0.000000    0.000000    0.000000

--------------------------------
INTERNAL COORDINATES (ANGSTROEM)
--------------------------------
 Ar     0   0   0     0.000000000000     0.00000000     0.00000000

---------------------------
INTERNAL COORDINATES (A.U.)
---------------------------
 Ar     0   0   0     0.000000000000     0.00000000     0.00000000

---------------------
BASIS SET INFORMATION
---------------------
There are 1 groups of distinct atoms

 Group   1 Type Ar  : 29s16p2d1f contracted to 5s4p2d1f pattern {99911/7711/11/1}

Atom   0Ar   basis set group =>   1


           ************************************************************
           *        Program running with 18 parallel MPI-processes    *
           *              working on a common directory               *
           ************************************************************
------------------------------------------------------------------------------
                           ORCA GTO INTEGRAL CALCULATION
------------------------------------------------------------------------------

                         BASIS SET STATISTICS AND STARTUP INFO

 # of primitive gaussian shells          ...   48
 # of primitive gaussian functions       ...   94
 # of contracted shells                  ...   12
 # of contracted basis functions         ...   34
 Highest angular momentum                ...    3
 Maximum contraction depth               ...    9
 Integral package used                   ... LIBINT
 Integral threshhold            Thresh   ...  1.000e-12
 Primitive cut-off              TCut     ...  1.000e-14


------------------------------ INTEGRAL EVALUATION ----------------------------


 * One electron integrals 
 Pre-screening matrix                    ... done
 Shell pair data                         ... done (   0.000 sec)



           ************************************************************
           *        Program running with 18 parallel MPI-processes    *
           *              working on a common directory               *
           ************************************************************
------------------------------------------------------------------------------
                          ORCA RELATIVISTIC HAMILTONIAN
------------------------------------------------------------------------------

Relativistic Method            ... ZORA(MP)
Treatment of potential         ... Van Wuellen
Nucleus model                  ... Point Nucleus
Speed of light used            ... 1096.28791200000001


            *************************************************
            *         ZERO ORDER REGULAR APPROXIMATION      *
            *                     ZORA(MP)                  *
            *            Programmed by FN according to      *
            *                   C. van Wuellen              *
            *       J. Chem. Phys. (1998) vol 109, 392-399  *
            *************************************************

Terms included in model potential: +V(e,N)
Basis function cutoff value   ... 1.000000e-12
Loading the fitted atomic densities  (DKH4)  ... done
Calculating the cutoffs                      ... done
Number of fit functions                      ... 15
Setting up the integration grid ... done


           ************************************************************
           *        Program running with 18 parallel MPI-processes    *
           *              working on a common directory               *
           ************************************************************
-------------------------------------------------------------------------------
                                 ORCA SCF
-------------------------------------------------------------------------------

------------
SCF SETTINGS
------------
Hamiltonian:
 Density Functional     Method          .... DFT(GTOs)
 Exchange Functional    Exchange        .... Slater
   X-Alpha parameter    XAlpha          ....  0.666667
 Correlation Functional Correlation     .... VWN-5
 Gradients option       PostSCFGGA      .... off
   Density functional embedding theory  .... OFF

Relativistic Settings:
 Scalar relativistic method             .... ZORA
 Speed of light used       Velit        ....       1096.28791
Orbital energies will be scaled


General Settings:
 Integral files         IntName         .... Ar_pc-2_1096.287912_
 Hartree-Fock type      HFTyp           .... RHF
 Total Charge           Charge          ....   16
 Multiplicity           Mult            ....    1
 Number of Electrons    NEL             ....    2
 Basis Dimension        Dim             ....   34
 Nuclear Repulsion      ENuc            ....      0.0000000000 Eh

Convergence Acceleration:
 DIIS                   CNVDIIS         .... on
   Start iteration      DIISMaxIt       ....    12
   Startup error        DIISStart       ....  0.200000
   # of expansion vecs  DIISMaxEq       ....     5
   Bias factor          DIISBfac        ....   1.050
   Max. coefficient     DIISMaxC        ....  10.000
 Newton-Raphson         CNVNR           .... off
 SOSCF                  CNVSOSCF        .... on
   Start iteration      SOSCFMaxIt      ....   150
   Startup grad/error   SOSCFStart      ....  0.003300
 Level Shifting         CNVShift        .... on
   Level shift para.    LevelShift      ....    0.2500
   Turn off err/grad.   ShiftErr        ....    0.0010
 Zerner damping         CNVZerner       .... off
 Static damping         CNVDamp         .... on
   Fraction old density DampFac         ....    0.7000
   Max. Damping (<1)    DampMax         ....    0.9800
   Min. Damping (>=0)   DampMin         ....    0.0000
   Turn off err/grad.   DampErr         ....    0.1000
 Fernandez-Rico         CNVRico         .... off

SCF Procedure:
 Maximum # iterations   MaxIter         ....   125
 SCF integral mode      SCFMode         .... Direct
   Integral package                     .... LIBINT
 Reset frequency        DirectResetFreq ....    20
 Integral Threshold     Thresh          ....  1.000e-12 Eh
 Primitive CutOff       TCut            ....  1.000e-14 Eh

Convergence Tolerance:
 Convergence Check Mode ConvCheckMode   .... Total+1el-Energy
 Convergence forced     ConvForced      .... 0
 Energy Change          TolE            ....  1.000e-09 Eh
 1-El. energy change                    ....  1.000e-06 Eh
 Orbital Gradient       TolG            ....  2.000e-06
 Orbital Rotation angle TolX            ....  2.000e-06
 DIIS Error             TolErr          ....  1.000e-08


Diagonalization of the overlap matrix:
Smallest eigenvalue                        ... 1.862e-02
Time for diagonalization                   ...    0.001 sec
Threshold for overlap eigenvalues          ... 1.000e-08
Number of eigenvalues below threshold      ... 0
Time for construction of square roots      ...    0.001 sec
Total time needed                          ...    0.002 sec

-------------------
DFT GRID GENERATION
-------------------

General Integration Accuracy     IntAcc      ...  5.010
Radial Grid Type                 RadialGrid  ... Gauss-Chebyshev
Angular Grid (max. acc.)         AngularGrid ... Lebedev-434
Angular grid pruning method      GridPruning ... 3 (G Style)
Weight generation scheme         WeightScheme... Becke
Basis function cutoff            BFCut       ...    1.0000e-12
Integration weight cutoff        WCut        ...    1.0000e-14
Grids for H and He will be reduced by one unit

# of grid points (after initial pruning)     ...  11992 (   0.0 sec)
# of grid points (after weights+screening)   ...  11992 (   0.0 sec)
Grid point division into batches done        ...    0.1 sec
Reduced shell lists constructed in    0.1 sec

Total number of grid points                  ...    11992
Total number of batches                      ...      188
Average number of points per batch           ...       63
Average number of grid points per atom       ...    11992
Average number of shells per batch           ...     0.00 ( 0.00%)
Average number of basis functions per batch  ...     0.00 ( 0.00%)
Average number of large shells per batch     ...     0.00 ( -nan%)
Average number of large basis fcns per batch ...     0.00 ( -nan%)
Maximum spatial batch extension              ...  18.71, 18.71, 18.71 au
Average spatial batch extension              ...   0.97,  0.98,  0.97 au

Time for grid setup =    0.150 sec

------------------------------
INITIAL GUESS: MODEL POTENTIAL
------------------------------
Loading ZORA relativistic densities                ... done
Calculating cut-offs                               ... done
Setting up the integral package                    ... done
Initializing the effective Hamiltonian             ... done
Starting the Coulomb interaction                   ... done (   0.0 sec)
Reading the grid                                   ... done
Mapping shells                                     ... done
Starting the XC term evaluation                    ... done (   0.0 sec)
  promolecular density results
     # of electrons  =     18.000000116
     EX              =    -28.047870263
     EC              =     -1.433252902
     EX+EC           =    -29.481123164
Transforming the Hamiltonian                       ... done (   0.0 sec)
Diagonalizing the Hamiltonian                      ... done (   0.0 sec)
Back transforming the eigenvectors                 ... done (   0.0 sec)
Now organizing SCF variables                       ... done
                      ------------------
                      INITIAL GUESS DONE (   0.2 sec)
                      ------------------
--------------
SCF ITERATIONS
--------------
ITER       Energy         Delta-E        Max-DP      RMS-DP      [F,P]     Damp
               ***  Starting incremental Fock matrix formation  ***
  0   -311.5480051750   0.000000000000 0.00986997  0.00031804  2.1796244 0.7000
                      *** Initiating the SOSCF procedure ***
                      *** Re-Reading the Fockian *** 
                      *** Removing any level shift *** 
ITER      Energy       Delta-E        Grad      Rot      Max-DP    RMS-DP
  1   -311.55473208  -0.0067269015  0.000525  0.000525  0.023059  0.000743
               *** Restarting incremental Fock matrix formation ***
  2   -311.57033082  -0.0155987408  0.004736  0.000042  0.000065  0.000003
  3   -311.57033125  -0.0000004309  0.000029  0.000000  0.000000  0.000000
                 **** Energy Check signals convergence ****
              ***Rediagonalizing the Fockian in SOSCF/NRSCF***

               *****************************************************
               *                     SUCCESS                       *
               *           SCF CONVERGED AFTER   4 CYCLES          *
               *****************************************************

Setting up the final grid:

General Integration Accuracy     IntAcc      ...  5.340
Radial Grid Type                 RadialGrid  ... Gauss-Chebyshev
Angular Grid (max. acc.)         AngularGrid ... Lebedev-590
Angular grid pruning method      GridPruning ... 3 (G Style)
Weight generation scheme         WeightScheme... Becke
Basis function cutoff            BFCut       ...    1.0000e-12
Integration weight cutoff        WCut        ...    1.0000e-14
Grids for H and He will be reduced by one unit

# of grid points (after initial pruning)     ...  18110 (   0.0 sec)
# of grid points (after weights+screening)   ...  18110 (   0.0 sec)
Grid point division into batches done        ...    0.2 sec
Reduced shell lists constructed in    0.2 sec

Total number of grid points                  ...    18110
Total number of batches                      ...      283
Average number of points per batch           ...       63
Average number of grid points per atom       ...    18110
Average number of shells per batch           ...     0.00 ( 0.00%)
Average number of basis functions per batch  ...     0.00 ( 0.00%)
Average number of large shells per batch     ...     0.00 ( -nan%)
Average number of large basis fcns per batch ...     0.00 ( -nan%)
Maximum spatial batch extension              ...  19.03, 19.03, 19.03 au
Average spatial batch extension              ...   0.84,  0.84,  0.80 au

Final grid set up in    0.2 sec
Final integration                            ... done (   0.0 sec)
Change in XC energy                          ...    -0.000000505
Integrated number of electrons               ...     2.000000068
Previous integrated no of electrons          ...     2.000000012

----------------
TOTAL SCF ENERGY
----------------

Total Energy       :         -311.57033175 Eh           -8478.25975 eV

Components:
Nuclear Repulsion  :            0.00000000 Eh               0.00000 eV
Electronic Energy  :         -311.57033175 Eh           -8478.25975 eV
One Electron Energy:         -323.84731840 Eh           -8812.33354 eV
Two Electron Energy:           12.27698665 Eh             334.07379 eV

Virial components:
Potential Energy   :         -621.14111318 Eh          -16902.10898 eV
Kinetic Energy     :          309.57078143 Eh            8423.84922 eV
Virial Ratio       :            2.00645911


DFT components:
N(Alpha)           :        1.000000034114 electrons
N(Beta)            :        1.000000034114 electrons
N(Total)           :        2.000000068228 electrons
E(X)               :       -9.404624472533 Eh       
E(C)               :       -0.236730255022 Eh       
E(XC)              :       -9.641354727555 Eh       
DFET-embed. en.    :        0.000000000000 Eh       

---------------
SCF CONVERGENCE
---------------

  Last Energy change         ...   -1.6314e-11  Tolerance :   1.0000e-09
  Last MAX-Density change    ...    0.0000e+00  Tolerance :   1.0000e-08
  Last RMS-Density change    ...    0.0000e+00  Tolerance :   1.0000e-09
  Last Orbital Gradient      ...    1.0974e-10  Tolerance :   2.0000e-06
  Last Orbital Rotation      ...    0.0000e+00  Tolerance :   2.0000e-06

================================================================================
                                        WARNING
Number of found core electrons (2) does not match given number of chemical core electrons (10)
================================================================================
             **** THE GBW FILE WAS UPDATED (Ar_pc-2_1096.287912_.gbw) ****
             **** DENSITY FILE WAS UPDATED (Ar_pc-2_1096.287912_.scfp) ****
             **** ENERGY FILE WAS UPDATED (Ar_pc-2_1096.287912_.en.tmp) ****
             **** THE GBW FILE WAS UPDATED (Ar_pc-2_1096.287912_.gbw) ****
             **** DENSITY FILE WAS UPDATED (Ar_pc-2_1096.287912_.scfp) ****
----------------
ORBITAL ENERGIES
----------------

  NO   OCC          E(Eh)            E(eV) 
   0   2.0000    -146.402981     -3983.8277 
   1   0.0000     -33.833123      -920.6461 
   2   0.0000     -32.699311      -889.7935 
   3   0.0000     -32.699311      -889.7935 
   4   0.0000     -32.699311      -889.7935 
   5   0.0000     -13.581794      -369.5794 
   6   0.0000     -13.242398      -360.3440 
   7   0.0000     -13.242398      -360.3440 
   8   0.0000     -13.242398      -360.3440 
   9   0.0000     -12.848898      -349.6363 
  10   0.0000     -12.848898      -349.6363 
  11   0.0000     -12.848898      -349.6363 
  12   0.0000     -12.848898      -349.6363 
  13   0.0000     -12.848898      -349.6363 
  14   0.0000      -6.991077      -190.2369 
  15   0.0000      -6.991077      -190.2369 
  16   0.0000      -6.991077      -190.2369 
  17   0.0000      -6.991077      -190.2369 
  18   0.0000      -6.991077      -190.2369 
  19   0.0000      -6.952762      -189.1943 
  20   0.0000      -6.952762      -189.1943 
  21   0.0000      -6.952762      -189.1943 
  22   0.0000      -6.802007      -185.0920 
  23   0.0000      -6.802007      -185.0920 
  24   0.0000      -6.802007      -185.0920 
  25   0.0000      -6.802007      -185.0920 
  26   0.0000      -6.802007      -185.0920 
  27   0.0000      -6.802007      -185.0920 
  28   0.0000      -6.802007      -185.0920 
  29   0.0000      -6.658137      -181.1771 
  30   0.0000      -4.060214      -110.4840 
  31   0.0000      -4.060214      -110.4840 
  32   0.0000      -4.060214      -110.4840 
  33   0.0000      12.155910       330.7791 

                    ********************************
                    * MULLIKEN POPULATION ANALYSIS *
                    ********************************

-----------------------
MULLIKEN ATOMIC CHARGES
-----------------------
   0 Ar:   16.000000
Sum of atomic charges:   16.0000000

--------------------------------
MULLIKEN REDUCED ORBITAL CHARGES
--------------------------------
  0 Ars       :     2.000000  s :     2.000000
      pz      :     0.000000  p :     0.000000
      px      :     0.000000
      py      :     0.000000
      dz2     :     0.000000  d :     0.000000
      dxz     :     0.000000
      dyz     :     0.000000
      dx2y2   :     0.000000
      dxy     :     0.000000
      f0      :     0.000000  f :     0.000000
      f+1     :     0.000000
      f-1     :     0.000000
      f+2     :     0.000000
      f-2     :     0.000000
      f+3     :     0.000000
      f-3     :     0.000000


                     *******************************
                     * LOEWDIN POPULATION ANALYSIS *
                     *******************************

----------------------
LOEWDIN ATOMIC CHARGES
----------------------
   0 Ar:   16.000000

-------------------------------
LOEWDIN REDUCED ORBITAL CHARGES
-------------------------------
  0 Ars       :     2.000000  s :     2.000000
      pz      :     0.000000  p :     0.000000
      px      :     0.000000
      py      :     0.000000
      dz2     :     0.000000  d :     0.000000
      dxz     :     0.000000
      dyz     :     0.000000
      dx2y2   :     0.000000
      dxy     :     0.000000
      f0      :     0.000000  f :     0.000000
      f+1     :     0.000000
      f-1     :     0.000000
      f+2     :     0.000000
      f-2     :     0.000000
      f+3     :     0.000000
      f-3     :     0.000000


                      *****************************
                      * MAYER POPULATION ANALYSIS *
                      *****************************

  NA   - Mulliken gross atomic population
  ZA   - Total nuclear charge
  QA   - Mulliken gross atomic charge
  VA   - Mayer's total valence
  BVA  - Mayer's bonded valence
  FA   - Mayer's free valence

  ATOM       NA         ZA         QA         VA         BVA        FA
  0 Ar     2.0000    18.0000    16.0000     0.0000     0.0000     0.0000

  Mayer bond orders larger than 0.100000


--------------------------
ATOM BASIS FOR ELEMENT Ar
--------------------------
 NewGTO Ar
 S 29
    1     232510.000000000000         0.000132345036
    2      34844.000000000000         0.001026913425
    3       7930.300000000000         0.005365269100
    4       2245.700000000000         0.022095456902
    5        732.220000000000         0.074719476748
    6        263.770000000000         0.199598157413
    7        102.190000000000         0.375275216302
    8         41.525000000000         0.368064531127
    9         17.202000000000         0.103430387751
   10      34844.000000000000         0.000000160199
   11       7930.300000000000         0.000000054954
   12       2245.700000000000         0.000010789291
   13        732.220000000000         0.000051653129
   14        263.770000000000         0.000556363926
   15        102.190000000000         0.002227406506
   16         41.525000000000         0.006909238320
   17         17.202000000000        -0.002708437754
   18          6.596700000000        -0.018866741481
   19       7930.300000000000        -0.000000038910
   20       2245.700000000000        -0.000000490776
   21        732.220000000000        -0.000005731594
   22        263.770000000000        -0.000042826209
   23        102.190000000000        -0.000225368568
   24         41.525000000000        -0.000625758774
   25         17.202000000000         0.000046128191
   26          6.596700000000         0.005169095185
   27          2.647700000000         0.006671579958
   28          0.661930000000        -0.001848156701
   29          0.229010000000         0.000614598602
 S 29
    1     232510.000000000000         0.000028669640
    2      34844.000000000000         0.000222458198
    3       7930.300000000000         0.001162267498
    4       2245.700000000000         0.004786494570
    5        732.220000000000         0.016186330579
    6        263.770000000000         0.043238549029
    7        102.190000000000         0.081295118402
    8         41.525000000000         0.079733082116
    9         17.202000000000         0.022405917719
   10      34844.000000000000         0.000004153502
   11       7930.300000000000         0.000001424787
   12       2245.700000000000         0.000279734874
   13        732.220000000000         0.001339215123
   14        263.770000000000         0.014424895399
   15        102.190000000000         0.057750160183
   16         41.525000000000         0.179136416584
   17         17.202000000000        -0.070221898750
   18          6.596700000000        -0.489159630210
   19       7930.300000000000         0.000002181612
   20       2245.700000000000         0.000027516680
   21        732.220000000000         0.000321357429
   22        263.770000000000         0.002401168194
   23        102.190000000000         0.012635903409
   24         41.525000000000         0.035084872339
   25         17.202000000000        -0.002586302820
   26          6.596700000000        -0.289819419431
   27          2.647700000000        -0.374060326034
   28          0.661930000000         0.095475530286
   29          0.229010000000        -0.037886555746
 S 29
    1     232510.000000000000        -0.000004302770
    2      34844.000000000000        -0.000033386759
    3       7930.300000000000        -0.000174434322
    4       2245.700000000000        -0.000718362113
    5        732.220000000000        -0.002429261430
    6        263.770000000000        -0.006489286682
    7        102.190000000000        -0.012200856434
    8         41.525000000000        -0.011966424394
    9         17.202000000000        -0.003362703576
   10      34844.000000000000         0.000004330041
   11       7930.300000000000         0.000001485346
   12       2245.700000000000         0.000291624632
   13        732.220000000000         0.001396136676
   14        263.770000000000         0.015038006349
   15        102.190000000000         0.060204753759
   16         41.525000000000         0.186750371180
   17         17.202000000000        -0.073206586949
   18          6.596700000000        -0.509950708235
   19       7930.300000000000         0.000000645073
   20       2245.700000000000         0.000008136307
   21        732.220000000000         0.000095021010
   22        263.770000000000         0.000709992695
   23        102.190000000000         0.003736264347
   24         41.525000000000         0.010374118367
   25         17.202000000000        -0.000764734480
   26          6.596700000000        -0.085695650625
   27          2.647700000000        -0.110604538079
   28          0.661930000000         1.456551650096
   29          0.229010000000        -0.351587747653
 S 29
    1     232510.000000000000        -0.000007025400
    2      34844.000000000000        -0.000054512645
    3       7930.300000000000        -0.000284809804
    4       2245.700000000000        -0.001172914655
    5        732.220000000000        -0.003966406744
    6        263.770000000000        -0.010595463354
    7        102.190000000000        -0.019921099741
    8         41.525000000000        -0.019538327919
    9         17.202000000000        -0.005490495991
   10      34844.000000000000         0.000002837124
   11       7930.300000000000         0.000000973226
   12       2245.700000000000         0.000191077942
   13        732.220000000000         0.000914775001
   14        263.770000000000         0.009853184512
   15        102.190000000000         0.039447286661
   16         41.525000000000         0.122362354564
   17         17.202000000000        -0.047966332233
   18          6.596700000000        -0.334129292365
   19       7930.300000000000        -0.000000302336
   20       2245.700000000000        -0.000003813372
   21        732.220000000000        -0.000044534997
   22        263.770000000000        -0.000332763483
   23        102.190000000000        -0.001751133988
   24         41.525000000000        -0.004862201810
   25         17.202000000000         0.000358420180
   26          6.596700000000         0.040164333280
   27          2.647700000000         0.051838774749
   28          0.661930000000         1.356912431711
   29          0.229010000000        -1.760210857100
 S 29
    1     232510.000000000000        -0.000138821495
    2      34844.000000000000        -0.001077166635
    3       7930.300000000000        -0.005627824825
    4       2245.700000000000        -0.023176723953
    5        732.220000000000        -0.078375961819
    6        263.770000000000        -0.209365726921
    7        102.190000000000        -0.393639748359
    8         41.525000000000        -0.386076199862
    9         17.202000000000        -0.108491874864
   10      34844.000000000000         0.000038118033
   11       7930.300000000000         0.000013075733
   12       2245.700000000000         0.002567217669
   13        732.220000000000         0.012290411557
   14        263.770000000000         0.132381943816
   15        102.190000000000         0.529991951363
   16         41.525000000000         1.643992998205
   17         17.202000000000        -0.644449141422
   18          6.596700000000        -4.489176586220
   19       7930.300000000000        -0.000018692273
   20       2245.700000000000        -0.000235765761
   21        732.220000000000        -0.002753423648
   22        263.770000000000        -0.020573457145
   23        102.190000000000        -0.108265725808
   24         41.525000000000        -0.300610810767
   25         17.202000000000         0.022159709750
   26          6.596700000000         2.483202726525
   27          2.647700000000         3.204987517110
   28          0.661930000000        -2.186437995732
   29          0.229010000000         0.973421227508
 P 16
    1       1297.700000000000         0.001037619939
    2        307.860000000000         0.008661857639
    3         99.096000000000         0.044311302574
    4         36.837000000000         0.150937738908
    5         15.027000000000         0.337788019083
    6          6.366200000000         0.456127322536
    7          2.711000000000         0.273797456748
    8        307.860000000000         0.000007641150
    9         99.096000000000         0.000113684196
   10         36.837000000000         0.001076532839
   11         15.027000000000         0.004962444662
   12          6.366200000000         0.011349436419
   13          2.711000000000        -0.025695230818
   14          1.018200000000        -0.216673359896
   15          0.382740000000         0.127848001523
   16          0.129460000000        -0.041345448478
 P 16
    1       1297.700000000000         0.000344807612
    2        307.860000000000         0.002878389610
    3         99.096000000000         0.014724923710
    4         36.837000000000         0.050157557130
    5         15.027000000000         0.112249076920
    6          6.366200000000         0.151573969532
    7          2.711000000000         0.090984611788
    8        307.860000000000         0.000044721888
    9         99.096000000000         0.000665367363
   10         36.837000000000         0.006300698237
   11         15.027000000000         0.029044043247
   12          6.366200000000         0.066425631842
   13          2.711000000000        -0.150388255368
   14          1.018200000000        -1.268139166002
   15          0.382740000000         0.411861349196
   16          0.129460000000        -0.123094600502
 P 16
    1       1297.700000000000         0.000120819949
    2        307.860000000000         0.001008582388
    3         99.096000000000         0.005159585997
    4         36.837000000000         0.017575115125
    5         15.027000000000         0.039331868664
    6          6.366200000000         0.053111238205
    7          2.711000000000         0.031880839465
    8        307.860000000000         0.000035042718
    9         99.096000000000         0.000521361738
   10         36.837000000000         0.004937036547
   11         15.027000000000         0.022758033725
   12          6.366200000000         0.052049115780
   13          2.711000000000        -0.117839687762
   14          1.018200000000        -0.993675490115
   15          0.382740000000         1.701844496219
   16          0.129460000000        -0.229378341488
 P 16
    1       1297.700000000000         0.000044498386
    2        307.860000000000         0.000371464226
    3         99.096000000000         0.001900292570
    4         36.837000000000         0.006472972969
    5         15.027000000000         0.014486057181
    6          6.366200000000         0.019561044510
    7          2.711000000000         0.011741818509
    8        307.860000000000         0.000017394050
    9         99.096000000000         0.000258786772
   10         36.837000000000         0.002450582115
   11         15.027000000000         0.011296337368
   12          6.366200000000         0.025835464463
   13          2.711000000000        -0.058491734582
   14          1.018200000000        -0.493227741285
   15          0.382740000000         1.397968866508
   16          0.129460000000        -1.548769695661
 D 2
    1          2.520000000000         0.967811098254
    2          0.570000000000         0.072914436690
 D 2
    1          2.520000000000         0.516483259262
    2          0.570000000000        -1.094576065846
 F 1
    1          0.780000000000         1.000000000000
 end
  // -----------------------------------------------
  // The basis set
  // -----------------------------------------------
  BAS[ATNO] = new BFNGauss[NSH];
  // Basis function   1 L = s
  InitBFNGauss(BAS[ATNO][  0]);
  BAS[ATNO][  0].l  = 0;
  BAS[ATNO][  0].ng = 29;
  BAS[ATNO][  0].a[  0] =    232510.000000000000;     BAS[ATNO][  0].d[  0] =         0.000132345036;
  BAS[ATNO][  0].a[  1] =     34844.000000000000;     BAS[ATNO][  0].d[  1] =         0.001026913425;
  BAS[ATNO][  0].a[  2] =      7930.300000000000;     BAS[ATNO][  0].d[  2] =         0.005365269100;
  BAS[ATNO][  0].a[  3] =      2245.700000000000;     BAS[ATNO][  0].d[  3] =         0.022095456902;
  BAS[ATNO][  0].a[  4] =       732.220000000000;     BAS[ATNO][  0].d[  4] =         0.074719476748;
  BAS[ATNO][  0].a[  5] =       263.770000000000;     BAS[ATNO][  0].d[  5] =         0.199598157413;
  BAS[ATNO][  0].a[  6] =       102.190000000000;     BAS[ATNO][  0].d[  6] =         0.375275216302;
  BAS[ATNO][  0].a[  7] =        41.525000000000;     BAS[ATNO][  0].d[  7] =         0.368064531127;
  BAS[ATNO][  0].a[  8] =        17.202000000000;     BAS[ATNO][  0].d[  8] =         0.103430387751;
  BAS[ATNO][  0].a[  9] =     34844.000000000000;     BAS[ATNO][  0].d[  9] =         0.000000160199;
  BAS[ATNO][  0].a[ 10] =      7930.300000000000;     BAS[ATNO][  0].d[ 10] =         0.000000054954;
  BAS[ATNO][  0].a[ 11] =      2245.700000000000;     BAS[ATNO][  0].d[ 11] =         0.000010789291;
  BAS[ATNO][  0].a[ 12] =       732.220000000000;     BAS[ATNO][  0].d[ 12] =         0.000051653129;
  BAS[ATNO][  0].a[ 13] =       263.770000000000;     BAS[ATNO][  0].d[ 13] =         0.000556363926;
  BAS[ATNO][  0].a[ 14] =       102.190000000000;     BAS[ATNO][  0].d[ 14] =         0.002227406506;
  BAS[ATNO][  0].a[ 15] =        41.525000000000;     BAS[ATNO][  0].d[ 15] =         0.006909238320;
  BAS[ATNO][  0].a[ 16] =        17.202000000000;     BAS[ATNO][  0].d[ 16] =        -0.002708437754;
  BAS[ATNO][  0].a[ 17] =         6.596700000000;     BAS[ATNO][  0].d[ 17] =        -0.018866741481;
  BAS[ATNO][  0].a[ 18] =      7930.300000000000;     BAS[ATNO][  0].d[ 18] =        -0.000000038910;
  BAS[ATNO][  0].a[ 19] =      2245.700000000000;     BAS[ATNO][  0].d[ 19] =        -0.000000490776;
  BAS[ATNO][  0].a[ 20] =       732.220000000000;     BAS[ATNO][  0].d[ 20] =        -0.000005731594;
  BAS[ATNO][  0].a[ 21] =       263.770000000000;     BAS[ATNO][  0].d[ 21] =        -0.000042826209;
  BAS[ATNO][  0].a[ 22] =       102.190000000000;     BAS[ATNO][  0].d[ 22] =        -0.000225368568;
  BAS[ATNO][  0].a[ 23] =        41.525000000000;     BAS[ATNO][  0].d[ 23] =        -0.000625758774;
  BAS[ATNO][  0].a[ 24] =        17.202000000000;     BAS[ATNO][  0].d[ 24] =         0.000046128191;
  BAS[ATNO][  0].a[ 25] =         6.596700000000;     BAS[ATNO][  0].d[ 25] =         0.005169095185;
  BAS[ATNO][  0].a[ 26] =         2.647700000000;     BAS[ATNO][  0].d[ 26] =         0.006671579958;
  BAS[ATNO][  0].a[ 27] =         0.661930000000;     BAS[ATNO][  0].d[ 27] =        -0.001848156701;
  BAS[ATNO][  0].a[ 28] =         0.229010000000;     BAS[ATNO][  0].d[ 28] =         0.000614598602;

  // Basis function   2 L = s
  InitBFNGauss(BAS[ATNO][  1]);
  BAS[ATNO][  1].l  = 0;
  BAS[ATNO][  1].ng = 29;
  BAS[ATNO][  1].a[  0] =    232510.000000000000;     BAS[ATNO][  1].d[  0] =        -0.000028669640;
  BAS[ATNO][  1].a[  1] =     34844.000000000000;     BAS[ATNO][  1].d[  1] =        -0.000222458198;
  BAS[ATNO][  1].a[  2] =      7930.300000000000;     BAS[ATNO][  1].d[  2] =        -0.001162267498;
  BAS[ATNO][  1].a[  3] =      2245.700000000000;     BAS[ATNO][  1].d[  3] =        -0.004786494570;
  BAS[ATNO][  1].a[  4] =       732.220000000000;     BAS[ATNO][  1].d[  4] =        -0.016186330579;
  BAS[ATNO][  1].a[  5] =       263.770000000000;     BAS[ATNO][  1].d[  5] =        -0.043238549029;
  BAS[ATNO][  1].a[  6] =       102.190000000000;     BAS[ATNO][  1].d[  6] =        -0.081295118402;
  BAS[ATNO][  1].a[  7] =        41.525000000000;     BAS[ATNO][  1].d[  7] =        -0.079733082116;
  BAS[ATNO][  1].a[  8] =        17.202000000000;     BAS[ATNO][  1].d[  8] =        -0.022405917719;
  BAS[ATNO][  1].a[  9] =     34844.000000000000;     BAS[ATNO][  1].d[  9] =        -0.000004153502;
  BAS[ATNO][  1].a[ 10] =      7930.300000000000;     BAS[ATNO][  1].d[ 10] =        -0.000001424787;
  BAS[ATNO][  1].a[ 11] =      2245.700000000000;     BAS[ATNO][  1].d[ 11] =        -0.000279734874;
  BAS[ATNO][  1].a[ 12] =       732.220000000000;     BAS[ATNO][  1].d[ 12] =        -0.001339215123;
  BAS[ATNO][  1].a[ 13] =       263.770000000000;     BAS[ATNO][  1].d[ 13] =        -0.014424895399;
  BAS[ATNO][  1].a[ 14] =       102.190000000000;     BAS[ATNO][  1].d[ 14] =        -0.057750160183;
  BAS[ATNO][  1].a[ 15] =        41.525000000000;     BAS[ATNO][  1].d[ 15] =        -0.179136416584;
  BAS[ATNO][  1].a[ 16] =        17.202000000000;     BAS[ATNO][  1].d[ 16] =         0.070221898750;
  BAS[ATNO][  1].a[ 17] =         6.596700000000;     BAS[ATNO][  1].d[ 17] =         0.489159630210;
  BAS[ATNO][  1].a[ 18] =      7930.300000000000;     BAS[ATNO][  1].d[ 18] =        -0.000002181612;
  BAS[ATNO][  1].a[ 19] =      2245.700000000000;     BAS[ATNO][  1].d[ 19] =        -0.000027516680;
  BAS[ATNO][  1].a[ 20] =       732.220000000000;     BAS[ATNO][  1].d[ 20] =        -0.000321357429;
  BAS[ATNO][  1].a[ 21] =       263.770000000000;     BAS[ATNO][  1].d[ 21] =        -0.002401168194;
  BAS[ATNO][  1].a[ 22] =       102.190000000000;     BAS[ATNO][  1].d[ 22] =        -0.012635903409;
  BAS[ATNO][  1].a[ 23] =        41.525000000000;     BAS[ATNO][  1].d[ 23] =        -0.035084872339;
  BAS[ATNO][  1].a[ 24] =        17.202000000000;     BAS[ATNO][  1].d[ 24] =         0.002586302820;
  BAS[ATNO][  1].a[ 25] =         6.596700000000;     BAS[ATNO][  1].d[ 25] =         0.289819419431;
  BAS[ATNO][  1].a[ 26] =         2.647700000000;     BAS[ATNO][  1].d[ 26] =         0.374060326034;
  BAS[ATNO][  1].a[ 27] =         0.661930000000;     BAS[ATNO][  1].d[ 27] =        -0.095475530286;
  BAS[ATNO][  1].a[ 28] =         0.229010000000;     BAS[ATNO][  1].d[ 28] =         0.037886555746;

  // Basis function   3 L = s
  InitBFNGauss(BAS[ATNO][  2]);
  BAS[ATNO][  2].l  = 0;
  BAS[ATNO][  2].ng = 29;
  BAS[ATNO][  2].a[  0] =    232510.000000000000;     BAS[ATNO][  2].d[  0] =        -0.000004302770;
  BAS[ATNO][  2].a[  1] =     34844.000000000000;     BAS[ATNO][  2].d[  1] =        -0.000033386759;
  BAS[ATNO][  2].a[  2] =      7930.300000000000;     BAS[ATNO][  2].d[  2] =        -0.000174434322;
  BAS[ATNO][  2].a[  3] =      2245.700000000000;     BAS[ATNO][  2].d[  3] =        -0.000718362113;
  BAS[ATNO][  2].a[  4] =       732.220000000000;     BAS[ATNO][  2].d[  4] =        -0.002429261430;
  BAS[ATNO][  2].a[  5] =       263.770000000000;     BAS[ATNO][  2].d[  5] =        -0.006489286682;
  BAS[ATNO][  2].a[  6] =       102.190000000000;     BAS[ATNO][  2].d[  6] =        -0.012200856434;
  BAS[ATNO][  2].a[  7] =        41.525000000000;     BAS[ATNO][  2].d[  7] =        -0.011966424394;
  BAS[ATNO][  2].a[  8] =        17.202000000000;     BAS[ATNO][  2].d[  8] =        -0.003362703576;
  BAS[ATNO][  2].a[  9] =     34844.000000000000;     BAS[ATNO][  2].d[  9] =         0.000004330041;
  BAS[ATNO][  2].a[ 10] =      7930.300000000000;     BAS[ATNO][  2].d[ 10] =         0.000001485346;
  BAS[ATNO][  2].a[ 11] =      2245.700000000000;     BAS[ATNO][  2].d[ 11] =         0.000291624632;
  BAS[ATNO][  2].a[ 12] =       732.220000000000;     BAS[ATNO][  2].d[ 12] =         0.001396136676;
  BAS[ATNO][  2].a[ 13] =       263.770000000000;     BAS[ATNO][  2].d[ 13] =         0.015038006349;
  BAS[ATNO][  2].a[ 14] =       102.190000000000;     BAS[ATNO][  2].d[ 14] =         0.060204753759;
  BAS[ATNO][  2].a[ 15] =        41.525000000000;     BAS[ATNO][  2].d[ 15] =         0.186750371180;
  BAS[ATNO][  2].a[ 16] =        17.202000000000;     BAS[ATNO][  2].d[ 16] =        -0.073206586949;
  BAS[ATNO][  2].a[ 17] =         6.596700000000;     BAS[ATNO][  2].d[ 17] =        -0.509950708235;
  BAS[ATNO][  2].a[ 18] =      7930.300000000000;     BAS[ATNO][  2].d[ 18] =         0.000000645073;
  BAS[ATNO][  2].a[ 19] =      2245.700000000000;     BAS[ATNO][  2].d[ 19] =         0.000008136307;
  BAS[ATNO][  2].a[ 20] =       732.220000000000;     BAS[ATNO][  2].d[ 20] =         0.000095021010;
  BAS[ATNO][  2].a[ 21] =       263.770000000000;     BAS[ATNO][  2].d[ 21] =         0.000709992695;
  BAS[ATNO][  2].a[ 22] =       102.190000000000;     BAS[ATNO][  2].d[ 22] =         0.003736264347;
  BAS[ATNO][  2].a[ 23] =        41.525000000000;     BAS[ATNO][  2].d[ 23] =         0.010374118367;
  BAS[ATNO][  2].a[ 24] =        17.202000000000;     BAS[ATNO][  2].d[ 24] =        -0.000764734480;
  BAS[ATNO][  2].a[ 25] =         6.596700000000;     BAS[ATNO][  2].d[ 25] =        -0.085695650625;
  BAS[ATNO][  2].a[ 26] =         2.647700000000;     BAS[ATNO][  2].d[ 26] =        -0.110604538079;
  BAS[ATNO][  2].a[ 27] =         0.661930000000;     BAS[ATNO][  2].d[ 27] =         1.456551650096;
  BAS[ATNO][  2].a[ 28] =         0.229010000000;     BAS[ATNO][  2].d[ 28] =        -0.351587747653;

  // Basis function   4 L = s
  InitBFNGauss(BAS[ATNO][  3]);
  BAS[ATNO][  3].l  = 0;
  BAS[ATNO][  3].ng = 29;
  BAS[ATNO][  3].a[  0] =    232510.000000000000;     BAS[ATNO][  3].d[  0] =         0.000007025400;
  BAS[ATNO][  3].a[  1] =     34844.000000000000;     BAS[ATNO][  3].d[  1] =         0.000054512645;
  BAS[ATNO][  3].a[  2] =      7930.300000000000;     BAS[ATNO][  3].d[  2] =         0.000284809804;
  BAS[ATNO][  3].a[  3] =      2245.700000000000;     BAS[ATNO][  3].d[  3] =         0.001172914655;
  BAS[ATNO][  3].a[  4] =       732.220000000000;     BAS[ATNO][  3].d[  4] =         0.003966406744;
  BAS[ATNO][  3].a[  5] =       263.770000000000;     BAS[ATNO][  3].d[  5] =         0.010595463354;
  BAS[ATNO][  3].a[  6] =       102.190000000000;     BAS[ATNO][  3].d[  6] =         0.019921099741;
  BAS[ATNO][  3].a[  7] =        41.525000000000;     BAS[ATNO][  3].d[  7] =         0.019538327919;
  BAS[ATNO][  3].a[  8] =        17.202000000000;     BAS[ATNO][  3].d[  8] =         0.005490495991;
  BAS[ATNO][  3].a[  9] =     34844.000000000000;     BAS[ATNO][  3].d[  9] =        -0.000002837124;
  BAS[ATNO][  3].a[ 10] =      7930.300000000000;     BAS[ATNO][  3].d[ 10] =        -0.000000973226;
  BAS[ATNO][  3].a[ 11] =      2245.700000000000;     BAS[ATNO][  3].d[ 11] =        -0.000191077942;
  BAS[ATNO][  3].a[ 12] =       732.220000000000;     BAS[ATNO][  3].d[ 12] =        -0.000914775001;
  BAS[ATNO][  3].a[ 13] =       263.770000000000;     BAS[ATNO][  3].d[ 13] =        -0.009853184512;
  BAS[ATNO][  3].a[ 14] =       102.190000000000;     BAS[ATNO][  3].d[ 14] =        -0.039447286661;
  BAS[ATNO][  3].a[ 15] =        41.525000000000;     BAS[ATNO][  3].d[ 15] =        -0.122362354564;
  BAS[ATNO][  3].a[ 16] =        17.202000000000;     BAS[ATNO][  3].d[ 16] =         0.047966332233;
  BAS[ATNO][  3].a[ 17] =         6.596700000000;     BAS[ATNO][  3].d[ 17] =         0.334129292365;
  BAS[ATNO][  3].a[ 18] =      7930.300000000000;     BAS[ATNO][  3].d[ 18] =         0.000000302336;
  BAS[ATNO][  3].a[ 19] =      2245.700000000000;     BAS[ATNO][  3].d[ 19] =         0.000003813372;
  BAS[ATNO][  3].a[ 20] =       732.220000000000;     BAS[ATNO][  3].d[ 20] =         0.000044534997;
  BAS[ATNO][  3].a[ 21] =       263.770000000000;     BAS[ATNO][  3].d[ 21] =         0.000332763483;
  BAS[ATNO][  3].a[ 22] =       102.190000000000;     BAS[ATNO][  3].d[ 22] =         0.001751133988;
  BAS[ATNO][  3].a[ 23] =        41.525000000000;     BAS[ATNO][  3].d[ 23] =         0.004862201810;
  BAS[ATNO][  3].a[ 24] =        17.202000000000;     BAS[ATNO][  3].d[ 24] =        -0.000358420180;
  BAS[ATNO][  3].a[ 25] =         6.596700000000;     BAS[ATNO][  3].d[ 25] =        -0.040164333280;
  BAS[ATNO][  3].a[ 26] =         2.647700000000;     BAS[ATNO][  3].d[ 26] =        -0.051838774749;
  BAS[ATNO][  3].a[ 27] =         0.661930000000;     BAS[ATNO][  3].d[ 27] =        -1.356912431711;
  BAS[ATNO][  3].a[ 28] =         0.229010000000;     BAS[ATNO][  3].d[ 28] =         1.760210857100;

  // Basis function   5 L = s
  InitBFNGauss(BAS[ATNO][  4]);
  BAS[ATNO][  4].l  = 0;
  BAS[ATNO][  4].ng = 29;
  BAS[ATNO][  4].a[  0] =    232510.000000000000;     BAS[ATNO][  4].d[  0] =         0.000138821495;
  BAS[ATNO][  4].a[  1] =     34844.000000000000;     BAS[ATNO][  4].d[  1] =         0.001077166635;
  BAS[ATNO][  4].a[  2] =      7930.300000000000;     BAS[ATNO][  4].d[  2] =         0.005627824825;
  BAS[ATNO][  4].a[  3] =      2245.700000000000;     BAS[ATNO][  4].d[  3] =         0.023176723953;
  BAS[ATNO][  4].a[  4] =       732.220000000000;     BAS[ATNO][  4].d[  4] =         0.078375961819;
  BAS[ATNO][  4].a[  5] =       263.770000000000;     BAS[ATNO][  4].d[  5] =         0.209365726921;
  BAS[ATNO][  4].a[  6] =       102.190000000000;     BAS[ATNO][  4].d[  6] =         0.393639748359;
  BAS[ATNO][  4].a[  7] =        41.525000000000;     BAS[ATNO][  4].d[  7] =         0.386076199862;
  BAS[ATNO][  4].a[  8] =        17.202000000000;     BAS[ATNO][  4].d[  8] =         0.108491874864;
  BAS[ATNO][  4].a[  9] =     34844.000000000000;     BAS[ATNO][  4].d[  9] =        -0.000038118033;
  BAS[ATNO][  4].a[ 10] =      7930.300000000000;     BAS[ATNO][  4].d[ 10] =        -0.000013075733;
  BAS[ATNO][  4].a[ 11] =      2245.700000000000;     BAS[ATNO][  4].d[ 11] =        -0.002567217669;
  BAS[ATNO][  4].a[ 12] =       732.220000000000;     BAS[ATNO][  4].d[ 12] =        -0.012290411557;
  BAS[ATNO][  4].a[ 13] =       263.770000000000;     BAS[ATNO][  4].d[ 13] =        -0.132381943816;
  BAS[ATNO][  4].a[ 14] =       102.190000000000;     BAS[ATNO][  4].d[ 14] =        -0.529991951363;
  BAS[ATNO][  4].a[ 15] =        41.525000000000;     BAS[ATNO][  4].d[ 15] =        -1.643992998205;
  BAS[ATNO][  4].a[ 16] =        17.202000000000;     BAS[ATNO][  4].d[ 16] =         0.644449141422;
  BAS[ATNO][  4].a[ 17] =         6.596700000000;     BAS[ATNO][  4].d[ 17] =         4.489176586220;
  BAS[ATNO][  4].a[ 18] =      7930.300000000000;     BAS[ATNO][  4].d[ 18] =         0.000018692273;
  BAS[ATNO][  4].a[ 19] =      2245.700000000000;     BAS[ATNO][  4].d[ 19] =         0.000235765761;
  BAS[ATNO][  4].a[ 20] =       732.220000000000;     BAS[ATNO][  4].d[ 20] =         0.002753423648;
  BAS[ATNO][  4].a[ 21] =       263.770000000000;     BAS[ATNO][  4].d[ 21] =         0.020573457145;
  BAS[ATNO][  4].a[ 22] =       102.190000000000;     BAS[ATNO][  4].d[ 22] =         0.108265725808;
  BAS[ATNO][  4].a[ 23] =        41.525000000000;     BAS[ATNO][  4].d[ 23] =         0.300610810767;
  BAS[ATNO][  4].a[ 24] =        17.202000000000;     BAS[ATNO][  4].d[ 24] =        -0.022159709750;
  BAS[ATNO][  4].a[ 25] =         6.596700000000;     BAS[ATNO][  4].d[ 25] =        -2.483202726525;
  BAS[ATNO][  4].a[ 26] =         2.647700000000;     BAS[ATNO][  4].d[ 26] =        -3.204987517110;
  BAS[ATNO][  4].a[ 27] =         0.661930000000;     BAS[ATNO][  4].d[ 27] =         2.186437995732;
  BAS[ATNO][  4].a[ 28] =         0.229010000000;     BAS[ATNO][  4].d[ 28] =        -0.973421227508;

  // Basis function   6 L = p
  InitBFNGauss(BAS[ATNO][  5]);
  BAS[ATNO][  5].l  = 1;
  BAS[ATNO][  5].ng = 16;
  BAS[ATNO][  5].a[  0] =      1297.700000000000;     BAS[ATNO][  5].d[  0] =         0.001037619939;
  BAS[ATNO][  5].a[  1] =       307.860000000000;     BAS[ATNO][  5].d[  1] =         0.008661857639;
  BAS[ATNO][  5].a[  2] =        99.096000000000;     BAS[ATNO][  5].d[  2] =         0.044311302574;
  BAS[ATNO][  5].a[  3] =        36.837000000000;     BAS[ATNO][  5].d[  3] =         0.150937738908;
  BAS[ATNO][  5].a[  4] =        15.027000000000;     BAS[ATNO][  5].d[  4] =         0.337788019083;
  BAS[ATNO][  5].a[  5] =         6.366200000000;     BAS[ATNO][  5].d[  5] =         0.456127322536;
  BAS[ATNO][  5].a[  6] =         2.711000000000;     BAS[ATNO][  5].d[  6] =         0.273797456748;
  BAS[ATNO][  5].a[  7] =       307.860000000000;     BAS[ATNO][  5].d[  7] =         0.000007641150;
  BAS[ATNO][  5].a[  8] =        99.096000000000;     BAS[ATNO][  5].d[  8] =         0.000113684196;
  BAS[ATNO][  5].a[  9] =        36.837000000000;     BAS[ATNO][  5].d[  9] =         0.001076532839;
  BAS[ATNO][  5].a[ 10] =        15.027000000000;     BAS[ATNO][  5].d[ 10] =         0.004962444662;
  BAS[ATNO][  5].a[ 11] =         6.366200000000;     BAS[ATNO][  5].d[ 11] =         0.011349436419;
  BAS[ATNO][  5].a[ 12] =         2.711000000000;     BAS[ATNO][  5].d[ 12] =        -0.025695230818;
  BAS[ATNO][  5].a[ 13] =         1.018200000000;     BAS[ATNO][  5].d[ 13] =        -0.216673359896;
  BAS[ATNO][  5].a[ 14] =         0.382740000000;     BAS[ATNO][  5].d[ 14] =         0.127848001523;
  BAS[ATNO][  5].a[ 15] =         0.129460000000;     BAS[ATNO][  5].d[ 15] =        -0.041345448478;

  // Basis function   7 L = p
  InitBFNGauss(BAS[ATNO][  6]);
  BAS[ATNO][  6].l  = 1;
  BAS[ATNO][  6].ng = 16;
  BAS[ATNO][  6].a[  0] =      1297.700000000000;     BAS[ATNO][  6].d[  0] =        -0.000344807612;
  BAS[ATNO][  6].a[  1] =       307.860000000000;     BAS[ATNO][  6].d[  1] =        -0.002878389610;
  BAS[ATNO][  6].a[  2] =        99.096000000000;     BAS[ATNO][  6].d[  2] =        -0.014724923710;
  BAS[ATNO][  6].a[  3] =        36.837000000000;     BAS[ATNO][  6].d[  3] =        -0.050157557130;
  BAS[ATNO][  6].a[  4] =        15.027000000000;     BAS[ATNO][  6].d[  4] =        -0.112249076920;
  BAS[ATNO][  6].a[  5] =         6.366200000000;     BAS[ATNO][  6].d[  5] =        -0.151573969532;
  BAS[ATNO][  6].a[  6] =         2.711000000000;     BAS[ATNO][  6].d[  6] =        -0.090984611788;
  BAS[ATNO][  6].a[  7] =       307.860000000000;     BAS[ATNO][  6].d[  7] =        -0.000044721888;
  BAS[ATNO][  6].a[  8] =        99.096000000000;     BAS[ATNO][  6].d[  8] =        -0.000665367363;
  BAS[ATNO][  6].a[  9] =        36.837000000000;     BAS[ATNO][  6].d[  9] =        -0.006300698237;
  BAS[ATNO][  6].a[ 10] =        15.027000000000;     BAS[ATNO][  6].d[ 10] =        -0.029044043247;
  BAS[ATNO][  6].a[ 11] =         6.366200000000;     BAS[ATNO][  6].d[ 11] =        -0.066425631842;
  BAS[ATNO][  6].a[ 12] =         2.711000000000;     BAS[ATNO][  6].d[ 12] =         0.150388255368;
  BAS[ATNO][  6].a[ 13] =         1.018200000000;     BAS[ATNO][  6].d[ 13] =         1.268139166002;
  BAS[ATNO][  6].a[ 14] =         0.382740000000;     BAS[ATNO][  6].d[ 14] =        -0.411861349196;
  BAS[ATNO][  6].a[ 15] =         0.129460000000;     BAS[ATNO][  6].d[ 15] =         0.123094600502;

  // Basis function   8 L = p
  InitBFNGauss(BAS[ATNO][  7]);
  BAS[ATNO][  7].l  = 1;
  BAS[ATNO][  7].ng = 16;
  BAS[ATNO][  7].a[  0] =      1297.700000000000;     BAS[ATNO][  7].d[  0] =         0.000120819949;
  BAS[ATNO][  7].a[  1] =       307.860000000000;     BAS[ATNO][  7].d[  1] =         0.001008582388;
  BAS[ATNO][  7].a[  2] =        99.096000000000;     BAS[ATNO][  7].d[  2] =         0.005159585997;
  BAS[ATNO][  7].a[  3] =        36.837000000000;     BAS[ATNO][  7].d[  3] =         0.017575115125;
  BAS[ATNO][  7].a[  4] =        15.027000000000;     BAS[ATNO][  7].d[  4] =         0.039331868664;
  BAS[ATNO][  7].a[  5] =         6.366200000000;     BAS[ATNO][  7].d[  5] =         0.053111238205;
  BAS[ATNO][  7].a[  6] =         2.711000000000;     BAS[ATNO][  7].d[  6] =         0.031880839465;
  BAS[ATNO][  7].a[  7] =       307.860000000000;     BAS[ATNO][  7].d[  7] =         0.000035042718;
  BAS[ATNO][  7].a[  8] =        99.096000000000;     BAS[ATNO][  7].d[  8] =         0.000521361738;
  BAS[ATNO][  7].a[  9] =        36.837000000000;     BAS[ATNO][  7].d[  9] =         0.004937036547;
  BAS[ATNO][  7].a[ 10] =        15.027000000000;     BAS[ATNO][  7].d[ 10] =         0.022758033725;
  BAS[ATNO][  7].a[ 11] =         6.366200000000;     BAS[ATNO][  7].d[ 11] =         0.052049115780;
  BAS[ATNO][  7].a[ 12] =         2.711000000000;     BAS[ATNO][  7].d[ 12] =        -0.117839687762;
  BAS[ATNO][  7].a[ 13] =         1.018200000000;     BAS[ATNO][  7].d[ 13] =        -0.993675490115;
  BAS[ATNO][  7].a[ 14] =         0.382740000000;     BAS[ATNO][  7].d[ 14] =         1.701844496219;
  BAS[ATNO][  7].a[ 15] =         0.129460000000;     BAS[ATNO][  7].d[ 15] =        -0.229378341488;

  // Basis function   9 L = p
  InitBFNGauss(BAS[ATNO][  8]);
  BAS[ATNO][  8].l  = 1;
  BAS[ATNO][  8].ng = 16;
  BAS[ATNO][  8].a[  0] =      1297.700000000000;     BAS[ATNO][  8].d[  0] =        -0.000044498386;
  BAS[ATNO][  8].a[  1] =       307.860000000000;     BAS[ATNO][  8].d[  1] =        -0.000371464226;
  BAS[ATNO][  8].a[  2] =        99.096000000000;     BAS[ATNO][  8].d[  2] =        -0.001900292570;
  BAS[ATNO][  8].a[  3] =        36.837000000000;     BAS[ATNO][  8].d[  3] =        -0.006472972969;
  BAS[ATNO][  8].a[  4] =        15.027000000000;     BAS[ATNO][  8].d[  4] =        -0.014486057181;
  BAS[ATNO][  8].a[  5] =         6.366200000000;     BAS[ATNO][  8].d[  5] =        -0.019561044510;
  BAS[ATNO][  8].a[  6] =         2.711000000000;     BAS[ATNO][  8].d[  6] =        -0.011741818509;
  BAS[ATNO][  8].a[  7] =       307.860000000000;     BAS[ATNO][  8].d[  7] =        -0.000017394050;
  BAS[ATNO][  8].a[  8] =        99.096000000000;     BAS[ATNO][  8].d[  8] =        -0.000258786772;
  BAS[ATNO][  8].a[  9] =        36.837000000000;     BAS[ATNO][  8].d[  9] =        -0.002450582115;
  BAS[ATNO][  8].a[ 10] =        15.027000000000;     BAS[ATNO][  8].d[ 10] =        -0.011296337368;
  BAS[ATNO][  8].a[ 11] =         6.366200000000;     BAS[ATNO][  8].d[ 11] =        -0.025835464463;
  BAS[ATNO][  8].a[ 12] =         2.711000000000;     BAS[ATNO][  8].d[ 12] =         0.058491734582;
  BAS[ATNO][  8].a[ 13] =         1.018200000000;     BAS[ATNO][  8].d[ 13] =         0.493227741285;
  BAS[ATNO][  8].a[ 14] =         0.382740000000;     BAS[ATNO][  8].d[ 14] =        -1.397968866508;
  BAS[ATNO][  8].a[ 15] =         0.129460000000;     BAS[ATNO][  8].d[ 15] =         1.548769695661;

  // Basis function  10 L = d
  InitBFNGauss(BAS[ATNO][  9]);
  BAS[ATNO][  9].l  = 2;
  BAS[ATNO][  9].ng = 2;
  BAS[ATNO][  9].a[  0] =         2.520000000000;     BAS[ATNO][  9].d[  0] =         0.967811098254;
  BAS[ATNO][  9].a[  1] =         0.570000000000;     BAS[ATNO][  9].d[  1] =         0.072914436690;

  // Basis function  11 L = d
  InitBFNGauss(BAS[ATNO][ 10]);
  BAS[ATNO][ 10].l  = 2;
  BAS[ATNO][ 10].ng = 2;
  BAS[ATNO][ 10].a[  0] =         2.520000000000;     BAS[ATNO][ 10].d[  0] =        -0.516483259262;
  BAS[ATNO][ 10].a[  1] =         0.570000000000;     BAS[ATNO][ 10].d[  1] =         1.094576065846;

  // Basis function  12 L = f
  InitBFNGauss(BAS[ATNO][ 11]);
  BAS[ATNO][ 11].l  = 3;
  BAS[ATNO][ 11].ng = 1;
  BAS[ATNO][ 11].a[  0] =         0.780000000000;     BAS[ATNO][ 11].d[  0] =         1.000000000000;

-------
TIMINGS
-------

Total SCF time: 0 days 0 hours 0 min 1 sec 

Total time                  ....       1.282 sec
Sum of individual times     ....       1.102 sec  ( 86.0%)

Fock matrix formation       ....       0.645 sec  ( 50.3%)
  XC integration            ....       0.013 sec  (  2.1% of F)
    Basis function eval.    ....       0.003 sec  ( 19.9% of XC)
    Density eval.           ....       0.001 sec  (  6.0% of XC)
    XC-Functional eval.     ....       0.001 sec  (  8.8% of XC)
    XC-Potential eval.      ....       0.001 sec  (  4.6% of XC)
Diagonalization             ....       0.000 sec  (  0.0%)
Density matrix formation    ....       0.000 sec  (  0.0%)
Population analysis         ....       0.001 sec  (  0.0%)
Initial guess               ....       0.082 sec  (  6.4%)
Orbital Transformation      ....       0.000 sec  (  0.0%)
Orbital Orthonormalization  ....       0.000 sec  (  0.0%)
DIIS solution               ....       0.000 sec  (  0.0%)
SOSCF solution              ....       0.000 sec  (  0.0%)
Grid generation             ....       0.374 sec  ( 29.2%)

-------------------------   --------------------
FINAL SINGLE POINT ENERGY      -311.570331753729
-------------------------   --------------------


                            ***************************************
                            *     ORCA property calculations      *
                            ***************************************

                                    ---------------------
                                    Active property flags
                                    ---------------------
   (+) Dipole Moment


------------------------------------------------------------------------------
                       ORCA ELECTRIC PROPERTIES CALCULATION
------------------------------------------------------------------------------

Dipole Moment Calculation                       ... on
Quadrupole Moment Calculation                   ... off
Polarizability Calculation                      ... off
GBWName                                         ... Ar_pc-2_1096.287912_.gbw
Electron density file                           ... Ar_pc-2_1096.287912_.scfp
The origin for moment calculation is the CENTER OF MASS  = ( 0.000000,  0.000000  0.000000)

-------------
DIPOLE MOMENT
-------------
                                X             Y             Z
Electronic contribution:      0.00000      -0.00000       0.00000
Nuclear contribution   :      0.00000       0.00000       0.00000
                        -----------------------------------------
Total Dipole Moment    :      0.00000      -0.00000       0.00000
                        -----------------------------------------
Magnitude (a.u.)       :      0.00000
Magnitude (Debye)      :      0.00000



--------------------
Rotational spectrum 
--------------------
 
Rotational constants in cm-1:     0.000000     0.000000     0.000000 
Rotational constants in MHz :     0.000000     0.000000     0.000000 

 Dipole components along the rotational axes: 
x,y,z [a.u.] :     0.000000    -0.000000     0.000000 
x,y,z [Debye]:     0.000000    -0.000000     0.000000 

 

Timings for individual modules:

Sum of individual times         ...        2.400 sec (=   0.040 min)
GTO integral calculation        ...        0.506 sec (=   0.008 min)  21.1 %
Relativistic integrals          ...        0.354 sec (=   0.006 min)  14.8 %
SCF iterations                  ...        1.540 sec (=   0.026 min)  64.2 %
                             ****ORCA TERMINATED NORMALLY****
TOTAL RUN TIME: 0 days 0 hours 0 minutes 2 seconds 712 msec
