
                                 *****************
                                 * O   R   C   A *
                                 *****************

           --- An Ab Initio, DFT and Semiempirical electronic structure package ---

                  #######################################################
                  #                        -***-                        #
                  #          Department of theory and spectroscopy      #
                  #               Directorship: Frank Neese             #
                  #        Max Planck Institute fuer Kohlenforschung    #
                  #                Kaiser Wilhelm Platz 1               #
                  #                 D-45470 Muelheim/Ruhr               #
                  #                      Germany                        #
                  #                                                     #
                  #                  All rights reserved                #
                  #                        -***-                        #
                  #######################################################


                         Program Version 4.2.1 -  RELEASE  -


 With contributions from (in alphabetic order):
   Daniel Aravena         : Magnetic Suceptibility
   Michael Atanasov       : Ab Initio Ligand Field Theory (pilot matlab implementation)
   Alexander A. Auer      : GIAO ZORA, VPT2
   Ute Becker             : Parallelization
   Giovanni Bistoni       : ED, misc. LED, open-shell LED, HFLD
   Martin Brehm           : Molecular dynamics
   Dmytro Bykov           : SCF Hessian
   Vijay G. Chilkuri      : MRCI spin determinant printing, contributions to CSF-ICE
   Dipayan Datta          : RHF DLPNO-CCSD density
   Achintya Kumar Dutta   : EOM-CC, STEOM-CC
   Dmitry Ganyushin       : Spin-Orbit,Spin-Spin,Magnetic field MRCI
   Miquel Garcia          : C-PCM Hessian, Gaussian charge scheme
   Yang Guo               : DLPNO-NEVPT2, CIM, IAO-localization
   Andreas Hansen         : Spin unrestricted coupled pair/coupled cluster methods
   Benjamin Helmich-Paris : CASSCF linear response (MC-RPA)
   Lee Huntington         : MR-EOM, pCC
   Robert Izsak           : Overlap fitted RIJCOSX, COSX-SCS-MP3, EOM
   Christian Kollmar      : KDIIS, OOCD, Brueckner-CCSD(T), CCSD density
   Simone Kossmann        : Meta GGA functionals, TD-DFT gradient, OOMP2, MP2 Hessian
   Martin Krupicka        : AUTO-CI
   Lucas Lang             : DCDCAS
   Dagmar Lenk            : GEPOL surface, SMD
   Dimitrios Liakos       : Extrapolation schemes; Compound Job, initial MDCI parallelization
   Dimitrios Manganas     : Further ROCIS development; embedding schemes
   Dimitrios Pantazis     : SARC Basis sets
   Taras Petrenko         : DFT Hessian,TD-DFT gradient, ASA, ECA, R-Raman, ABS, FL, XAS/XES, NRVS
   Peter Pinski           : DLPNO-MP2, DLPNO-MP2 Gradient
   Christoph Reimann      : Effective Core Potentials
   Marius Retegan         : Local ZFS, SOC
   Christoph Riplinger    : Optimizer, TS searches, QM/MM, DLPNO-CCSD(T), (RO)-DLPNO pert. Triples
   Tobias Risthaus        : Range-separated hybrids, TD-DFT gradient, RPA, STAB
   Michael Roemelt        : Original ROCIS implementation
   Masaaki Saitow         : Open-shell DLPNO-CCSD energy and density
   Barbara Sandhoefer     : DKH picture change effects
   Avijit Sen             : IP-ROCIS
   Kantharuban Sivalingam : CASSCF convergence, NEVPT2, FIC-MRCI
   Bernardo de Souza      : ESD, SOC TD-DFT
   Georgi Stoychev        : AutoAux, RI-MP2 NMR
   Willem Van den Heuvel  : Paramagnetic NMR
   Boris Wezisla          : Elementary symmetry handling
   Frank Wennmohs         : Technical directorship


 We gratefully acknowledge several colleagues who have allowed us to
 interface, adapt or use parts of their codes:
   Stefan Grimme, W. Hujo, H. Kruse,             : VdW corrections, initial TS optimization,
                  C. Bannwarth                     DFT functionals, gCP, sTDA/sTD-DF
   Ed Valeev, F. Pavosevic, A. Kumar             : LibInt (2-el integral package), F12 methods
   Garnet Chan, S. Sharma, J. Yang, R. Olivares  : DMRG
   Ulf Ekstrom                                   : XCFun DFT Library
   Mihaly Kallay                                 : mrcc  (arbitrary order and MRCC methods)
   Andreas Klamt, Michael Diedenhofen            : otool_cosmo (COSMO solvation model)
   Jiri Pittner, Ondrej Demel                    : Mk-CCSD
   Frank Weinhold                                : gennbo (NPA and NBO analysis)
   Christopher J. Cramer and Donald G. Truhlar   : smd solvation model
   Lars Goerigk                                  : TD-DFT with DH, B97 family of functionals
   V. Asgeirsson, H. Jonsson                     : NEB implementation
   FAccTs GmbH                                   : IRC, NEB, NEB-TS, Multilevel, MM, QM/MM, CI optimization
   S Lehtola, MJT Oliveira, MAL Marques          : LibXC Library


 Your calculation uses the libint2 library for the computation of 2-el integrals
 For citations please refer to: http://libint.valeyev.net

 Your ORCA version has been built with support for libXC version: 4.2.3
 For citations please refer to: https://tddft.org/programs/libxc/

 This ORCA versions uses:
   CBLAS   interface :  Fast vector & matrix operations
   LAPACKE interface :  Fast linear algebra routines
   SCALAPACK package :  Parallel linear algebra routines


----- Orbital basis set information -----
Your calculation utilizes the basis: pc-1
   H, C-F              : F. Jensen, J. Chem. Phys. 115, 9113 (2001).
                         F. Jensen, J. Chem. Phys. 116, 7372 (2002).
                         F. Jensen, J. Chem. Phys. 117, 9234 (2002).
   Si-Cl               : F. Jensen, T. Helgaker, J. Chem. Phys. 121, 3463 (2004).
   He-B, Ne-Mg, Al, Ar : F. Jensen, J. Phys. Chem. A 111, 11198 (2007).
   K, Ca, Ga-Kr        : F. Jensen, J. Chem. Phys. 136, 094110 (2012).
   Sc-Zn               : F. Jensen, J. Chem. Phys. 138, 014107 (2013).

================================================================================
                                        WARNINGS
                       Please study these warnings very carefully!
================================================================================


INFO   : the flag for use of LIBINT has been found!

================================================================================
                                       INPUT FILE
================================================================================
NAME = Ar_pc-1_4385.151648_.inp
|  1> ! LDA pc-1 nori grid5 finalgrid6 verytightscf
|  2> %Pal NProcs 18 End
|  3> 
|  4> % REL
|  5>   Method ZORA
|  6>   ModelPot 1, 0, 0, 0
|  7>   velit 4385.151648
|  8> END
|  9> 
| 10> *xyz 16 1
| 11> Ar 0.0 0.0 0.0
| 12> **                         ****END OF INPUT****
================================================================================

                       ****************************
                       * Single Point Calculation *
                       ****************************

---------------------------------
CARTESIAN COORDINATES (ANGSTROEM)
---------------------------------
  Ar     0.000000    0.000000    0.000000

----------------------------
CARTESIAN COORDINATES (A.U.)
----------------------------
  NO LB      ZA    FRAG     MASS         X           Y           Z
   0 Ar   18.0000    0    39.948    0.000000    0.000000    0.000000

--------------------------------
INTERNAL COORDINATES (ANGSTROEM)
--------------------------------
 Ar     0   0   0     0.000000000000     0.00000000     0.00000000

---------------------------
INTERNAL COORDINATES (A.U.)
---------------------------
 Ar     0   0   0     0.000000000000     0.00000000     0.00000000

---------------------
BASIS SET INFORMATION
---------------------
There are 1 groups of distinct atoms

 Group   1 Type Ar  : 25s13p1d contracted to 4s3p1d pattern {8881/661/1}

Atom   0Ar   basis set group =>   1


           ************************************************************
           *        Program running with 18 parallel MPI-processes    *
           *              working on a common directory               *
           ************************************************************
------------------------------------------------------------------------------
                           ORCA GTO INTEGRAL CALCULATION
------------------------------------------------------------------------------

                         BASIS SET STATISTICS AND STARTUP INFO

 # of primitive gaussian shells          ...   39
 # of primitive gaussian functions       ...   69
 # of contracted shells                  ...    8
 # of contracted basis functions         ...   18
 Highest angular momentum                ...    2
 Maximum contraction depth               ...    8
 Integral package used                   ... LIBINT
 Integral threshhold            Thresh   ...  1.000e-12
 Primitive cut-off              TCut     ...  1.000e-14


------------------------------ INTEGRAL EVALUATION ----------------------------


 * One electron integrals 
 Pre-screening matrix                    ... done
 Shell pair data                         ... done (   0.000 sec)



           ************************************************************
           *        Program running with 18 parallel MPI-processes    *
           *              working on a common directory               *
           ************************************************************
------------------------------------------------------------------------------
                          ORCA RELATIVISTIC HAMILTONIAN
------------------------------------------------------------------------------

Relativistic Method            ... ZORA(MP)
Treatment of potential         ... Van Wuellen
Nucleus model                  ... Point Nucleus
Speed of light used            ... 4385.15164800000002


            *************************************************
            *         ZERO ORDER REGULAR APPROXIMATION      *
            *                     ZORA(MP)                  *
            *            Programmed by FN according to      *
            *                   C. van Wuellen              *
            *       J. Chem. Phys. (1998) vol 109, 392-399  *
            *************************************************

Terms included in model potential: +V(e,N)
Basis function cutoff value   ... 1.000000e-12
Loading the fitted atomic densities  (DKH4)  ... done
Calculating the cutoffs                      ... done
Number of fit functions                      ... 15
Setting up the integration grid ... done


           ************************************************************
           *        Program running with 18 parallel MPI-processes    *
           *              working on a common directory               *
           ************************************************************
-------------------------------------------------------------------------------
                                 ORCA SCF
-------------------------------------------------------------------------------

------------
SCF SETTINGS
------------
Hamiltonian:
 Density Functional     Method          .... DFT(GTOs)
 Exchange Functional    Exchange        .... Slater
   X-Alpha parameter    XAlpha          ....  0.666667
 Correlation Functional Correlation     .... VWN-5
 Gradients option       PostSCFGGA      .... off
   Density functional embedding theory  .... OFF

Relativistic Settings:
 Scalar relativistic method             .... ZORA
 Speed of light used       Velit        ....       4385.15165
Orbital energies will be scaled


General Settings:
 Integral files         IntName         .... Ar_pc-1_4385.151648_
 Hartree-Fock type      HFTyp           .... RHF
 Total Charge           Charge          ....   16
 Multiplicity           Mult            ....    1
 Number of Electrons    NEL             ....    2
 Basis Dimension        Dim             ....   18
 Nuclear Repulsion      ENuc            ....      0.0000000000 Eh

Convergence Acceleration:
 DIIS                   CNVDIIS         .... on
   Start iteration      DIISMaxIt       ....    12
   Startup error        DIISStart       ....  0.200000
   # of expansion vecs  DIISMaxEq       ....     5
   Bias factor          DIISBfac        ....   1.050
   Max. coefficient     DIISMaxC        ....  10.000
 Newton-Raphson         CNVNR           .... off
 SOSCF                  CNVSOSCF        .... on
   Start iteration      SOSCFMaxIt      ....   150
   Startup grad/error   SOSCFStart      ....  0.003300
 Level Shifting         CNVShift        .... on
   Level shift para.    LevelShift      ....    0.2500
   Turn off err/grad.   ShiftErr        ....    0.0010
 Zerner damping         CNVZerner       .... off
 Static damping         CNVDamp         .... on
   Fraction old density DampFac         ....    0.7000
   Max. Damping (<1)    DampMax         ....    0.9800
   Min. Damping (>=0)   DampMin         ....    0.0000
   Turn off err/grad.   DampErr         ....    0.1000
 Fernandez-Rico         CNVRico         .... off

SCF Procedure:
 Maximum # iterations   MaxIter         ....   125
 SCF integral mode      SCFMode         .... Direct
   Integral package                     .... LIBINT
 Reset frequency        DirectResetFreq ....    20
 Integral Threshold     Thresh          ....  1.000e-12 Eh
 Primitive CutOff       TCut            ....  1.000e-14 Eh

Convergence Tolerance:
 Convergence Check Mode ConvCheckMode   .... Total+1el-Energy
 Convergence forced     ConvForced      .... 0
 Energy Change          TolE            ....  1.000e-09 Eh
 1-El. energy change                    ....  1.000e-06 Eh
 Orbital Gradient       TolG            ....  2.000e-06
 Orbital Rotation angle TolX            ....  2.000e-06
 DIIS Error             TolErr          ....  1.000e-08


Diagonalization of the overlap matrix:
Smallest eigenvalue                        ... 1.460e-01
Time for diagonalization                   ...    0.000 sec
Threshold for overlap eigenvalues          ... 1.000e-08
Number of eigenvalues below threshold      ... 0
Time for construction of square roots      ...    0.001 sec
Total time needed                          ...    0.001 sec

-------------------
DFT GRID GENERATION
-------------------

General Integration Accuracy     IntAcc      ...  5.010
Radial Grid Type                 RadialGrid  ... Gauss-Chebyshev
Angular Grid (max. acc.)         AngularGrid ... Lebedev-434
Angular grid pruning method      GridPruning ... 3 (G Style)
Weight generation scheme         WeightScheme... Becke
Basis function cutoff            BFCut       ...    1.0000e-12
Integration weight cutoff        WCut        ...    1.0000e-14
Grids for H and He will be reduced by one unit

# of grid points (after initial pruning)     ...  11992 (   0.0 sec)
# of grid points (after weights+screening)   ...  11992 (   0.0 sec)
Grid point division into batches done        ...    0.1 sec
Reduced shell lists constructed in    0.1 sec

Total number of grid points                  ...    11992
Total number of batches                      ...      188
Average number of points per batch           ...       63
Average number of grid points per atom       ...    11992
Average number of shells per batch           ...     0.00 ( 0.00%)
Average number of basis functions per batch  ...     0.00 ( 0.00%)
Average number of large shells per batch     ...     0.00 ( -nan%)
Average number of large basis fcns per batch ...     0.00 ( -nan%)
Maximum spatial batch extension              ...  18.71, 18.71, 18.71 au
Average spatial batch extension              ...   0.97,  0.98,  0.97 au

Time for grid setup =    0.151 sec

------------------------------
INITIAL GUESS: MODEL POTENTIAL
------------------------------
Loading ZORA relativistic densities                ... done
Calculating cut-offs                               ... done
Setting up the integral package                    ... done
Initializing the effective Hamiltonian             ... done
Starting the Coulomb interaction                   ... done (   0.0 sec)
Reading the grid                                   ... done
Mapping shells                                     ... done
Starting the XC term evaluation                    ... done (   0.0 sec)
  promolecular density results
     # of electrons  =     18.000000116
     EX              =    -28.047870263
     EC              =     -1.433252902
     EX+EC           =    -29.481123164
Transforming the Hamiltonian                       ... done (   0.0 sec)
Diagonalizing the Hamiltonian                      ... done (   0.0 sec)
Back transforming the eigenvectors                 ... done (   0.0 sec)
Now organizing SCF variables                       ... done
                      ------------------
                      INITIAL GUESS DONE (   0.2 sec)
                      ------------------
--------------
SCF ITERATIONS
--------------
ITER       Energy         Delta-E        Max-DP      RMS-DP      [F,P]     Damp
               ***  Starting incremental Fock matrix formation  ***
  0   -311.5031536391   0.000000000000 0.00516636  0.00037524  1.8414964 0.7000
                      *** Initiating the SOSCF procedure ***
                      *** Re-Reading the Fockian *** 
                      *** Removing any level shift *** 
ITER      Energy       Delta-E        Grad      Rot      Max-DP    RMS-DP
  1   -311.50867888  -0.0055252435  0.000320  0.000320  0.012061  0.000876
               *** Restarting incremental Fock matrix formation ***
  2   -311.52148835  -0.0128094639  0.004300  0.000038  0.000074  0.000006
  3   -311.52148870  -0.0000003560  0.000026  0.000000  0.000000  0.000000
                 **** Energy Check signals convergence ****
              ***Rediagonalizing the Fockian in SOSCF/NRSCF***

               *****************************************************
               *                     SUCCESS                       *
               *           SCF CONVERGED AFTER   4 CYCLES          *
               *****************************************************

Setting up the final grid:

General Integration Accuracy     IntAcc      ...  5.340
Radial Grid Type                 RadialGrid  ... Gauss-Chebyshev
Angular Grid (max. acc.)         AngularGrid ... Lebedev-590
Angular grid pruning method      GridPruning ... 3 (G Style)
Weight generation scheme         WeightScheme... Becke
Basis function cutoff            BFCut       ...    1.0000e-12
Integration weight cutoff        WCut        ...    1.0000e-14
Grids for H and He will be reduced by one unit

# of grid points (after initial pruning)     ...  18110 (   0.0 sec)
# of grid points (after weights+screening)   ...  18110 (   0.0 sec)
Grid point division into batches done        ...    0.2 sec
Reduced shell lists constructed in    0.2 sec

Total number of grid points                  ...    18110
Total number of batches                      ...      283
Average number of points per batch           ...       63
Average number of grid points per atom       ...    18110
Average number of shells per batch           ...     0.00 ( 0.00%)
Average number of basis functions per batch  ...     0.00 ( 0.00%)
Average number of large shells per batch     ...     0.00 ( -nan%)
Average number of large basis fcns per batch ...     0.00 ( -nan%)
Maximum spatial batch extension              ...  19.03, 19.03, 19.03 au
Average spatial batch extension              ...   0.84,  0.84,  0.80 au

Final grid set up in    0.2 sec
Final integration                            ... done (   0.0 sec)
Change in XC energy                          ...    -0.000005651
Integrated number of electrons               ...     1.999999657
Previous integrated no of electrons          ...     1.999998646

----------------
TOTAL SCF ENERGY
----------------

Total Energy       :         -311.52149435 Eh           -8476.93082 eV

Components:
Nuclear Repulsion  :            0.00000000 Eh               0.00000 eV
Electronic Energy  :         -311.52149435 Eh           -8476.93082 eV
One Electron Energy:         -323.78801643 Eh           -8810.71986 eV
Two Electron Energy:           12.26652207 Eh             333.78904 eV

Virial components:
Potential Energy   :         -621.10151225 Eh          -16901.03138 eV
Kinetic Energy     :          309.58001790 Eh            8424.10056 eV
Virial Ratio       :            2.00627132


DFT components:
N(Alpha)           :        0.999999828535 electrons
N(Beta)            :        0.999999828535 electrons
N(Total)           :        1.999999657071 electrons
E(X)               :       -9.398756473921 Eh       
E(C)               :       -0.236660871716 Eh       
E(XC)              :       -9.635417345637 Eh       
DFET-embed. en.    :        0.000000000000 Eh       

---------------
SCF CONVERGENCE
---------------

  Last Energy change         ...   -1.3017e-11  Tolerance :   1.0000e-09
  Last MAX-Density change    ...    0.0000e+00  Tolerance :   1.0000e-08
  Last RMS-Density change    ...    0.0000e+00  Tolerance :   1.0000e-09
  Last Orbital Gradient      ...    4.4985e-11  Tolerance :   2.0000e-06
  Last Orbital Rotation      ...    0.0000e+00  Tolerance :   2.0000e-06

================================================================================
                                        WARNING
Number of found core electrons (2) does not match given number of chemical core electrons (10)
================================================================================
             **** THE GBW FILE WAS UPDATED (Ar_pc-1_4385.151648_.gbw) ****
             **** DENSITY FILE WAS UPDATED (Ar_pc-1_4385.151648_.scfp) ****
             **** ENERGY FILE WAS UPDATED (Ar_pc-1_4385.151648_.en.tmp) ****
             **** THE GBW FILE WAS UPDATED (Ar_pc-1_4385.151648_.gbw) ****
             **** DENSITY FILE WAS UPDATED (Ar_pc-1_4385.151648_.scfp) ****
----------------
ORBITAL ENERGIES
----------------

  NO   OCC          E(Eh)            E(eV) 
   0   2.0000    -146.385781     -3983.3596 
   1   0.0000     -33.596525      -914.2079 
   2   0.0000     -32.452897      -883.0882 
   3   0.0000     -32.452897      -883.0882 
   4   0.0000     -32.452897      -883.0882 
   5   0.0000     -13.199983      -359.1898 
   6   0.0000     -11.918142      -324.3091 
   7   0.0000     -11.918142      -324.3091 
   8   0.0000     -11.918142      -324.3091 
   9   0.0000      -8.712455      -237.0779 
  10   0.0000      -8.712455      -237.0779 
  11   0.0000      -8.712455      -237.0779 
  12   0.0000      -8.712455      -237.0779 
  13   0.0000      -8.712455      -237.0779 
  14   0.0000      -6.495493      -176.7514 
  15   0.0000      -5.399386      -146.9248 
  16   0.0000      -5.399386      -146.9248 
  17   0.0000      -5.399386      -146.9248 

                    ********************************
                    * MULLIKEN POPULATION ANALYSIS *
                    ********************************

-----------------------
MULLIKEN ATOMIC CHARGES
-----------------------
   0 Ar:   16.000000
Sum of atomic charges:   16.0000000

--------------------------------
MULLIKEN REDUCED ORBITAL CHARGES
--------------------------------
  0 Ars       :     2.000000  s :     2.000000
      pz      :     0.000000  p :     0.000000
      px      :     0.000000
      py      :     0.000000
      dz2     :     0.000000  d :     0.000000
      dxz     :     0.000000
      dyz     :     0.000000
      dx2y2   :     0.000000
      dxy     :     0.000000


                     *******************************
                     * LOEWDIN POPULATION ANALYSIS *
                     *******************************

----------------------
LOEWDIN ATOMIC CHARGES
----------------------
   0 Ar:   16.000000

-------------------------------
LOEWDIN REDUCED ORBITAL CHARGES
-------------------------------
  0 Ars       :     2.000000  s :     2.000000
      pz      :     0.000000  p :     0.000000
      px      :     0.000000
      py      :     0.000000
      dz2     :     0.000000  d :     0.000000
      dxz     :     0.000000
      dyz     :     0.000000
      dx2y2   :     0.000000
      dxy     :     0.000000


                      *****************************
                      * MAYER POPULATION ANALYSIS *
                      *****************************

  NA   - Mulliken gross atomic population
  ZA   - Total nuclear charge
  QA   - Mulliken gross atomic charge
  VA   - Mayer's total valence
  BVA  - Mayer's bonded valence
  FA   - Mayer's free valence

  ATOM       NA         ZA         QA         VA         BVA        FA
  0 Ar     2.0000    18.0000    16.0000    -0.0000     0.0000    -0.0000

  Mayer bond orders larger than 0.100000


--------------------------
ATOM BASIS FOR ELEMENT Ar
--------------------------
 NewGTO Ar
 S 25
    1      71956.000000000000         0.000574179992
    2      10793.000000000000         0.004432590159
    3       2457.000000000000         0.022768342540
    4        695.720000000000         0.088034383780
    5        226.400000000000         0.251197482272
    6         81.138000000000         0.439550490286
    7         30.612000000000         0.322160620668
    8          7.829100000000         0.035780255854
    9      10793.000000000000         0.000000338761
   10       2457.000000000000         0.000000850778
   11        695.720000000000         0.000030857624
   12        226.400000000000         0.000173989498
   13         81.138000000000         0.001180884649
   14         30.612000000000         0.001612616528
   15          7.829100000000        -0.008680094163
   16          2.998700000000        -0.011580154041
   17       2457.000000000000         0.000000100277
   18        695.720000000000         0.000001206623
   19        226.400000000000         0.000012357503
   20         81.138000000000         0.000067891666
   21         30.612000000000         0.000146294293
   22          7.829100000000        -0.001150799263
   23          2.998700000000        -0.002823039380
   24          0.672420000000         0.006859365429
   25          0.237190000000        -0.002812265506
 S 25
    1      71956.000000000000         0.000166701416
    2      10793.000000000000         0.001286911885
    3       2457.000000000000         0.006610322535
    4        695.720000000000         0.025558982607
    5        226.400000000000         0.072930050790
    6         81.138000000000         0.127614493948
    7         30.612000000000         0.093532746488
    8          7.829100000000         0.010388065410
    9      10793.000000000000         0.000019038730
   10       2457.000000000000         0.000047814668
   11        695.720000000000         0.001734232291
   12        226.400000000000         0.009778400549
   13         81.138000000000         0.066367012149
   14         30.612000000000         0.090630817140
   15          7.829100000000        -0.487830809939
   16          2.998700000000        -0.650817355053
   17       2457.000000000000         0.000002714809
   18        695.720000000000         0.000032666884
   19        226.400000000000         0.000334554463
   20         81.138000000000         0.001838029919
   21         30.612000000000         0.003960622882
   22          7.829100000000        -0.031155568715
   23          2.998700000000        -0.076428096749
   24          0.672420000000         0.185703482704
   25          0.237190000000        -0.073331519286
 S 25
    1      71956.000000000000         0.000062569425
    2      10793.000000000000         0.000483027311
    3       2457.000000000000         0.002481107182
    4        695.720000000000         0.009593264923
    5        226.400000000000         0.027373440830
    6         81.138000000000         0.047898606423
    7         30.612000000000         0.035106421481
    8          7.829100000000         0.003899038747
    9      10793.000000000000        -0.000001668189
   10       2457.000000000000        -0.000004189559
   11        695.720000000000        -0.000151954801
   12        226.400000000000        -0.000856791165
   13         81.138000000000        -0.005815129927
   14         30.612000000000        -0.007941143649
   15          7.829100000000         0.042744120163
   16          2.998700000000         0.057025129741
   17       2457.000000000000         0.000024062677
   18        695.720000000000         0.000289542575
   19        226.400000000000         0.002965319849
   20         81.138000000000         0.016291358234
   21         30.612000000000         0.035104937923
   22          7.829100000000        -0.276147045124
   23          2.998700000000        -0.677419605942
   24          0.672420000000         1.645980803215
   25          0.237190000000        -0.381252426533
 S 25
    1      71956.000000000000        -0.000038577770
    2      10793.000000000000        -0.000297815053
    3       2457.000000000000        -0.001529750077
    4        695.720000000000        -0.005914818134
    5        226.400000000000        -0.016877353593
    6         81.138000000000        -0.029532338379
    7         30.612000000000        -0.021645195882
    8          7.829100000000        -0.002403989181
    9      10793.000000000000         0.000009637701
   10       2457.000000000000         0.000024204529
   11        695.720000000000         0.000877895389
   12        226.400000000000         0.004949978614
   13         81.138000000000         0.033596014930
   14         30.612000000000         0.045878730820
   15          7.829100000000        -0.246947551852
   16          2.998700000000        -0.329453878801
   17       2457.000000000000        -0.000024590351
   18        695.720000000000        -0.000295892006
   19        226.400000000000        -0.003030346878
   20         81.138000000000        -0.016648614340
   21         30.612000000000        -0.035874760379
   22          7.829100000000         0.282202723019
   23          2.998700000000         0.692274861522
   24          0.672420000000        -1.682075810352
   25          0.237190000000         1.899532742602
 P 13
    1        446.270000000000         0.006189923381
    2        104.940000000000         0.047221341676
    3         32.931000000000         0.191310082581
    4         11.809000000000         0.431474009509
    5          4.430400000000         0.463935938429
    6          1.575100000000         0.131195941318
    7        104.940000000000         0.000028327795
    8         32.931000000000         0.000589675298
    9         11.809000000000         0.003008177697
   10          4.430400000000         0.003032209958
   11          1.575100000000        -0.048604781693
   12          0.564120000000        -0.135921995873
   13          0.170150000000         0.058157449815
 P 13
    1        446.270000000000         0.001651985171
    2        104.940000000000         0.012602572182
    3         32.931000000000         0.051057404116
    4         11.809000000000         0.115153067585
    5          4.430400000000         0.123816603771
    6          1.575100000000         0.035013963216
    7        104.940000000000         0.000198539616
    8         32.931000000000         0.004132828165
    9         11.809000000000         0.021083266595
   10          4.430400000000         0.021251700316
   11          1.575100000000        -0.340653935175
   12          0.564120000000        -0.952629785757
   13          0.170150000000         0.270219205322
 P 13
    1        446.270000000000         0.000449802096
    2        104.940000000000         0.003431425101
    3         32.931000000000         0.013901896815
    4         11.809000000000         0.031353847520
    5          4.430400000000         0.033712752917
    6          1.575100000000         0.009533592867
    7        104.940000000000         0.000090289544
    8         32.931000000000         0.001879479656
    9         11.809000000000         0.009588003436
   10          4.430400000000         0.009664601769
   11          1.575100000000        -0.154918645365
   12          0.564120000000        -0.433225924332
   13          0.170150000000         1.224618824610
 D 1
    1          0.650000000000         1.000000000000
 end
  // -----------------------------------------------
  // The basis set
  // -----------------------------------------------
  BAS[ATNO] = new BFNGauss[NSH];
  // Basis function   1 L = s
  InitBFNGauss(BAS[ATNO][  0]);
  BAS[ATNO][  0].l  = 0;
  BAS[ATNO][  0].ng = 25;
  BAS[ATNO][  0].a[  0] =     71956.000000000000;     BAS[ATNO][  0].d[  0] =         0.000574179992;
  BAS[ATNO][  0].a[  1] =     10793.000000000000;     BAS[ATNO][  0].d[  1] =         0.004432590159;
  BAS[ATNO][  0].a[  2] =      2457.000000000000;     BAS[ATNO][  0].d[  2] =         0.022768342540;
  BAS[ATNO][  0].a[  3] =       695.720000000000;     BAS[ATNO][  0].d[  3] =         0.088034383780;
  BAS[ATNO][  0].a[  4] =       226.400000000000;     BAS[ATNO][  0].d[  4] =         0.251197482272;
  BAS[ATNO][  0].a[  5] =        81.138000000000;     BAS[ATNO][  0].d[  5] =         0.439550490286;
  BAS[ATNO][  0].a[  6] =        30.612000000000;     BAS[ATNO][  0].d[  6] =         0.322160620668;
  BAS[ATNO][  0].a[  7] =         7.829100000000;     BAS[ATNO][  0].d[  7] =         0.035780255854;
  BAS[ATNO][  0].a[  8] =     10793.000000000000;     BAS[ATNO][  0].d[  8] =         0.000000338761;
  BAS[ATNO][  0].a[  9] =      2457.000000000000;     BAS[ATNO][  0].d[  9] =         0.000000850778;
  BAS[ATNO][  0].a[ 10] =       695.720000000000;     BAS[ATNO][  0].d[ 10] =         0.000030857624;
  BAS[ATNO][  0].a[ 11] =       226.400000000000;     BAS[ATNO][  0].d[ 11] =         0.000173989498;
  BAS[ATNO][  0].a[ 12] =        81.138000000000;     BAS[ATNO][  0].d[ 12] =         0.001180884649;
  BAS[ATNO][  0].a[ 13] =        30.612000000000;     BAS[ATNO][  0].d[ 13] =         0.001612616528;
  BAS[ATNO][  0].a[ 14] =         7.829100000000;     BAS[ATNO][  0].d[ 14] =        -0.008680094163;
  BAS[ATNO][  0].a[ 15] =         2.998700000000;     BAS[ATNO][  0].d[ 15] =        -0.011580154041;
  BAS[ATNO][  0].a[ 16] =      2457.000000000000;     BAS[ATNO][  0].d[ 16] =         0.000000100277;
  BAS[ATNO][  0].a[ 17] =       695.720000000000;     BAS[ATNO][  0].d[ 17] =         0.000001206623;
  BAS[ATNO][  0].a[ 18] =       226.400000000000;     BAS[ATNO][  0].d[ 18] =         0.000012357503;
  BAS[ATNO][  0].a[ 19] =        81.138000000000;     BAS[ATNO][  0].d[ 19] =         0.000067891666;
  BAS[ATNO][  0].a[ 20] =        30.612000000000;     BAS[ATNO][  0].d[ 20] =         0.000146294293;
  BAS[ATNO][  0].a[ 21] =         7.829100000000;     BAS[ATNO][  0].d[ 21] =        -0.001150799263;
  BAS[ATNO][  0].a[ 22] =         2.998700000000;     BAS[ATNO][  0].d[ 22] =        -0.002823039380;
  BAS[ATNO][  0].a[ 23] =         0.672420000000;     BAS[ATNO][  0].d[ 23] =         0.006859365429;
  BAS[ATNO][  0].a[ 24] =         0.237190000000;     BAS[ATNO][  0].d[ 24] =        -0.002812265506;

  // Basis function   2 L = s
  InitBFNGauss(BAS[ATNO][  1]);
  BAS[ATNO][  1].l  = 0;
  BAS[ATNO][  1].ng = 25;
  BAS[ATNO][  1].a[  0] =     71956.000000000000;     BAS[ATNO][  1].d[  0] =        -0.000166701416;
  BAS[ATNO][  1].a[  1] =     10793.000000000000;     BAS[ATNO][  1].d[  1] =        -0.001286911885;
  BAS[ATNO][  1].a[  2] =      2457.000000000000;     BAS[ATNO][  1].d[  2] =        -0.006610322535;
  BAS[ATNO][  1].a[  3] =       695.720000000000;     BAS[ATNO][  1].d[  3] =        -0.025558982607;
  BAS[ATNO][  1].a[  4] =       226.400000000000;     BAS[ATNO][  1].d[  4] =        -0.072930050790;
  BAS[ATNO][  1].a[  5] =        81.138000000000;     BAS[ATNO][  1].d[  5] =        -0.127614493948;
  BAS[ATNO][  1].a[  6] =        30.612000000000;     BAS[ATNO][  1].d[  6] =        -0.093532746488;
  BAS[ATNO][  1].a[  7] =         7.829100000000;     BAS[ATNO][  1].d[  7] =        -0.010388065410;
  BAS[ATNO][  1].a[  8] =     10793.000000000000;     BAS[ATNO][  1].d[  8] =        -0.000019038730;
  BAS[ATNO][  1].a[  9] =      2457.000000000000;     BAS[ATNO][  1].d[  9] =        -0.000047814668;
  BAS[ATNO][  1].a[ 10] =       695.720000000000;     BAS[ATNO][  1].d[ 10] =        -0.001734232291;
  BAS[ATNO][  1].a[ 11] =       226.400000000000;     BAS[ATNO][  1].d[ 11] =        -0.009778400549;
  BAS[ATNO][  1].a[ 12] =        81.138000000000;     BAS[ATNO][  1].d[ 12] =        -0.066367012149;
  BAS[ATNO][  1].a[ 13] =        30.612000000000;     BAS[ATNO][  1].d[ 13] =        -0.090630817140;
  BAS[ATNO][  1].a[ 14] =         7.829100000000;     BAS[ATNO][  1].d[ 14] =         0.487830809939;
  BAS[ATNO][  1].a[ 15] =         2.998700000000;     BAS[ATNO][  1].d[ 15] =         0.650817355053;
  BAS[ATNO][  1].a[ 16] =      2457.000000000000;     BAS[ATNO][  1].d[ 16] =        -0.000002714809;
  BAS[ATNO][  1].a[ 17] =       695.720000000000;     BAS[ATNO][  1].d[ 17] =        -0.000032666884;
  BAS[ATNO][  1].a[ 18] =       226.400000000000;     BAS[ATNO][  1].d[ 18] =        -0.000334554463;
  BAS[ATNO][  1].a[ 19] =        81.138000000000;     BAS[ATNO][  1].d[ 19] =        -0.001838029919;
  BAS[ATNO][  1].a[ 20] =        30.612000000000;     BAS[ATNO][  1].d[ 20] =        -0.003960622882;
  BAS[ATNO][  1].a[ 21] =         7.829100000000;     BAS[ATNO][  1].d[ 21] =         0.031155568715;
  BAS[ATNO][  1].a[ 22] =         2.998700000000;     BAS[ATNO][  1].d[ 22] =         0.076428096749;
  BAS[ATNO][  1].a[ 23] =         0.672420000000;     BAS[ATNO][  1].d[ 23] =        -0.185703482704;
  BAS[ATNO][  1].a[ 24] =         0.237190000000;     BAS[ATNO][  1].d[ 24] =         0.073331519286;

  // Basis function   3 L = s
  InitBFNGauss(BAS[ATNO][  2]);
  BAS[ATNO][  2].l  = 0;
  BAS[ATNO][  2].ng = 25;
  BAS[ATNO][  2].a[  0] =     71956.000000000000;     BAS[ATNO][  2].d[  0] =         0.000062569425;
  BAS[ATNO][  2].a[  1] =     10793.000000000000;     BAS[ATNO][  2].d[  1] =         0.000483027311;
  BAS[ATNO][  2].a[  2] =      2457.000000000000;     BAS[ATNO][  2].d[  2] =         0.002481107182;
  BAS[ATNO][  2].a[  3] =       695.720000000000;     BAS[ATNO][  2].d[  3] =         0.009593264923;
  BAS[ATNO][  2].a[  4] =       226.400000000000;     BAS[ATNO][  2].d[  4] =         0.027373440830;
  BAS[ATNO][  2].a[  5] =        81.138000000000;     BAS[ATNO][  2].d[  5] =         0.047898606423;
  BAS[ATNO][  2].a[  6] =        30.612000000000;     BAS[ATNO][  2].d[  6] =         0.035106421481;
  BAS[ATNO][  2].a[  7] =         7.829100000000;     BAS[ATNO][  2].d[  7] =         0.003899038747;
  BAS[ATNO][  2].a[  8] =     10793.000000000000;     BAS[ATNO][  2].d[  8] =        -0.000001668189;
  BAS[ATNO][  2].a[  9] =      2457.000000000000;     BAS[ATNO][  2].d[  9] =        -0.000004189559;
  BAS[ATNO][  2].a[ 10] =       695.720000000000;     BAS[ATNO][  2].d[ 10] =        -0.000151954801;
  BAS[ATNO][  2].a[ 11] =       226.400000000000;     BAS[ATNO][  2].d[ 11] =        -0.000856791165;
  BAS[ATNO][  2].a[ 12] =        81.138000000000;     BAS[ATNO][  2].d[ 12] =        -0.005815129927;
  BAS[ATNO][  2].a[ 13] =        30.612000000000;     BAS[ATNO][  2].d[ 13] =        -0.007941143649;
  BAS[ATNO][  2].a[ 14] =         7.829100000000;     BAS[ATNO][  2].d[ 14] =         0.042744120163;
  BAS[ATNO][  2].a[ 15] =         2.998700000000;     BAS[ATNO][  2].d[ 15] =         0.057025129741;
  BAS[ATNO][  2].a[ 16] =      2457.000000000000;     BAS[ATNO][  2].d[ 16] =         0.000024062677;
  BAS[ATNO][  2].a[ 17] =       695.720000000000;     BAS[ATNO][  2].d[ 17] =         0.000289542575;
  BAS[ATNO][  2].a[ 18] =       226.400000000000;     BAS[ATNO][  2].d[ 18] =         0.002965319849;
  BAS[ATNO][  2].a[ 19] =        81.138000000000;     BAS[ATNO][  2].d[ 19] =         0.016291358234;
  BAS[ATNO][  2].a[ 20] =        30.612000000000;     BAS[ATNO][  2].d[ 20] =         0.035104937923;
  BAS[ATNO][  2].a[ 21] =         7.829100000000;     BAS[ATNO][  2].d[ 21] =        -0.276147045124;
  BAS[ATNO][  2].a[ 22] =         2.998700000000;     BAS[ATNO][  2].d[ 22] =        -0.677419605942;
  BAS[ATNO][  2].a[ 23] =         0.672420000000;     BAS[ATNO][  2].d[ 23] =         1.645980803215;
  BAS[ATNO][  2].a[ 24] =         0.237190000000;     BAS[ATNO][  2].d[ 24] =        -0.381252426533;

  // Basis function   4 L = s
  InitBFNGauss(BAS[ATNO][  3]);
  BAS[ATNO][  3].l  = 0;
  BAS[ATNO][  3].ng = 25;
  BAS[ATNO][  3].a[  0] =     71956.000000000000;     BAS[ATNO][  3].d[  0] =        -0.000038577770;
  BAS[ATNO][  3].a[  1] =     10793.000000000000;     BAS[ATNO][  3].d[  1] =        -0.000297815053;
  BAS[ATNO][  3].a[  2] =      2457.000000000000;     BAS[ATNO][  3].d[  2] =        -0.001529750077;
  BAS[ATNO][  3].a[  3] =       695.720000000000;     BAS[ATNO][  3].d[  3] =        -0.005914818134;
  BAS[ATNO][  3].a[  4] =       226.400000000000;     BAS[ATNO][  3].d[  4] =        -0.016877353593;
  BAS[ATNO][  3].a[  5] =        81.138000000000;     BAS[ATNO][  3].d[  5] =        -0.029532338379;
  BAS[ATNO][  3].a[  6] =        30.612000000000;     BAS[ATNO][  3].d[  6] =        -0.021645195882;
  BAS[ATNO][  3].a[  7] =         7.829100000000;     BAS[ATNO][  3].d[  7] =        -0.002403989181;
  BAS[ATNO][  3].a[  8] =     10793.000000000000;     BAS[ATNO][  3].d[  8] =         0.000009637701;
  BAS[ATNO][  3].a[  9] =      2457.000000000000;     BAS[ATNO][  3].d[  9] =         0.000024204529;
  BAS[ATNO][  3].a[ 10] =       695.720000000000;     BAS[ATNO][  3].d[ 10] =         0.000877895389;
  BAS[ATNO][  3].a[ 11] =       226.400000000000;     BAS[ATNO][  3].d[ 11] =         0.004949978614;
  BAS[ATNO][  3].a[ 12] =        81.138000000000;     BAS[ATNO][  3].d[ 12] =         0.033596014930;
  BAS[ATNO][  3].a[ 13] =        30.612000000000;     BAS[ATNO][  3].d[ 13] =         0.045878730820;
  BAS[ATNO][  3].a[ 14] =         7.829100000000;     BAS[ATNO][  3].d[ 14] =        -0.246947551852;
  BAS[ATNO][  3].a[ 15] =         2.998700000000;     BAS[ATNO][  3].d[ 15] =        -0.329453878801;
  BAS[ATNO][  3].a[ 16] =      2457.000000000000;     BAS[ATNO][  3].d[ 16] =        -0.000024590351;
  BAS[ATNO][  3].a[ 17] =       695.720000000000;     BAS[ATNO][  3].d[ 17] =        -0.000295892006;
  BAS[ATNO][  3].a[ 18] =       226.400000000000;     BAS[ATNO][  3].d[ 18] =        -0.003030346878;
  BAS[ATNO][  3].a[ 19] =        81.138000000000;     BAS[ATNO][  3].d[ 19] =        -0.016648614340;
  BAS[ATNO][  3].a[ 20] =        30.612000000000;     BAS[ATNO][  3].d[ 20] =        -0.035874760379;
  BAS[ATNO][  3].a[ 21] =         7.829100000000;     BAS[ATNO][  3].d[ 21] =         0.282202723019;
  BAS[ATNO][  3].a[ 22] =         2.998700000000;     BAS[ATNO][  3].d[ 22] =         0.692274861522;
  BAS[ATNO][  3].a[ 23] =         0.672420000000;     BAS[ATNO][  3].d[ 23] =        -1.682075810352;
  BAS[ATNO][  3].a[ 24] =         0.237190000000;     BAS[ATNO][  3].d[ 24] =         1.899532742602;

  // Basis function   5 L = p
  InitBFNGauss(BAS[ATNO][  4]);
  BAS[ATNO][  4].l  = 1;
  BAS[ATNO][  4].ng = 13;
  BAS[ATNO][  4].a[  0] =       446.270000000000;     BAS[ATNO][  4].d[  0] =         0.006189923381;
  BAS[ATNO][  4].a[  1] =       104.940000000000;     BAS[ATNO][  4].d[  1] =         0.047221341676;
  BAS[ATNO][  4].a[  2] =        32.931000000000;     BAS[ATNO][  4].d[  2] =         0.191310082581;
  BAS[ATNO][  4].a[  3] =        11.809000000000;     BAS[ATNO][  4].d[  3] =         0.431474009509;
  BAS[ATNO][  4].a[  4] =         4.430400000000;     BAS[ATNO][  4].d[  4] =         0.463935938429;
  BAS[ATNO][  4].a[  5] =         1.575100000000;     BAS[ATNO][  4].d[  5] =         0.131195941318;
  BAS[ATNO][  4].a[  6] =       104.940000000000;     BAS[ATNO][  4].d[  6] =         0.000028327795;
  BAS[ATNO][  4].a[  7] =        32.931000000000;     BAS[ATNO][  4].d[  7] =         0.000589675298;
  BAS[ATNO][  4].a[  8] =        11.809000000000;     BAS[ATNO][  4].d[  8] =         0.003008177697;
  BAS[ATNO][  4].a[  9] =         4.430400000000;     BAS[ATNO][  4].d[  9] =         0.003032209958;
  BAS[ATNO][  4].a[ 10] =         1.575100000000;     BAS[ATNO][  4].d[ 10] =        -0.048604781693;
  BAS[ATNO][  4].a[ 11] =         0.564120000000;     BAS[ATNO][  4].d[ 11] =        -0.135921995873;
  BAS[ATNO][  4].a[ 12] =         0.170150000000;     BAS[ATNO][  4].d[ 12] =         0.058157449815;

  // Basis function   6 L = p
  InitBFNGauss(BAS[ATNO][  5]);
  BAS[ATNO][  5].l  = 1;
  BAS[ATNO][  5].ng = 13;
  BAS[ATNO][  5].a[  0] =       446.270000000000;     BAS[ATNO][  5].d[  0] =        -0.001651985171;
  BAS[ATNO][  5].a[  1] =       104.940000000000;     BAS[ATNO][  5].d[  1] =        -0.012602572182;
  BAS[ATNO][  5].a[  2] =        32.931000000000;     BAS[ATNO][  5].d[  2] =        -0.051057404116;
  BAS[ATNO][  5].a[  3] =        11.809000000000;     BAS[ATNO][  5].d[  3] =        -0.115153067585;
  BAS[ATNO][  5].a[  4] =         4.430400000000;     BAS[ATNO][  5].d[  4] =        -0.123816603771;
  BAS[ATNO][  5].a[  5] =         1.575100000000;     BAS[ATNO][  5].d[  5] =        -0.035013963216;
  BAS[ATNO][  5].a[  6] =       104.940000000000;     BAS[ATNO][  5].d[  6] =        -0.000198539616;
  BAS[ATNO][  5].a[  7] =        32.931000000000;     BAS[ATNO][  5].d[  7] =        -0.004132828165;
  BAS[ATNO][  5].a[  8] =        11.809000000000;     BAS[ATNO][  5].d[  8] =        -0.021083266595;
  BAS[ATNO][  5].a[  9] =         4.430400000000;     BAS[ATNO][  5].d[  9] =        -0.021251700316;
  BAS[ATNO][  5].a[ 10] =         1.575100000000;     BAS[ATNO][  5].d[ 10] =         0.340653935175;
  BAS[ATNO][  5].a[ 11] =         0.564120000000;     BAS[ATNO][  5].d[ 11] =         0.952629785757;
  BAS[ATNO][  5].a[ 12] =         0.170150000000;     BAS[ATNO][  5].d[ 12] =        -0.270219205322;

  // Basis function   7 L = p
  InitBFNGauss(BAS[ATNO][  6]);
  BAS[ATNO][  6].l  = 1;
  BAS[ATNO][  6].ng = 13;
  BAS[ATNO][  6].a[  0] =       446.270000000000;     BAS[ATNO][  6].d[  0] =         0.000449802096;
  BAS[ATNO][  6].a[  1] =       104.940000000000;     BAS[ATNO][  6].d[  1] =         0.003431425101;
  BAS[ATNO][  6].a[  2] =        32.931000000000;     BAS[ATNO][  6].d[  2] =         0.013901896815;
  BAS[ATNO][  6].a[  3] =        11.809000000000;     BAS[ATNO][  6].d[  3] =         0.031353847520;
  BAS[ATNO][  6].a[  4] =         4.430400000000;     BAS[ATNO][  6].d[  4] =         0.033712752917;
  BAS[ATNO][  6].a[  5] =         1.575100000000;     BAS[ATNO][  6].d[  5] =         0.009533592867;
  BAS[ATNO][  6].a[  6] =       104.940000000000;     BAS[ATNO][  6].d[  6] =         0.000090289544;
  BAS[ATNO][  6].a[  7] =        32.931000000000;     BAS[ATNO][  6].d[  7] =         0.001879479656;
  BAS[ATNO][  6].a[  8] =        11.809000000000;     BAS[ATNO][  6].d[  8] =         0.009588003436;
  BAS[ATNO][  6].a[  9] =         4.430400000000;     BAS[ATNO][  6].d[  9] =         0.009664601769;
  BAS[ATNO][  6].a[ 10] =         1.575100000000;     BAS[ATNO][  6].d[ 10] =        -0.154918645365;
  BAS[ATNO][  6].a[ 11] =         0.564120000000;     BAS[ATNO][  6].d[ 11] =        -0.433225924332;
  BAS[ATNO][  6].a[ 12] =         0.170150000000;     BAS[ATNO][  6].d[ 12] =         1.224618824610;

  // Basis function   8 L = d
  InitBFNGauss(BAS[ATNO][  7]);
  BAS[ATNO][  7].l  = 2;
  BAS[ATNO][  7].ng = 1;
  BAS[ATNO][  7].a[  0] =         0.650000000000;     BAS[ATNO][  7].d[  0] =         1.000000000000;

-------
TIMINGS
-------

Total SCF time: 0 days 0 hours 0 min 1 sec 

Total time                  ....       1.201 sec
Sum of individual times     ....       1.034 sec  ( 86.1%)

Fock matrix formation       ....       0.590 sec  ( 49.1%)
  XC integration            ....       0.015 sec  (  2.6% of F)
    Basis function eval.    ....       0.002 sec  ( 14.4% of XC)
    Density eval.           ....       0.001 sec  (  3.7% of XC)
    XC-Functional eval.     ....       0.001 sec  (  7.7% of XC)
    XC-Potential eval.      ....       0.000 sec  (  1.6% of XC)
Diagonalization             ....       0.000 sec  (  0.0%)
Density matrix formation    ....       0.000 sec  (  0.0%)
Population analysis         ....       0.000 sec  (  0.0%)
Initial guess               ....       0.070 sec  (  5.8%)
Orbital Transformation      ....       0.000 sec  (  0.0%)
Orbital Orthonormalization  ....       0.000 sec  (  0.0%)
DIIS solution               ....       0.000 sec  (  0.0%)
SOSCF solution              ....       0.000 sec  (  0.0%)
Grid generation             ....       0.374 sec  ( 31.1%)

-------------------------   --------------------
FINAL SINGLE POINT ENERGY      -311.521494353308
-------------------------   --------------------


                            ***************************************
                            *     ORCA property calculations      *
                            ***************************************

                                    ---------------------
                                    Active property flags
                                    ---------------------
   (+) Dipole Moment


------------------------------------------------------------------------------
                       ORCA ELECTRIC PROPERTIES CALCULATION
------------------------------------------------------------------------------

Dipole Moment Calculation                       ... on
Quadrupole Moment Calculation                   ... off
Polarizability Calculation                      ... off
GBWName                                         ... Ar_pc-1_4385.151648_.gbw
Electron density file                           ... Ar_pc-1_4385.151648_.scfp
The origin for moment calculation is the CENTER OF MASS  = ( 0.000000,  0.000000  0.000000)

-------------
DIPOLE MOMENT
-------------
                                X             Y             Z
Electronic contribution:     -0.00000       0.00000      -0.00000
Nuclear contribution   :      0.00000       0.00000       0.00000
                        -----------------------------------------
Total Dipole Moment    :     -0.00000       0.00000      -0.00000
                        -----------------------------------------
Magnitude (a.u.)       :      0.00000
Magnitude (Debye)      :      0.00000



--------------------
Rotational spectrum 
--------------------
 
Rotational constants in cm-1:     0.000000     0.000000     0.000000 
Rotational constants in MHz :     0.000000     0.000000     0.000000 

 Dipole components along the rotational axes: 
x,y,z [a.u.] :    -0.000000     0.000000    -0.000000 
x,y,z [Debye]:    -0.000000     0.000000    -0.000000 

 

Timings for individual modules:

Sum of individual times         ...        2.323 sec (=   0.039 min)
GTO integral calculation        ...        0.493 sec (=   0.008 min)  21.2 %
Relativistic integrals          ...        0.380 sec (=   0.006 min)  16.4 %
SCF iterations                  ...        1.450 sec (=   0.024 min)  62.4 %
                             ****ORCA TERMINATED NORMALLY****
TOTAL RUN TIME: 0 days 0 hours 0 minutes 2 seconds 634 msec
