
                                 *****************
                                 * O   R   C   A *
                                 *****************

           --- An Ab Initio, DFT and Semiempirical electronic structure package ---

                  #######################################################
                  #                        -***-                        #
                  #          Department of theory and spectroscopy      #
                  #               Directorship: Frank Neese             #
                  #        Max Planck Institute fuer Kohlenforschung    #
                  #                Kaiser Wilhelm Platz 1               #
                  #                 D-45470 Muelheim/Ruhr               #
                  #                      Germany                        #
                  #                                                     #
                  #                  All rights reserved                #
                  #                        -***-                        #
                  #######################################################


                         Program Version 4.2.1 -  RELEASE  -


 With contributions from (in alphabetic order):
   Daniel Aravena         : Magnetic Suceptibility
   Michael Atanasov       : Ab Initio Ligand Field Theory (pilot matlab implementation)
   Alexander A. Auer      : GIAO ZORA, VPT2
   Ute Becker             : Parallelization
   Giovanni Bistoni       : ED, misc. LED, open-shell LED, HFLD
   Martin Brehm           : Molecular dynamics
   Dmytro Bykov           : SCF Hessian
   Vijay G. Chilkuri      : MRCI spin determinant printing, contributions to CSF-ICE
   Dipayan Datta          : RHF DLPNO-CCSD density
   Achintya Kumar Dutta   : EOM-CC, STEOM-CC
   Dmitry Ganyushin       : Spin-Orbit,Spin-Spin,Magnetic field MRCI
   Miquel Garcia          : C-PCM Hessian, Gaussian charge scheme
   Yang Guo               : DLPNO-NEVPT2, CIM, IAO-localization
   Andreas Hansen         : Spin unrestricted coupled pair/coupled cluster methods
   Benjamin Helmich-Paris : CASSCF linear response (MC-RPA)
   Lee Huntington         : MR-EOM, pCC
   Robert Izsak           : Overlap fitted RIJCOSX, COSX-SCS-MP3, EOM
   Christian Kollmar      : KDIIS, OOCD, Brueckner-CCSD(T), CCSD density
   Simone Kossmann        : Meta GGA functionals, TD-DFT gradient, OOMP2, MP2 Hessian
   Martin Krupicka        : AUTO-CI
   Lucas Lang             : DCDCAS
   Dagmar Lenk            : GEPOL surface, SMD
   Dimitrios Liakos       : Extrapolation schemes; Compound Job, initial MDCI parallelization
   Dimitrios Manganas     : Further ROCIS development; embedding schemes
   Dimitrios Pantazis     : SARC Basis sets
   Taras Petrenko         : DFT Hessian,TD-DFT gradient, ASA, ECA, R-Raman, ABS, FL, XAS/XES, NRVS
   Peter Pinski           : DLPNO-MP2, DLPNO-MP2 Gradient
   Christoph Reimann      : Effective Core Potentials
   Marius Retegan         : Local ZFS, SOC
   Christoph Riplinger    : Optimizer, TS searches, QM/MM, DLPNO-CCSD(T), (RO)-DLPNO pert. Triples
   Tobias Risthaus        : Range-separated hybrids, TD-DFT gradient, RPA, STAB
   Michael Roemelt        : Original ROCIS implementation
   Masaaki Saitow         : Open-shell DLPNO-CCSD energy and density
   Barbara Sandhoefer     : DKH picture change effects
   Avijit Sen             : IP-ROCIS
   Kantharuban Sivalingam : CASSCF convergence, NEVPT2, FIC-MRCI
   Bernardo de Souza      : ESD, SOC TD-DFT
   Georgi Stoychev        : AutoAux, RI-MP2 NMR
   Willem Van den Heuvel  : Paramagnetic NMR
   Boris Wezisla          : Elementary symmetry handling
   Frank Wennmohs         : Technical directorship


 We gratefully acknowledge several colleagues who have allowed us to
 interface, adapt or use parts of their codes:
   Stefan Grimme, W. Hujo, H. Kruse,             : VdW corrections, initial TS optimization,
                  C. Bannwarth                     DFT functionals, gCP, sTDA/sTD-DF
   Ed Valeev, F. Pavosevic, A. Kumar             : LibInt (2-el integral package), F12 methods
   Garnet Chan, S. Sharma, J. Yang, R. Olivares  : DMRG
   Ulf Ekstrom                                   : XCFun DFT Library
   Mihaly Kallay                                 : mrcc  (arbitrary order and MRCC methods)
   Andreas Klamt, Michael Diedenhofen            : otool_cosmo (COSMO solvation model)
   Jiri Pittner, Ondrej Demel                    : Mk-CCSD
   Frank Weinhold                                : gennbo (NPA and NBO analysis)
   Christopher J. Cramer and Donald G. Truhlar   : smd solvation model
   Lars Goerigk                                  : TD-DFT with DH, B97 family of functionals
   V. Asgeirsson, H. Jonsson                     : NEB implementation
   FAccTs GmbH                                   : IRC, NEB, NEB-TS, Multilevel, MM, QM/MM, CI optimization
   S Lehtola, MJT Oliveira, MAL Marques          : LibXC Library


 Your calculation uses the libint2 library for the computation of 2-el integrals
 For citations please refer to: http://libint.valeyev.net

 Your ORCA version has been built with support for libXC version: 4.2.3
 For citations please refer to: https://tddft.org/programs/libxc/

 This ORCA versions uses:
   CBLAS   interface :  Fast vector & matrix operations
   LAPACKE interface :  Fast linear algebra routines
   SCALAPACK package :  Parallel linear algebra routines


----- Orbital basis set information -----
Your calculation utilizes the basis: pc-2
   H, C-F              : F. Jensen, J. Chem. Phys. 115, 9113 (2001).
                         F. Jensen, J. Chem. Phys. 116, 7372 (2002).
                         F. Jensen, J. Chem. Phys. 117, 9234 (2002).
   Si-Cl               : F. Jensen, T. Helgaker, J. Chem. Phys. 121, 3463 (2004).
   He-B, Ne-Mg, Al, Ar : F. Jensen, J. Phys. Chem. A 111, 11198 (2007).
   K, Ca, Ga-Kr        : F. Jensen, J. Chem. Phys. 136, 094110 (2012).
   Sc-Zn               : F. Jensen, J. Chem. Phys. 138, 014107 (2013).

================================================================================
                                        WARNINGS
                       Please study these warnings very carefully!
================================================================================


INFO   : the flag for use of LIBINT has been found!

================================================================================
                                       INPUT FILE
================================================================================
NAME = Ar_pc-2_4385.151648_.inp
|  1> ! LDA pc-2 nori grid5 finalgrid6 verytightscf
|  2> %Pal NProcs 18 End
|  3> 
|  4> % REL
|  5>   Method ZORA
|  6>   ModelPot 1, 0, 0, 0
|  7>   velit 4385.151648
|  8> END
|  9> 
| 10> *xyz 16 1
| 11> Ar 0.0 0.0 0.0
| 12> **                         ****END OF INPUT****
================================================================================

                       ****************************
                       * Single Point Calculation *
                       ****************************

---------------------------------
CARTESIAN COORDINATES (ANGSTROEM)
---------------------------------
  Ar     0.000000    0.000000    0.000000

----------------------------
CARTESIAN COORDINATES (A.U.)
----------------------------
  NO LB      ZA    FRAG     MASS         X           Y           Z
   0 Ar   18.0000    0    39.948    0.000000    0.000000    0.000000

--------------------------------
INTERNAL COORDINATES (ANGSTROEM)
--------------------------------
 Ar     0   0   0     0.000000000000     0.00000000     0.00000000

---------------------------
INTERNAL COORDINATES (A.U.)
---------------------------
 Ar     0   0   0     0.000000000000     0.00000000     0.00000000

---------------------
BASIS SET INFORMATION
---------------------
There are 1 groups of distinct atoms

 Group   1 Type Ar  : 29s16p2d1f contracted to 5s4p2d1f pattern {99911/7711/11/1}

Atom   0Ar   basis set group =>   1


           ************************************************************
           *        Program running with 18 parallel MPI-processes    *
           *              working on a common directory               *
           ************************************************************
------------------------------------------------------------------------------
                           ORCA GTO INTEGRAL CALCULATION
------------------------------------------------------------------------------

                         BASIS SET STATISTICS AND STARTUP INFO

 # of primitive gaussian shells          ...   48
 # of primitive gaussian functions       ...   94
 # of contracted shells                  ...   12
 # of contracted basis functions         ...   34
 Highest angular momentum                ...    3
 Maximum contraction depth               ...    9
 Integral package used                   ... LIBINT
 Integral threshhold            Thresh   ...  1.000e-12
 Primitive cut-off              TCut     ...  1.000e-14


------------------------------ INTEGRAL EVALUATION ----------------------------


 * One electron integrals 
 Pre-screening matrix                    ... done
 Shell pair data                         ... done (   0.000 sec)



           ************************************************************
           *        Program running with 18 parallel MPI-processes    *
           *              working on a common directory               *
           ************************************************************
------------------------------------------------------------------------------
                          ORCA RELATIVISTIC HAMILTONIAN
------------------------------------------------------------------------------

Relativistic Method            ... ZORA(MP)
Treatment of potential         ... Van Wuellen
Nucleus model                  ... Point Nucleus
Speed of light used            ... 4385.15164800000002


            *************************************************
            *         ZERO ORDER REGULAR APPROXIMATION      *
            *                     ZORA(MP)                  *
            *            Programmed by FN according to      *
            *                   C. van Wuellen              *
            *       J. Chem. Phys. (1998) vol 109, 392-399  *
            *************************************************

Terms included in model potential: +V(e,N)
Basis function cutoff value   ... 1.000000e-12
Loading the fitted atomic densities  (DKH4)  ... done
Calculating the cutoffs                      ... done
Number of fit functions                      ... 15
Setting up the integration grid ... done


           ************************************************************
           *        Program running with 18 parallel MPI-processes    *
           *              working on a common directory               *
           ************************************************************
-------------------------------------------------------------------------------
                                 ORCA SCF
-------------------------------------------------------------------------------

------------
SCF SETTINGS
------------
Hamiltonian:
 Density Functional     Method          .... DFT(GTOs)
 Exchange Functional    Exchange        .... Slater
   X-Alpha parameter    XAlpha          ....  0.666667
 Correlation Functional Correlation     .... VWN-5
 Gradients option       PostSCFGGA      .... off
   Density functional embedding theory  .... OFF

Relativistic Settings:
 Scalar relativistic method             .... ZORA
 Speed of light used       Velit        ....       4385.15165
Orbital energies will be scaled


General Settings:
 Integral files         IntName         .... Ar_pc-2_4385.151648_
 Hartree-Fock type      HFTyp           .... RHF
 Total Charge           Charge          ....   16
 Multiplicity           Mult            ....    1
 Number of Electrons    NEL             ....    2
 Basis Dimension        Dim             ....   34
 Nuclear Repulsion      ENuc            ....      0.0000000000 Eh

Convergence Acceleration:
 DIIS                   CNVDIIS         .... on
   Start iteration      DIISMaxIt       ....    12
   Startup error        DIISStart       ....  0.200000
   # of expansion vecs  DIISMaxEq       ....     5
   Bias factor          DIISBfac        ....   1.050
   Max. coefficient     DIISMaxC        ....  10.000
 Newton-Raphson         CNVNR           .... off
 SOSCF                  CNVSOSCF        .... on
   Start iteration      SOSCFMaxIt      ....   150
   Startup grad/error   SOSCFStart      ....  0.003300
 Level Shifting         CNVShift        .... on
   Level shift para.    LevelShift      ....    0.2500
   Turn off err/grad.   ShiftErr        ....    0.0010
 Zerner damping         CNVZerner       .... off
 Static damping         CNVDamp         .... on
   Fraction old density DampFac         ....    0.7000
   Max. Damping (<1)    DampMax         ....    0.9800
   Min. Damping (>=0)   DampMin         ....    0.0000
   Turn off err/grad.   DampErr         ....    0.1000
 Fernandez-Rico         CNVRico         .... off

SCF Procedure:
 Maximum # iterations   MaxIter         ....   125
 SCF integral mode      SCFMode         .... Direct
   Integral package                     .... LIBINT
 Reset frequency        DirectResetFreq ....    20
 Integral Threshold     Thresh          ....  1.000e-12 Eh
 Primitive CutOff       TCut            ....  1.000e-14 Eh

Convergence Tolerance:
 Convergence Check Mode ConvCheckMode   .... Total+1el-Energy
 Convergence forced     ConvForced      .... 0
 Energy Change          TolE            ....  1.000e-09 Eh
 1-El. energy change                    ....  1.000e-06 Eh
 Orbital Gradient       TolG            ....  2.000e-06
 Orbital Rotation angle TolX            ....  2.000e-06
 DIIS Error             TolErr          ....  1.000e-08


Diagonalization of the overlap matrix:
Smallest eigenvalue                        ... 1.862e-02
Time for diagonalization                   ...    0.001 sec
Threshold for overlap eigenvalues          ... 1.000e-08
Number of eigenvalues below threshold      ... 0
Time for construction of square roots      ...    0.001 sec
Total time needed                          ...    0.002 sec

-------------------
DFT GRID GENERATION
-------------------

General Integration Accuracy     IntAcc      ...  5.010
Radial Grid Type                 RadialGrid  ... Gauss-Chebyshev
Angular Grid (max. acc.)         AngularGrid ... Lebedev-434
Angular grid pruning method      GridPruning ... 3 (G Style)
Weight generation scheme         WeightScheme... Becke
Basis function cutoff            BFCut       ...    1.0000e-12
Integration weight cutoff        WCut        ...    1.0000e-14
Grids for H and He will be reduced by one unit

# of grid points (after initial pruning)     ...  11992 (   0.0 sec)
# of grid points (after weights+screening)   ...  11992 (   0.0 sec)
Grid point division into batches done        ...    0.1 sec
Reduced shell lists constructed in    0.1 sec

Total number of grid points                  ...    11992
Total number of batches                      ...      188
Average number of points per batch           ...       63
Average number of grid points per atom       ...    11992
Average number of shells per batch           ...     0.00 ( 0.00%)
Average number of basis functions per batch  ...     0.00 ( 0.00%)
Average number of large shells per batch     ...     0.00 ( -nan%)
Average number of large basis fcns per batch ...     0.00 ( -nan%)
Maximum spatial batch extension              ...  18.71, 18.71, 18.71 au
Average spatial batch extension              ...   0.97,  0.98,  0.97 au

Time for grid setup =    0.145 sec

------------------------------
INITIAL GUESS: MODEL POTENTIAL
------------------------------
Loading ZORA relativistic densities                ... done
Calculating cut-offs                               ... done
Setting up the integral package                    ... done
Initializing the effective Hamiltonian             ... done
Starting the Coulomb interaction                   ... done (   0.0 sec)
Reading the grid                                   ... done
Mapping shells                                     ... done
Starting the XC term evaluation                    ... done (   0.0 sec)
  promolecular density results
     # of electrons  =     18.000000116
     EX              =    -28.047870263
     EC              =     -1.433252902
     EX+EC           =    -29.481123164
Transforming the Hamiltonian                       ... done (   0.0 sec)
Diagonalizing the Hamiltonian                      ... done (   0.0 sec)
Back transforming the eigenvectors                 ... done (   0.0 sec)
Now organizing SCF variables                       ... done
                      ------------------
                      INITIAL GUESS DONE (   0.2 sec)
                      ------------------
--------------
SCF ITERATIONS
--------------
ITER       Energy         Delta-E        Max-DP      RMS-DP      [F,P]     Damp
               ***  Starting incremental Fock matrix formation  ***
  0   -311.5092591436   0.000000000000 0.00985776  0.00031742  2.1808925 0.7000
                      *** Initiating the SOSCF procedure ***
                      *** Re-Reading the Fockian *** 
                      *** Removing any level shift *** 
ITER      Energy       Delta-E        Grad      Rot      Max-DP    RMS-DP
  1   -311.51599294  -0.0067337949  0.000524  0.000524  0.023030  0.000742
               *** Restarting incremental Fock matrix formation ***
  2   -311.53160755  -0.0156146138  0.004743  0.000042  0.000065  0.000003
  3   -311.53160798  -0.0000004322  0.000029  0.000000  0.000000  0.000000
                 **** Energy Check signals convergence ****
              ***Rediagonalizing the Fockian in SOSCF/NRSCF***

               *****************************************************
               *                     SUCCESS                       *
               *           SCF CONVERGED AFTER   4 CYCLES          *
               *****************************************************

Setting up the final grid:

General Integration Accuracy     IntAcc      ...  5.340
Radial Grid Type                 RadialGrid  ... Gauss-Chebyshev
Angular Grid (max. acc.)         AngularGrid ... Lebedev-590
Angular grid pruning method      GridPruning ... 3 (G Style)
Weight generation scheme         WeightScheme... Becke
Basis function cutoff            BFCut       ...    1.0000e-12
Integration weight cutoff        WCut        ...    1.0000e-14
Grids for H and He will be reduced by one unit

# of grid points (after initial pruning)     ...  18110 (   0.0 sec)
# of grid points (after weights+screening)   ...  18110 (   0.0 sec)
Grid point division into batches done        ...    0.2 sec
Reduced shell lists constructed in    0.2 sec

Total number of grid points                  ...    18110
Total number of batches                      ...      283
Average number of points per batch           ...       63
Average number of grid points per atom       ...    18110
Average number of shells per batch           ...     0.00 ( 0.00%)
Average number of basis functions per batch  ...     0.00 ( 0.00%)
Average number of large shells per batch     ...     0.00 ( -nan%)
Average number of large basis fcns per batch ...     0.00 ( -nan%)
Maximum spatial batch extension              ...  19.03, 19.03, 19.03 au
Average spatial batch extension              ...   0.84,  0.84,  0.80 au

Final grid set up in    0.2 sec
Final integration                            ... done (   0.0 sec)
Change in XC energy                          ...    -0.000000505
Integrated number of electrons               ...     2.000000068
Previous integrated no of electrons          ...     2.000000012

----------------
TOTAL SCF ENERGY
----------------

Total Energy       :         -311.53160849 Eh           -8477.20604 eV

Components:
Nuclear Repulsion  :            0.00000000 Eh               0.00000 eV
Electronic Energy  :         -311.53160849 Eh           -8477.20604 eV
One Electron Energy:         -323.80829441 Eh           -8811.27165 eV
Two Electron Energy:           12.27668592 Eh             334.06561 eV

Virial components:
Potential Energy   :         -621.12749832 Eh          -16901.73850 eV
Kinetic Energy     :          309.59588983 Eh            8424.53246 eV
Virial Ratio       :            2.00625240


DFT components:
N(Alpha)           :        1.000000034112 electrons
N(Beta)            :        1.000000034112 electrons
N(Total)           :        2.000000068225 electrons
E(X)               :       -9.404406845993 Eh       
E(C)               :       -0.236728667064 Eh       
E(XC)              :       -9.641135513057 Eh       
DFET-embed. en.    :        0.000000000000 Eh       

---------------
SCF CONVERGENCE
---------------

  Last Energy change         ...   -1.6712e-11  Tolerance :   1.0000e-09
  Last MAX-Density change    ...    0.0000e+00  Tolerance :   1.0000e-08
  Last RMS-Density change    ...    0.0000e+00  Tolerance :   1.0000e-09
  Last Orbital Gradient      ...    1.1120e-10  Tolerance :   2.0000e-06
  Last Orbital Rotation      ...    0.0000e+00  Tolerance :   2.0000e-06

================================================================================
                                        WARNING
Number of found core electrons (2) does not match given number of chemical core electrons (10)
================================================================================
             **** THE GBW FILE WAS UPDATED (Ar_pc-2_4385.151648_.gbw) ****
             **** DENSITY FILE WAS UPDATED (Ar_pc-2_4385.151648_.scfp) ****
             **** ENERGY FILE WAS UPDATED (Ar_pc-2_4385.151648_.en.tmp) ****
             **** THE GBW FILE WAS UPDATED (Ar_pc-2_4385.151648_.gbw) ****
             **** DENSITY FILE WAS UPDATED (Ar_pc-2_4385.151648_.scfp) ****
----------------
ORBITAL ENERGIES
----------------

  NO   OCC          E(Eh)            E(eV) 
   0   2.0000    -146.383844     -3983.3069 
   1   0.0000     -33.831118      -920.5915 
   2   0.0000     -32.698231      -889.7641 
   3   0.0000     -32.698231      -889.7641 
   4   0.0000     -32.698231      -889.7641 
   5   0.0000     -13.581689      -369.5766 
   6   0.0000     -13.242329      -360.3421 
   7   0.0000     -13.242329      -360.3421 
   8   0.0000     -13.242329      -360.3421 
   9   0.0000     -12.848987      -349.6387 
  10   0.0000     -12.848987      -349.6387 
  11   0.0000     -12.848987      -349.6387 
  12   0.0000     -12.848987      -349.6387 
  13   0.0000     -12.848987      -349.6387 
  14   0.0000      -6.991185      -190.2398 
  15   0.0000      -6.991185      -190.2398 
  16   0.0000      -6.991185      -190.2398 
  17   0.0000      -6.991185      -190.2398 
  18   0.0000      -6.991185      -190.2398 
  19   0.0000      -6.952837      -189.1963 
  20   0.0000      -6.952837      -189.1963 
  21   0.0000      -6.952837      -189.1963 
  22   0.0000      -6.802100      -185.0946 
  23   0.0000      -6.802100      -185.0946 
  24   0.0000      -6.802100      -185.0946 
  25   0.0000      -6.802100      -185.0946 
  26   0.0000      -6.802100      -185.0946 
  27   0.0000      -6.802100      -185.0946 
  28   0.0000      -6.802100      -185.0946 
  29   0.0000      -6.658197      -181.1787 
  30   0.0000      -4.060253      -110.4851 
  31   0.0000      -4.060253      -110.4851 
  32   0.0000      -4.060253      -110.4851 
  33   0.0000      12.161640       330.9350 

                    ********************************
                    * MULLIKEN POPULATION ANALYSIS *
                    ********************************

-----------------------
MULLIKEN ATOMIC CHARGES
-----------------------
   0 Ar:   16.000000
Sum of atomic charges:   16.0000000

--------------------------------
MULLIKEN REDUCED ORBITAL CHARGES
--------------------------------
  0 Ars       :     2.000000  s :     2.000000
      pz      :     0.000000  p :     0.000000
      px      :     0.000000
      py      :     0.000000
      dz2     :     0.000000  d :     0.000000
      dxz     :     0.000000
      dyz     :     0.000000
      dx2y2   :     0.000000
      dxy     :     0.000000
      f0      :     0.000000  f :     0.000000
      f+1     :     0.000000
      f-1     :     0.000000
      f+2     :     0.000000
      f-2     :     0.000000
      f+3     :     0.000000
      f-3     :     0.000000


                     *******************************
                     * LOEWDIN POPULATION ANALYSIS *
                     *******************************

----------------------
LOEWDIN ATOMIC CHARGES
----------------------
   0 Ar:   16.000000

-------------------------------
LOEWDIN REDUCED ORBITAL CHARGES
-------------------------------
  0 Ars       :     2.000000  s :     2.000000
      pz      :     0.000000  p :     0.000000
      px      :     0.000000
      py      :     0.000000
      dz2     :     0.000000  d :     0.000000
      dxz     :     0.000000
      dyz     :     0.000000
      dx2y2   :     0.000000
      dxy     :     0.000000
      f0      :     0.000000  f :     0.000000
      f+1     :     0.000000
      f-1     :     0.000000
      f+2     :     0.000000
      f-2     :     0.000000
      f+3     :     0.000000
      f-3     :     0.000000


                      *****************************
                      * MAYER POPULATION ANALYSIS *
                      *****************************

  NA   - Mulliken gross atomic population
  ZA   - Total nuclear charge
  QA   - Mulliken gross atomic charge
  VA   - Mayer's total valence
  BVA  - Mayer's bonded valence
  FA   - Mayer's free valence

  ATOM       NA         ZA         QA         VA         BVA        FA
  0 Ar     2.0000    18.0000    16.0000    -0.0000     0.0000    -0.0000

  Mayer bond orders larger than 0.100000


--------------------------
ATOM BASIS FOR ELEMENT Ar
--------------------------
 NewGTO Ar
 S 29
    1     232510.000000000000         0.000132337942
    2      34844.000000000000         0.001026858385
    3       7930.300000000000         0.005364981537
    4       2245.700000000000         0.022094272647
    5        732.220000000000         0.074715471993
    6        263.770000000000         0.199587459509
    7        102.190000000000         0.375255102599
    8         41.525000000000         0.368044803895
    9         17.202000000000         0.103424844171
   10      34844.000000000000         0.000000161456
   11       7930.300000000000         0.000000055385
   12       2245.700000000000         0.000010873944
   13        732.220000000000         0.000052058400
   14        263.770000000000         0.000560729158
   15        102.190000000000         0.002244882738
   16         41.525000000000         0.006963448208
   17         17.202000000000        -0.002729688158
   18          6.596700000000        -0.019014769946
   19       7930.300000000000        -0.000000039786
   20       2245.700000000000        -0.000000501819
   21        732.220000000000        -0.000005860569
   22        263.770000000000        -0.000043789905
   23        102.190000000000        -0.000230439923
   24         41.525000000000        -0.000639839908
   25         17.202000000000         0.000047166190
   26          6.596700000000         0.005285412726
   27          2.647700000000         0.006821707156
   28          0.661930000000        -0.001956657208
   29          0.229010000000         0.000660989679
 S 29
    1     232510.000000000000         0.000028673058
    2      34844.000000000000         0.000222484717
    3       7930.300000000000         0.001162406049
    4       2245.700000000000         0.004787065154
    5        732.220000000000         0.016188260104
    6        263.770000000000         0.043243703370
    7        102.190000000000         0.081304809355
    8         41.525000000000         0.079742586863
    9         17.202000000000         0.022408588663
   10      34844.000000000000         0.000004154465
   11       7930.300000000000         0.000001425118
   12       2245.700000000000         0.000279799769
   13        732.220000000000         0.001339525805
   14        263.770000000000         0.014428241809
   15        102.190000000000         0.057763557558
   16         41.525000000000         0.179177974180
   17         17.202000000000        -0.070238189425
   18          6.596700000000        -0.489273109637
   19       7930.300000000000         0.000002181053
   20       2245.700000000000         0.000027509633
   21        732.220000000000         0.000321275123
   22        263.770000000000         0.002400553213
   23        102.190000000000         0.012632667137
   24         41.525000000000         0.035075886500
   25         17.202000000000        -0.002585640423
   26          6.596700000000        -0.289745191697
   27          2.647700000000        -0.373964522756
   28          0.661930000000         0.095361889699
   29          0.229010000000        -0.037838958837
 S 29
    1     232510.000000000000        -0.000004300147
    2      34844.000000000000        -0.000033366413
    3       7930.300000000000        -0.000174328019
    4       2245.700000000000        -0.000717924333
    5        732.220000000000        -0.002427781003
    6        263.770000000000        -0.006485332017
    7        102.190000000000        -0.012193421057
    8         41.525000000000        -0.011959131883
    9         17.202000000000        -0.003360654296
   10      34844.000000000000         0.000004330025
   11       7930.300000000000         0.000001485340
   12       2245.700000000000         0.000291623550
   13        732.220000000000         0.001396131497
   14        263.770000000000         0.015037950558
   15        102.190000000000         0.060204530399
   16         41.525000000000         0.186749678334
   17         17.202000000000        -0.073206315352
   18          6.596700000000        -0.509948816313
   19       7930.300000000000         0.000000645196
   20       2245.700000000000         0.000008137860
   21        732.220000000000         0.000095039143
   22        263.770000000000         0.000710128183
   23        102.190000000000         0.003736977342
   24         41.525000000000         0.010376098069
   25         17.202000000000        -0.000764880415
   26          6.596700000000        -0.085712004003
   27          2.647700000000        -0.110625644843
   28          0.661930000000         1.456546729969
   29          0.229010000000        -0.351573326424
 S 29
    1     232510.000000000000        -0.000007023303
    2      34844.000000000000        -0.000054496373
    3       7930.300000000000        -0.000284724788
    4       2245.700000000000        -0.001172564539
    5        732.220000000000        -0.003965222768
    6        263.770000000000        -0.010592300597
    7        102.190000000000        -0.019915153273
    8         41.525000000000        -0.019532495708
    9         17.202000000000        -0.005488857072
   10      34844.000000000000         0.000002836681
   11       7930.300000000000         0.000000973074
   12       2245.700000000000         0.000191048096
   13        732.220000000000         0.000914632117
   14        263.770000000000         0.009851645483
   15        102.190000000000         0.039441125149
   16         41.525000000000         0.122343242042
   17         17.202000000000        -0.047958840080
   18          6.596700000000        -0.334077102675
   19       7930.300000000000        -0.000000302069
   20       2245.700000000000        -0.000003809993
   21        732.220000000000        -0.000044495543
   22        263.770000000000        -0.000332468689
   23        102.190000000000        -0.001749582663
   24         41.525000000000        -0.004857894399
   25         17.202000000000         0.000358102656
   26          6.596700000000         0.040128751808
   27          2.647700000000         0.051792850921
   28          0.661930000000         1.356957396765
   29          0.229010000000        -1.760227746596
 S 29
    1     232510.000000000000        -0.000138827738
    2      34844.000000000000        -0.001077215081
    3       7930.300000000000        -0.005628077940
    4       2245.700000000000        -0.023177766341
    5        732.220000000000        -0.078379486827
    6        263.770000000000        -0.209375143276
    7        102.190000000000        -0.393657452552
    8         41.525000000000        -0.386093563880
    9         17.202000000000        -0.108496754354
   10      34844.000000000000         0.000038117958
   11       7930.300000000000         0.000013075707
   12       2245.700000000000         0.002567212583
   13        732.220000000000         0.012290387212
   14        263.770000000000         0.132381681595
   15        102.190000000000         0.529990901560
   16         41.525000000000         1.643989741800
   17         17.202000000000        -0.644447864903
   18          6.596700000000        -4.489167694104
   19       7930.300000000000        -0.000018692337
   20       2245.700000000000        -0.000235766561
   21        732.220000000000        -0.002753432993
   22        263.770000000000        -0.020573526973
   23        102.190000000000        -0.108266093268
   24         41.525000000000        -0.300611831057
   25         17.202000000000         0.022159784961
   26          6.596700000000         2.483211154654
   27          2.647700000000         3.204998395017
   28          0.661930000000        -2.186418232348
   29          0.229010000000         0.973397715891
 P 16
    1       1297.700000000000         0.001037610765
    2        307.860000000000         0.008661781057
    3         99.096000000000         0.044310910806
    4         36.837000000000         0.150936404429
    5         15.027000000000         0.337785032613
    6          6.366200000000         0.456123289799
    7          2.711000000000         0.273795036035
    8        307.860000000000         0.000007639792
    9         99.096000000000         0.000113663985
   10         36.837000000000         0.001076341442
   11         15.027000000000         0.004961562389
   12          6.366200000000         0.011347418602
   13          2.711000000000        -0.025690662462
   14          1.018200000000        -0.216634837532
   15          0.382740000000         0.127822415471
   16          0.129460000000        -0.041336863501
 P 16
    1       1297.700000000000         0.000344830836
    2        307.860000000000         0.002878583472
    3         99.096000000000         0.014725915450
    4         36.837000000000         0.050160935296
    5         15.027000000000         0.112256637020
    6          6.366200000000         0.151584178206
    7          2.711000000000         0.090990739703
    8        307.860000000000         0.000044721639
    9         99.096000000000         0.000665363672
   10         36.837000000000         0.006300663286
   11         15.027000000000         0.029043882136
   12          6.366200000000         0.066425263370
   13          2.711000000000        -0.150387421144
   14          1.018200000000        -1.268132131461
   15          0.382740000000         0.411841853593
   16          0.129460000000        -0.123088444650
 P 16
    1       1297.700000000000         0.000120830953
    2        307.860000000000         0.001008674249
    3         99.096000000000         0.005160055927
    4         36.837000000000         0.017576715849
    5         15.027000000000         0.039335450972
    6          6.366200000000         0.053116075523
    7          2.711000000000         0.031883743139
    8        307.860000000000         0.000035043204
    9         99.096000000000         0.000521368969
   10         36.837000000000         0.004937105017
   11         15.027000000000         0.022758349350
   12          6.366200000000         0.052049837634
   13          2.711000000000        -0.117841322045
   14          1.018200000000        -0.993689271100
   15          0.382740000000         1.701845822390
   16          0.129460000000        -0.229375507080
 P 16
    1       1297.700000000000         0.000044502466
    2        307.860000000000         0.000371498285
    3         99.096000000000         0.001900466805
    4         36.837000000000         0.006473566465
    5         15.027000000000         0.014487385385
    6          6.366200000000         0.019562838031
    7          2.711000000000         0.011742895098
    8        307.860000000000         0.000017394305
    9         99.096000000000         0.000258790573
   10         36.837000000000         0.002450618106
   11         15.027000000000         0.011296503271
   12          6.366200000000         0.025835843895
   13          2.711000000000        -0.058492593620
   14          1.018200000000        -0.493234985064
   15          0.382740000000         1.397975335275
   16          0.129460000000        -1.548770833850
 D 2
    1          2.520000000000         0.967811747070
    2          0.570000000000         0.072913061660
 D 2
    1          2.520000000000         0.516482043476
    2          0.570000000000        -1.094576157442
 F 1
    1          0.780000000000         1.000000000000
 end
  // -----------------------------------------------
  // The basis set
  // -----------------------------------------------
  BAS[ATNO] = new BFNGauss[NSH];
  // Basis function   1 L = s
  InitBFNGauss(BAS[ATNO][  0]);
  BAS[ATNO][  0].l  = 0;
  BAS[ATNO][  0].ng = 29;
  BAS[ATNO][  0].a[  0] =    232510.000000000000;     BAS[ATNO][  0].d[  0] =         0.000132337942;
  BAS[ATNO][  0].a[  1] =     34844.000000000000;     BAS[ATNO][  0].d[  1] =         0.001026858385;
  BAS[ATNO][  0].a[  2] =      7930.300000000000;     BAS[ATNO][  0].d[  2] =         0.005364981537;
  BAS[ATNO][  0].a[  3] =      2245.700000000000;     BAS[ATNO][  0].d[  3] =         0.022094272647;
  BAS[ATNO][  0].a[  4] =       732.220000000000;     BAS[ATNO][  0].d[  4] =         0.074715471993;
  BAS[ATNO][  0].a[  5] =       263.770000000000;     BAS[ATNO][  0].d[  5] =         0.199587459509;
  BAS[ATNO][  0].a[  6] =       102.190000000000;     BAS[ATNO][  0].d[  6] =         0.375255102599;
  BAS[ATNO][  0].a[  7] =        41.525000000000;     BAS[ATNO][  0].d[  7] =         0.368044803895;
  BAS[ATNO][  0].a[  8] =        17.202000000000;     BAS[ATNO][  0].d[  8] =         0.103424844171;
  BAS[ATNO][  0].a[  9] =     34844.000000000000;     BAS[ATNO][  0].d[  9] =         0.000000161456;
  BAS[ATNO][  0].a[ 10] =      7930.300000000000;     BAS[ATNO][  0].d[ 10] =         0.000000055385;
  BAS[ATNO][  0].a[ 11] =      2245.700000000000;     BAS[ATNO][  0].d[ 11] =         0.000010873944;
  BAS[ATNO][  0].a[ 12] =       732.220000000000;     BAS[ATNO][  0].d[ 12] =         0.000052058400;
  BAS[ATNO][  0].a[ 13] =       263.770000000000;     BAS[ATNO][  0].d[ 13] =         0.000560729158;
  BAS[ATNO][  0].a[ 14] =       102.190000000000;     BAS[ATNO][  0].d[ 14] =         0.002244882738;
  BAS[ATNO][  0].a[ 15] =        41.525000000000;     BAS[ATNO][  0].d[ 15] =         0.006963448208;
  BAS[ATNO][  0].a[ 16] =        17.202000000000;     BAS[ATNO][  0].d[ 16] =        -0.002729688158;
  BAS[ATNO][  0].a[ 17] =         6.596700000000;     BAS[ATNO][  0].d[ 17] =        -0.019014769946;
  BAS[ATNO][  0].a[ 18] =      7930.300000000000;     BAS[ATNO][  0].d[ 18] =        -0.000000039786;
  BAS[ATNO][  0].a[ 19] =      2245.700000000000;     BAS[ATNO][  0].d[ 19] =        -0.000000501819;
  BAS[ATNO][  0].a[ 20] =       732.220000000000;     BAS[ATNO][  0].d[ 20] =        -0.000005860569;
  BAS[ATNO][  0].a[ 21] =       263.770000000000;     BAS[ATNO][  0].d[ 21] =        -0.000043789905;
  BAS[ATNO][  0].a[ 22] =       102.190000000000;     BAS[ATNO][  0].d[ 22] =        -0.000230439923;
  BAS[ATNO][  0].a[ 23] =        41.525000000000;     BAS[ATNO][  0].d[ 23] =        -0.000639839908;
  BAS[ATNO][  0].a[ 24] =        17.202000000000;     BAS[ATNO][  0].d[ 24] =         0.000047166190;
  BAS[ATNO][  0].a[ 25] =         6.596700000000;     BAS[ATNO][  0].d[ 25] =         0.005285412726;
  BAS[ATNO][  0].a[ 26] =         2.647700000000;     BAS[ATNO][  0].d[ 26] =         0.006821707156;
  BAS[ATNO][  0].a[ 27] =         0.661930000000;     BAS[ATNO][  0].d[ 27] =        -0.001956657208;
  BAS[ATNO][  0].a[ 28] =         0.229010000000;     BAS[ATNO][  0].d[ 28] =         0.000660989679;

  // Basis function   2 L = s
  InitBFNGauss(BAS[ATNO][  1]);
  BAS[ATNO][  1].l  = 0;
  BAS[ATNO][  1].ng = 29;
  BAS[ATNO][  1].a[  0] =    232510.000000000000;     BAS[ATNO][  1].d[  0] =        -0.000028673058;
  BAS[ATNO][  1].a[  1] =     34844.000000000000;     BAS[ATNO][  1].d[  1] =        -0.000222484717;
  BAS[ATNO][  1].a[  2] =      7930.300000000000;     BAS[ATNO][  1].d[  2] =        -0.001162406049;
  BAS[ATNO][  1].a[  3] =      2245.700000000000;     BAS[ATNO][  1].d[  3] =        -0.004787065154;
  BAS[ATNO][  1].a[  4] =       732.220000000000;     BAS[ATNO][  1].d[  4] =        -0.016188260104;
  BAS[ATNO][  1].a[  5] =       263.770000000000;     BAS[ATNO][  1].d[  5] =        -0.043243703370;
  BAS[ATNO][  1].a[  6] =       102.190000000000;     BAS[ATNO][  1].d[  6] =        -0.081304809355;
  BAS[ATNO][  1].a[  7] =        41.525000000000;     BAS[ATNO][  1].d[  7] =        -0.079742586863;
  BAS[ATNO][  1].a[  8] =        17.202000000000;     BAS[ATNO][  1].d[  8] =        -0.022408588663;
  BAS[ATNO][  1].a[  9] =     34844.000000000000;     BAS[ATNO][  1].d[  9] =        -0.000004154465;
  BAS[ATNO][  1].a[ 10] =      7930.300000000000;     BAS[ATNO][  1].d[ 10] =        -0.000001425118;
  BAS[ATNO][  1].a[ 11] =      2245.700000000000;     BAS[ATNO][  1].d[ 11] =        -0.000279799769;
  BAS[ATNO][  1].a[ 12] =       732.220000000000;     BAS[ATNO][  1].d[ 12] =        -0.001339525805;
  BAS[ATNO][  1].a[ 13] =       263.770000000000;     BAS[ATNO][  1].d[ 13] =        -0.014428241809;
  BAS[ATNO][  1].a[ 14] =       102.190000000000;     BAS[ATNO][  1].d[ 14] =        -0.057763557558;
  BAS[ATNO][  1].a[ 15] =        41.525000000000;     BAS[ATNO][  1].d[ 15] =        -0.179177974180;
  BAS[ATNO][  1].a[ 16] =        17.202000000000;     BAS[ATNO][  1].d[ 16] =         0.070238189425;
  BAS[ATNO][  1].a[ 17] =         6.596700000000;     BAS[ATNO][  1].d[ 17] =         0.489273109637;
  BAS[ATNO][  1].a[ 18] =      7930.300000000000;     BAS[ATNO][  1].d[ 18] =        -0.000002181053;
  BAS[ATNO][  1].a[ 19] =      2245.700000000000;     BAS[ATNO][  1].d[ 19] =        -0.000027509633;
  BAS[ATNO][  1].a[ 20] =       732.220000000000;     BAS[ATNO][  1].d[ 20] =        -0.000321275123;
  BAS[ATNO][  1].a[ 21] =       263.770000000000;     BAS[ATNO][  1].d[ 21] =        -0.002400553213;
  BAS[ATNO][  1].a[ 22] =       102.190000000000;     BAS[ATNO][  1].d[ 22] =        -0.012632667137;
  BAS[ATNO][  1].a[ 23] =        41.525000000000;     BAS[ATNO][  1].d[ 23] =        -0.035075886500;
  BAS[ATNO][  1].a[ 24] =        17.202000000000;     BAS[ATNO][  1].d[ 24] =         0.002585640423;
  BAS[ATNO][  1].a[ 25] =         6.596700000000;     BAS[ATNO][  1].d[ 25] =         0.289745191697;
  BAS[ATNO][  1].a[ 26] =         2.647700000000;     BAS[ATNO][  1].d[ 26] =         0.373964522756;
  BAS[ATNO][  1].a[ 27] =         0.661930000000;     BAS[ATNO][  1].d[ 27] =        -0.095361889699;
  BAS[ATNO][  1].a[ 28] =         0.229010000000;     BAS[ATNO][  1].d[ 28] =         0.037838958837;

  // Basis function   3 L = s
  InitBFNGauss(BAS[ATNO][  2]);
  BAS[ATNO][  2].l  = 0;
  BAS[ATNO][  2].ng = 29;
  BAS[ATNO][  2].a[  0] =    232510.000000000000;     BAS[ATNO][  2].d[  0] =        -0.000004300147;
  BAS[ATNO][  2].a[  1] =     34844.000000000000;     BAS[ATNO][  2].d[  1] =        -0.000033366413;
  BAS[ATNO][  2].a[  2] =      7930.300000000000;     BAS[ATNO][  2].d[  2] =        -0.000174328019;
  BAS[ATNO][  2].a[  3] =      2245.700000000000;     BAS[ATNO][  2].d[  3] =        -0.000717924333;
  BAS[ATNO][  2].a[  4] =       732.220000000000;     BAS[ATNO][  2].d[  4] =        -0.002427781003;
  BAS[ATNO][  2].a[  5] =       263.770000000000;     BAS[ATNO][  2].d[  5] =        -0.006485332017;
  BAS[ATNO][  2].a[  6] =       102.190000000000;     BAS[ATNO][  2].d[  6] =        -0.012193421057;
  BAS[ATNO][  2].a[  7] =        41.525000000000;     BAS[ATNO][  2].d[  7] =        -0.011959131883;
  BAS[ATNO][  2].a[  8] =        17.202000000000;     BAS[ATNO][  2].d[  8] =        -0.003360654296;
  BAS[ATNO][  2].a[  9] =     34844.000000000000;     BAS[ATNO][  2].d[  9] =         0.000004330025;
  BAS[ATNO][  2].a[ 10] =      7930.300000000000;     BAS[ATNO][  2].d[ 10] =         0.000001485340;
  BAS[ATNO][  2].a[ 11] =      2245.700000000000;     BAS[ATNO][  2].d[ 11] =         0.000291623550;
  BAS[ATNO][  2].a[ 12] =       732.220000000000;     BAS[ATNO][  2].d[ 12] =         0.001396131497;
  BAS[ATNO][  2].a[ 13] =       263.770000000000;     BAS[ATNO][  2].d[ 13] =         0.015037950558;
  BAS[ATNO][  2].a[ 14] =       102.190000000000;     BAS[ATNO][  2].d[ 14] =         0.060204530399;
  BAS[ATNO][  2].a[ 15] =        41.525000000000;     BAS[ATNO][  2].d[ 15] =         0.186749678334;
  BAS[ATNO][  2].a[ 16] =        17.202000000000;     BAS[ATNO][  2].d[ 16] =        -0.073206315352;
  BAS[ATNO][  2].a[ 17] =         6.596700000000;     BAS[ATNO][  2].d[ 17] =        -0.509948816313;
  BAS[ATNO][  2].a[ 18] =      7930.300000000000;     BAS[ATNO][  2].d[ 18] =         0.000000645196;
  BAS[ATNO][  2].a[ 19] =      2245.700000000000;     BAS[ATNO][  2].d[ 19] =         0.000008137860;
  BAS[ATNO][  2].a[ 20] =       732.220000000000;     BAS[ATNO][  2].d[ 20] =         0.000095039143;
  BAS[ATNO][  2].a[ 21] =       263.770000000000;     BAS[ATNO][  2].d[ 21] =         0.000710128183;
  BAS[ATNO][  2].a[ 22] =       102.190000000000;     BAS[ATNO][  2].d[ 22] =         0.003736977342;
  BAS[ATNO][  2].a[ 23] =        41.525000000000;     BAS[ATNO][  2].d[ 23] =         0.010376098069;
  BAS[ATNO][  2].a[ 24] =        17.202000000000;     BAS[ATNO][  2].d[ 24] =        -0.000764880415;
  BAS[ATNO][  2].a[ 25] =         6.596700000000;     BAS[ATNO][  2].d[ 25] =        -0.085712004003;
  BAS[ATNO][  2].a[ 26] =         2.647700000000;     BAS[ATNO][  2].d[ 26] =        -0.110625644843;
  BAS[ATNO][  2].a[ 27] =         0.661930000000;     BAS[ATNO][  2].d[ 27] =         1.456546729969;
  BAS[ATNO][  2].a[ 28] =         0.229010000000;     BAS[ATNO][  2].d[ 28] =        -0.351573326424;

  // Basis function   4 L = s
  InitBFNGauss(BAS[ATNO][  3]);
  BAS[ATNO][  3].l  = 0;
  BAS[ATNO][  3].ng = 29;
  BAS[ATNO][  3].a[  0] =    232510.000000000000;     BAS[ATNO][  3].d[  0] =         0.000007023303;
  BAS[ATNO][  3].a[  1] =     34844.000000000000;     BAS[ATNO][  3].d[  1] =         0.000054496373;
  BAS[ATNO][  3].a[  2] =      7930.300000000000;     BAS[ATNO][  3].d[  2] =         0.000284724788;
  BAS[ATNO][  3].a[  3] =      2245.700000000000;     BAS[ATNO][  3].d[  3] =         0.001172564539;
  BAS[ATNO][  3].a[  4] =       732.220000000000;     BAS[ATNO][  3].d[  4] =         0.003965222768;
  BAS[ATNO][  3].a[  5] =       263.770000000000;     BAS[ATNO][  3].d[  5] =         0.010592300597;
  BAS[ATNO][  3].a[  6] =       102.190000000000;     BAS[ATNO][  3].d[  6] =         0.019915153273;
  BAS[ATNO][  3].a[  7] =        41.525000000000;     BAS[ATNO][  3].d[  7] =         0.019532495708;
  BAS[ATNO][  3].a[  8] =        17.202000000000;     BAS[ATNO][  3].d[  8] =         0.005488857072;
  BAS[ATNO][  3].a[  9] =     34844.000000000000;     BAS[ATNO][  3].d[  9] =        -0.000002836681;
  BAS[ATNO][  3].a[ 10] =      7930.300000000000;     BAS[ATNO][  3].d[ 10] =        -0.000000973074;
  BAS[ATNO][  3].a[ 11] =      2245.700000000000;     BAS[ATNO][  3].d[ 11] =        -0.000191048096;
  BAS[ATNO][  3].a[ 12] =       732.220000000000;     BAS[ATNO][  3].d[ 12] =        -0.000914632117;
  BAS[ATNO][  3].a[ 13] =       263.770000000000;     BAS[ATNO][  3].d[ 13] =        -0.009851645483;
  BAS[ATNO][  3].a[ 14] =       102.190000000000;     BAS[ATNO][  3].d[ 14] =        -0.039441125149;
  BAS[ATNO][  3].a[ 15] =        41.525000000000;     BAS[ATNO][  3].d[ 15] =        -0.122343242042;
  BAS[ATNO][  3].a[ 16] =        17.202000000000;     BAS[ATNO][  3].d[ 16] =         0.047958840080;
  BAS[ATNO][  3].a[ 17] =         6.596700000000;     BAS[ATNO][  3].d[ 17] =         0.334077102675;
  BAS[ATNO][  3].a[ 18] =      7930.300000000000;     BAS[ATNO][  3].d[ 18] =         0.000000302069;
  BAS[ATNO][  3].a[ 19] =      2245.700000000000;     BAS[ATNO][  3].d[ 19] =         0.000003809993;
  BAS[ATNO][  3].a[ 20] =       732.220000000000;     BAS[ATNO][  3].d[ 20] =         0.000044495543;
  BAS[ATNO][  3].a[ 21] =       263.770000000000;     BAS[ATNO][  3].d[ 21] =         0.000332468689;
  BAS[ATNO][  3].a[ 22] =       102.190000000000;     BAS[ATNO][  3].d[ 22] =         0.001749582663;
  BAS[ATNO][  3].a[ 23] =        41.525000000000;     BAS[ATNO][  3].d[ 23] =         0.004857894399;
  BAS[ATNO][  3].a[ 24] =        17.202000000000;     BAS[ATNO][  3].d[ 24] =        -0.000358102656;
  BAS[ATNO][  3].a[ 25] =         6.596700000000;     BAS[ATNO][  3].d[ 25] =        -0.040128751808;
  BAS[ATNO][  3].a[ 26] =         2.647700000000;     BAS[ATNO][  3].d[ 26] =        -0.051792850921;
  BAS[ATNO][  3].a[ 27] =         0.661930000000;     BAS[ATNO][  3].d[ 27] =        -1.356957396765;
  BAS[ATNO][  3].a[ 28] =         0.229010000000;     BAS[ATNO][  3].d[ 28] =         1.760227746596;

  // Basis function   5 L = s
  InitBFNGauss(BAS[ATNO][  4]);
  BAS[ATNO][  4].l  = 0;
  BAS[ATNO][  4].ng = 29;
  BAS[ATNO][  4].a[  0] =    232510.000000000000;     BAS[ATNO][  4].d[  0] =         0.000138827738;
  BAS[ATNO][  4].a[  1] =     34844.000000000000;     BAS[ATNO][  4].d[  1] =         0.001077215081;
  BAS[ATNO][  4].a[  2] =      7930.300000000000;     BAS[ATNO][  4].d[  2] =         0.005628077940;
  BAS[ATNO][  4].a[  3] =      2245.700000000000;     BAS[ATNO][  4].d[  3] =         0.023177766341;
  BAS[ATNO][  4].a[  4] =       732.220000000000;     BAS[ATNO][  4].d[  4] =         0.078379486827;
  BAS[ATNO][  4].a[  5] =       263.770000000000;     BAS[ATNO][  4].d[  5] =         0.209375143276;
  BAS[ATNO][  4].a[  6] =       102.190000000000;     BAS[ATNO][  4].d[  6] =         0.393657452552;
  BAS[ATNO][  4].a[  7] =        41.525000000000;     BAS[ATNO][  4].d[  7] =         0.386093563880;
  BAS[ATNO][  4].a[  8] =        17.202000000000;     BAS[ATNO][  4].d[  8] =         0.108496754354;
  BAS[ATNO][  4].a[  9] =     34844.000000000000;     BAS[ATNO][  4].d[  9] =        -0.000038117958;
  BAS[ATNO][  4].a[ 10] =      7930.300000000000;     BAS[ATNO][  4].d[ 10] =        -0.000013075707;
  BAS[ATNO][  4].a[ 11] =      2245.700000000000;     BAS[ATNO][  4].d[ 11] =        -0.002567212583;
  BAS[ATNO][  4].a[ 12] =       732.220000000000;     BAS[ATNO][  4].d[ 12] =        -0.012290387212;
  BAS[ATNO][  4].a[ 13] =       263.770000000000;     BAS[ATNO][  4].d[ 13] =        -0.132381681595;
  BAS[ATNO][  4].a[ 14] =       102.190000000000;     BAS[ATNO][  4].d[ 14] =        -0.529990901560;
  BAS[ATNO][  4].a[ 15] =        41.525000000000;     BAS[ATNO][  4].d[ 15] =        -1.643989741800;
  BAS[ATNO][  4].a[ 16] =        17.202000000000;     BAS[ATNO][  4].d[ 16] =         0.644447864903;
  BAS[ATNO][  4].a[ 17] =         6.596700000000;     BAS[ATNO][  4].d[ 17] =         4.489167694104;
  BAS[ATNO][  4].a[ 18] =      7930.300000000000;     BAS[ATNO][  4].d[ 18] =         0.000018692337;
  BAS[ATNO][  4].a[ 19] =      2245.700000000000;     BAS[ATNO][  4].d[ 19] =         0.000235766561;
  BAS[ATNO][  4].a[ 20] =       732.220000000000;     BAS[ATNO][  4].d[ 20] =         0.002753432993;
  BAS[ATNO][  4].a[ 21] =       263.770000000000;     BAS[ATNO][  4].d[ 21] =         0.020573526973;
  BAS[ATNO][  4].a[ 22] =       102.190000000000;     BAS[ATNO][  4].d[ 22] =         0.108266093268;
  BAS[ATNO][  4].a[ 23] =        41.525000000000;     BAS[ATNO][  4].d[ 23] =         0.300611831057;
  BAS[ATNO][  4].a[ 24] =        17.202000000000;     BAS[ATNO][  4].d[ 24] =        -0.022159784961;
  BAS[ATNO][  4].a[ 25] =         6.596700000000;     BAS[ATNO][  4].d[ 25] =        -2.483211154654;
  BAS[ATNO][  4].a[ 26] =         2.647700000000;     BAS[ATNO][  4].d[ 26] =        -3.204998395017;
  BAS[ATNO][  4].a[ 27] =         0.661930000000;     BAS[ATNO][  4].d[ 27] =         2.186418232348;
  BAS[ATNO][  4].a[ 28] =         0.229010000000;     BAS[ATNO][  4].d[ 28] =        -0.973397715891;

  // Basis function   6 L = p
  InitBFNGauss(BAS[ATNO][  5]);
  BAS[ATNO][  5].l  = 1;
  BAS[ATNO][  5].ng = 16;
  BAS[ATNO][  5].a[  0] =      1297.700000000000;     BAS[ATNO][  5].d[  0] =         0.001037610765;
  BAS[ATNO][  5].a[  1] =       307.860000000000;     BAS[ATNO][  5].d[  1] =         0.008661781057;
  BAS[ATNO][  5].a[  2] =        99.096000000000;     BAS[ATNO][  5].d[  2] =         0.044310910806;
  BAS[ATNO][  5].a[  3] =        36.837000000000;     BAS[ATNO][  5].d[  3] =         0.150936404429;
  BAS[ATNO][  5].a[  4] =        15.027000000000;     BAS[ATNO][  5].d[  4] =         0.337785032613;
  BAS[ATNO][  5].a[  5] =         6.366200000000;     BAS[ATNO][  5].d[  5] =         0.456123289799;
  BAS[ATNO][  5].a[  6] =         2.711000000000;     BAS[ATNO][  5].d[  6] =         0.273795036035;
  BAS[ATNO][  5].a[  7] =       307.860000000000;     BAS[ATNO][  5].d[  7] =         0.000007639792;
  BAS[ATNO][  5].a[  8] =        99.096000000000;     BAS[ATNO][  5].d[  8] =         0.000113663985;
  BAS[ATNO][  5].a[  9] =        36.837000000000;     BAS[ATNO][  5].d[  9] =         0.001076341442;
  BAS[ATNO][  5].a[ 10] =        15.027000000000;     BAS[ATNO][  5].d[ 10] =         0.004961562389;
  BAS[ATNO][  5].a[ 11] =         6.366200000000;     BAS[ATNO][  5].d[ 11] =         0.011347418602;
  BAS[ATNO][  5].a[ 12] =         2.711000000000;     BAS[ATNO][  5].d[ 12] =        -0.025690662462;
  BAS[ATNO][  5].a[ 13] =         1.018200000000;     BAS[ATNO][  5].d[ 13] =        -0.216634837532;
  BAS[ATNO][  5].a[ 14] =         0.382740000000;     BAS[ATNO][  5].d[ 14] =         0.127822415471;
  BAS[ATNO][  5].a[ 15] =         0.129460000000;     BAS[ATNO][  5].d[ 15] =        -0.041336863501;

  // Basis function   7 L = p
  InitBFNGauss(BAS[ATNO][  6]);
  BAS[ATNO][  6].l  = 1;
  BAS[ATNO][  6].ng = 16;
  BAS[ATNO][  6].a[  0] =      1297.700000000000;     BAS[ATNO][  6].d[  0] =        -0.000344830836;
  BAS[ATNO][  6].a[  1] =       307.860000000000;     BAS[ATNO][  6].d[  1] =        -0.002878583472;
  BAS[ATNO][  6].a[  2] =        99.096000000000;     BAS[ATNO][  6].d[  2] =        -0.014725915450;
  BAS[ATNO][  6].a[  3] =        36.837000000000;     BAS[ATNO][  6].d[  3] =        -0.050160935296;
  BAS[ATNO][  6].a[  4] =        15.027000000000;     BAS[ATNO][  6].d[  4] =        -0.112256637020;
  BAS[ATNO][  6].a[  5] =         6.366200000000;     BAS[ATNO][  6].d[  5] =        -0.151584178206;
  BAS[ATNO][  6].a[  6] =         2.711000000000;     BAS[ATNO][  6].d[  6] =        -0.090990739703;
  BAS[ATNO][  6].a[  7] =       307.860000000000;     BAS[ATNO][  6].d[  7] =        -0.000044721639;
  BAS[ATNO][  6].a[  8] =        99.096000000000;     BAS[ATNO][  6].d[  8] =        -0.000665363672;
  BAS[ATNO][  6].a[  9] =        36.837000000000;     BAS[ATNO][  6].d[  9] =        -0.006300663286;
  BAS[ATNO][  6].a[ 10] =        15.027000000000;     BAS[ATNO][  6].d[ 10] =        -0.029043882136;
  BAS[ATNO][  6].a[ 11] =         6.366200000000;     BAS[ATNO][  6].d[ 11] =        -0.066425263370;
  BAS[ATNO][  6].a[ 12] =         2.711000000000;     BAS[ATNO][  6].d[ 12] =         0.150387421144;
  BAS[ATNO][  6].a[ 13] =         1.018200000000;     BAS[ATNO][  6].d[ 13] =         1.268132131461;
  BAS[ATNO][  6].a[ 14] =         0.382740000000;     BAS[ATNO][  6].d[ 14] =        -0.411841853593;
  BAS[ATNO][  6].a[ 15] =         0.129460000000;     BAS[ATNO][  6].d[ 15] =         0.123088444650;

  // Basis function   8 L = p
  InitBFNGauss(BAS[ATNO][  7]);
  BAS[ATNO][  7].l  = 1;
  BAS[ATNO][  7].ng = 16;
  BAS[ATNO][  7].a[  0] =      1297.700000000000;     BAS[ATNO][  7].d[  0] =         0.000120830953;
  BAS[ATNO][  7].a[  1] =       307.860000000000;     BAS[ATNO][  7].d[  1] =         0.001008674249;
  BAS[ATNO][  7].a[  2] =        99.096000000000;     BAS[ATNO][  7].d[  2] =         0.005160055927;
  BAS[ATNO][  7].a[  3] =        36.837000000000;     BAS[ATNO][  7].d[  3] =         0.017576715849;
  BAS[ATNO][  7].a[  4] =        15.027000000000;     BAS[ATNO][  7].d[  4] =         0.039335450972;
  BAS[ATNO][  7].a[  5] =         6.366200000000;     BAS[ATNO][  7].d[  5] =         0.053116075523;
  BAS[ATNO][  7].a[  6] =         2.711000000000;     BAS[ATNO][  7].d[  6] =         0.031883743139;
  BAS[ATNO][  7].a[  7] =       307.860000000000;     BAS[ATNO][  7].d[  7] =         0.000035043204;
  BAS[ATNO][  7].a[  8] =        99.096000000000;     BAS[ATNO][  7].d[  8] =         0.000521368969;
  BAS[ATNO][  7].a[  9] =        36.837000000000;     BAS[ATNO][  7].d[  9] =         0.004937105017;
  BAS[ATNO][  7].a[ 10] =        15.027000000000;     BAS[ATNO][  7].d[ 10] =         0.022758349350;
  BAS[ATNO][  7].a[ 11] =         6.366200000000;     BAS[ATNO][  7].d[ 11] =         0.052049837634;
  BAS[ATNO][  7].a[ 12] =         2.711000000000;     BAS[ATNO][  7].d[ 12] =        -0.117841322045;
  BAS[ATNO][  7].a[ 13] =         1.018200000000;     BAS[ATNO][  7].d[ 13] =        -0.993689271100;
  BAS[ATNO][  7].a[ 14] =         0.382740000000;     BAS[ATNO][  7].d[ 14] =         1.701845822390;
  BAS[ATNO][  7].a[ 15] =         0.129460000000;     BAS[ATNO][  7].d[ 15] =        -0.229375507080;

  // Basis function   9 L = p
  InitBFNGauss(BAS[ATNO][  8]);
  BAS[ATNO][  8].l  = 1;
  BAS[ATNO][  8].ng = 16;
  BAS[ATNO][  8].a[  0] =      1297.700000000000;     BAS[ATNO][  8].d[  0] =        -0.000044502466;
  BAS[ATNO][  8].a[  1] =       307.860000000000;     BAS[ATNO][  8].d[  1] =        -0.000371498285;
  BAS[ATNO][  8].a[  2] =        99.096000000000;     BAS[ATNO][  8].d[  2] =        -0.001900466805;
  BAS[ATNO][  8].a[  3] =        36.837000000000;     BAS[ATNO][  8].d[  3] =        -0.006473566465;
  BAS[ATNO][  8].a[  4] =        15.027000000000;     BAS[ATNO][  8].d[  4] =        -0.014487385385;
  BAS[ATNO][  8].a[  5] =         6.366200000000;     BAS[ATNO][  8].d[  5] =        -0.019562838031;
  BAS[ATNO][  8].a[  6] =         2.711000000000;     BAS[ATNO][  8].d[  6] =        -0.011742895098;
  BAS[ATNO][  8].a[  7] =       307.860000000000;     BAS[ATNO][  8].d[  7] =        -0.000017394305;
  BAS[ATNO][  8].a[  8] =        99.096000000000;     BAS[ATNO][  8].d[  8] =        -0.000258790573;
  BAS[ATNO][  8].a[  9] =        36.837000000000;     BAS[ATNO][  8].d[  9] =        -0.002450618106;
  BAS[ATNO][  8].a[ 10] =        15.027000000000;     BAS[ATNO][  8].d[ 10] =        -0.011296503271;
  BAS[ATNO][  8].a[ 11] =         6.366200000000;     BAS[ATNO][  8].d[ 11] =        -0.025835843895;
  BAS[ATNO][  8].a[ 12] =         2.711000000000;     BAS[ATNO][  8].d[ 12] =         0.058492593620;
  BAS[ATNO][  8].a[ 13] =         1.018200000000;     BAS[ATNO][  8].d[ 13] =         0.493234985064;
  BAS[ATNO][  8].a[ 14] =         0.382740000000;     BAS[ATNO][  8].d[ 14] =        -1.397975335275;
  BAS[ATNO][  8].a[ 15] =         0.129460000000;     BAS[ATNO][  8].d[ 15] =         1.548770833850;

  // Basis function  10 L = d
  InitBFNGauss(BAS[ATNO][  9]);
  BAS[ATNO][  9].l  = 2;
  BAS[ATNO][  9].ng = 2;
  BAS[ATNO][  9].a[  0] =         2.520000000000;     BAS[ATNO][  9].d[  0] =         0.967811747070;
  BAS[ATNO][  9].a[  1] =         0.570000000000;     BAS[ATNO][  9].d[  1] =         0.072913061660;

  // Basis function  11 L = d
  InitBFNGauss(BAS[ATNO][ 10]);
  BAS[ATNO][ 10].l  = 2;
  BAS[ATNO][ 10].ng = 2;
  BAS[ATNO][ 10].a[  0] =         2.520000000000;     BAS[ATNO][ 10].d[  0] =        -0.516482043476;
  BAS[ATNO][ 10].a[  1] =         0.570000000000;     BAS[ATNO][ 10].d[  1] =         1.094576157442;

  // Basis function  12 L = f
  InitBFNGauss(BAS[ATNO][ 11]);
  BAS[ATNO][ 11].l  = 3;
  BAS[ATNO][ 11].ng = 1;
  BAS[ATNO][ 11].a[  0] =         0.780000000000;     BAS[ATNO][ 11].d[  0] =         1.000000000000;

-------
TIMINGS
-------

Total SCF time: 0 days 0 hours 0 min 1 sec 

Total time                  ....       1.318 sec
Sum of individual times     ....       1.128 sec  ( 85.5%)

Fock matrix formation       ....       0.662 sec  ( 50.2%)
  XC integration            ....       0.013 sec  (  2.0% of F)
    Basis function eval.    ....       0.003 sec  ( 20.0% of XC)
    Density eval.           ....       0.001 sec  (  6.5% of XC)
    XC-Functional eval.     ....       0.001 sec  (  8.9% of XC)
    XC-Potential eval.      ....       0.001 sec  (  4.8% of XC)
Diagonalization             ....       0.000 sec  (  0.0%)
Density matrix formation    ....       0.000 sec  (  0.0%)
Population analysis         ....       0.001 sec  (  0.0%)
Initial guess               ....       0.094 sec  (  7.1%)
Orbital Transformation      ....       0.000 sec  (  0.0%)
Orbital Orthonormalization  ....       0.000 sec  (  0.0%)
DIIS solution               ....       0.000 sec  (  0.0%)
SOSCF solution              ....       0.000 sec  (  0.0%)
Grid generation             ....       0.370 sec  ( 28.1%)

-------------------------   --------------------
FINAL SINGLE POINT ENERGY      -311.531608489974
-------------------------   --------------------


                            ***************************************
                            *     ORCA property calculations      *
                            ***************************************

                                    ---------------------
                                    Active property flags
                                    ---------------------
   (+) Dipole Moment


------------------------------------------------------------------------------
                       ORCA ELECTRIC PROPERTIES CALCULATION
------------------------------------------------------------------------------

Dipole Moment Calculation                       ... on
Quadrupole Moment Calculation                   ... off
Polarizability Calculation                      ... off
GBWName                                         ... Ar_pc-2_4385.151648_.gbw
Electron density file                           ... Ar_pc-2_4385.151648_.scfp
The origin for moment calculation is the CENTER OF MASS  = ( 0.000000,  0.000000  0.000000)

-------------
DIPOLE MOMENT
-------------
                                X             Y             Z
Electronic contribution:      0.00000      -0.00000       0.00000
Nuclear contribution   :      0.00000       0.00000       0.00000
                        -----------------------------------------
Total Dipole Moment    :      0.00000      -0.00000       0.00000
                        -----------------------------------------
Magnitude (a.u.)       :      0.00000
Magnitude (Debye)      :      0.00000



--------------------
Rotational spectrum 
--------------------
 
Rotational constants in cm-1:     0.000000     0.000000     0.000000 
Rotational constants in MHz :     0.000000     0.000000     0.000000 

 Dipole components along the rotational axes: 
x,y,z [a.u.] :     0.000000    -0.000000     0.000000 
x,y,z [Debye]:     0.000000    -0.000000     0.000000 

 

Timings for individual modules:

Sum of individual times         ...        2.462 sec (=   0.041 min)
GTO integral calculation        ...        0.506 sec (=   0.008 min)  20.5 %
Relativistic integrals          ...        0.388 sec (=   0.006 min)  15.8 %
SCF iterations                  ...        1.568 sec (=   0.026 min)  63.7 %
                             ****ORCA TERMINATED NORMALLY****
TOTAL RUN TIME: 0 days 0 hours 0 minutes 2 seconds 781 msec
