
                                 *****************
                                 * O   R   C   A *
                                 *****************

           --- An Ab Initio, DFT and Semiempirical electronic structure package ---

                  #######################################################
                  #                        -***-                        #
                  #          Department of theory and spectroscopy      #
                  #               Directorship: Frank Neese             #
                  #        Max Planck Institute fuer Kohlenforschung    #
                  #                Kaiser Wilhelm Platz 1               #
                  #                 D-45470 Muelheim/Ruhr               #
                  #                      Germany                        #
                  #                                                     #
                  #                  All rights reserved                #
                  #                        -***-                        #
                  #######################################################


                         Program Version 4.2.1 -  RELEASE  -


 With contributions from (in alphabetic order):
   Daniel Aravena         : Magnetic Suceptibility
   Michael Atanasov       : Ab Initio Ligand Field Theory (pilot matlab implementation)
   Alexander A. Auer      : GIAO ZORA, VPT2
   Ute Becker             : Parallelization
   Giovanni Bistoni       : ED, misc. LED, open-shell LED, HFLD
   Martin Brehm           : Molecular dynamics
   Dmytro Bykov           : SCF Hessian
   Vijay G. Chilkuri      : MRCI spin determinant printing, contributions to CSF-ICE
   Dipayan Datta          : RHF DLPNO-CCSD density
   Achintya Kumar Dutta   : EOM-CC, STEOM-CC
   Dmitry Ganyushin       : Spin-Orbit,Spin-Spin,Magnetic field MRCI
   Miquel Garcia          : C-PCM Hessian, Gaussian charge scheme
   Yang Guo               : DLPNO-NEVPT2, CIM, IAO-localization
   Andreas Hansen         : Spin unrestricted coupled pair/coupled cluster methods
   Benjamin Helmich-Paris : CASSCF linear response (MC-RPA)
   Lee Huntington         : MR-EOM, pCC
   Robert Izsak           : Overlap fitted RIJCOSX, COSX-SCS-MP3, EOM
   Christian Kollmar      : KDIIS, OOCD, Brueckner-CCSD(T), CCSD density
   Simone Kossmann        : Meta GGA functionals, TD-DFT gradient, OOMP2, MP2 Hessian
   Martin Krupicka        : AUTO-CI
   Lucas Lang             : DCDCAS
   Dagmar Lenk            : GEPOL surface, SMD
   Dimitrios Liakos       : Extrapolation schemes; Compound Job, initial MDCI parallelization
   Dimitrios Manganas     : Further ROCIS development; embedding schemes
   Dimitrios Pantazis     : SARC Basis sets
   Taras Petrenko         : DFT Hessian,TD-DFT gradient, ASA, ECA, R-Raman, ABS, FL, XAS/XES, NRVS
   Peter Pinski           : DLPNO-MP2, DLPNO-MP2 Gradient
   Christoph Reimann      : Effective Core Potentials
   Marius Retegan         : Local ZFS, SOC
   Christoph Riplinger    : Optimizer, TS searches, QM/MM, DLPNO-CCSD(T), (RO)-DLPNO pert. Triples
   Tobias Risthaus        : Range-separated hybrids, TD-DFT gradient, RPA, STAB
   Michael Roemelt        : Original ROCIS implementation
   Masaaki Saitow         : Open-shell DLPNO-CCSD energy and density
   Barbara Sandhoefer     : DKH picture change effects
   Avijit Sen             : IP-ROCIS
   Kantharuban Sivalingam : CASSCF convergence, NEVPT2, FIC-MRCI
   Bernardo de Souza      : ESD, SOC TD-DFT
   Georgi Stoychev        : AutoAux, RI-MP2 NMR
   Willem Van den Heuvel  : Paramagnetic NMR
   Boris Wezisla          : Elementary symmetry handling
   Frank Wennmohs         : Technical directorship


 We gratefully acknowledge several colleagues who have allowed us to
 interface, adapt or use parts of their codes:
   Stefan Grimme, W. Hujo, H. Kruse,             : VdW corrections, initial TS optimization,
                  C. Bannwarth                     DFT functionals, gCP, sTDA/sTD-DF
   Ed Valeev, F. Pavosevic, A. Kumar             : LibInt (2-el integral package), F12 methods
   Garnet Chan, S. Sharma, J. Yang, R. Olivares  : DMRG
   Ulf Ekstrom                                   : XCFun DFT Library
   Mihaly Kallay                                 : mrcc  (arbitrary order and MRCC methods)
   Andreas Klamt, Michael Diedenhofen            : otool_cosmo (COSMO solvation model)
   Jiri Pittner, Ondrej Demel                    : Mk-CCSD
   Frank Weinhold                                : gennbo (NPA and NBO analysis)
   Christopher J. Cramer and Donald G. Truhlar   : smd solvation model
   Lars Goerigk                                  : TD-DFT with DH, B97 family of functionals
   V. Asgeirsson, H. Jonsson                     : NEB implementation
   FAccTs GmbH                                   : IRC, NEB, NEB-TS, Multilevel, MM, QM/MM, CI optimization
   S Lehtola, MJT Oliveira, MAL Marques          : LibXC Library


 Your calculation uses the libint2 library for the computation of 2-el integrals
 For citations please refer to: http://libint.valeyev.net

 Your ORCA version has been built with support for libXC version: 4.2.3
 For citations please refer to: https://tddft.org/programs/libxc/

 This ORCA versions uses:
   CBLAS   interface :  Fast vector & matrix operations
   LAPACKE interface :  Fast linear algebra routines
   SCALAPACK package :  Parallel linear algebra routines


----- Orbital basis set information -----
Your calculation utilizes the basis: pc-4
   H, C-F              : F. Jensen, J. Chem. Phys. 115, 9113 (2001).
                         F. Jensen, J. Chem. Phys. 116, 7372 (2002).
                         F. Jensen, J. Chem. Phys. 117, 9234 (2002).
   Si-Cl               : F. Jensen, T. Helgaker, J. Chem. Phys. 121, 3463 (2004).
   He-B, Ne-Mg, Al, Ar : F. Jensen, J. Phys. Chem. A 111, 11198 (2007).
   K, Ca, Ga-Kr        : F. Jensen, J. Chem. Phys. 136, 094110 (2012).
   Sc-Zn               : F. Jensen, J. Chem. Phys. 138, 014107 (2013).

================================================================================
                                        WARNINGS
                       Please study these warnings very carefully!
================================================================================


INFO   : the flag for use of LIBINT has been found!

================================================================================
                                       INPUT FILE
================================================================================
NAME = Ar_pc-4_548.143956_.inp
|  1> ! LDA pc-4 nori grid5 finalgrid6 verytightscf
|  2> %Pal NProcs 18 End
|  3> 
|  4> % REL
|  5>   Method ZORA
|  6>   ModelPot 1, 0, 0, 0
|  7>   velit 548.143956
|  8> END
|  9> 
| 10> *xyz 16 1
| 11> Ar 0.0 0.0 0.0
| 12> **                         ****END OF INPUT****
================================================================================

                       ****************************
                       * Single Point Calculation *
                       ****************************

---------------------------------
CARTESIAN COORDINATES (ANGSTROEM)
---------------------------------
  Ar     0.000000    0.000000    0.000000

----------------------------
CARTESIAN COORDINATES (A.U.)
----------------------------
  NO LB      ZA    FRAG     MASS         X           Y           Z
   0 Ar   18.0000    0    39.948    0.000000    0.000000    0.000000

--------------------------------
INTERNAL COORDINATES (ANGSTROEM)
--------------------------------
 Ar     0   0   0     0.000000000000     0.00000000     0.00000000

---------------------------
INTERNAL COORDINATES (A.U.)
---------------------------
 Ar     0   0   0     0.000000000000     0.00000000     0.00000000

---------------------
BASIS SET INFORMATION
---------------------
There are 1 groups of distinct atoms

 Group   1 Type Ar  : 43s26p6d3f2g1h contracted to 7s6p6d3f2g1h pattern {1512121111/11111111/111111/111/11/1}

Atom   0Ar   basis set group =>   1


           ************************************************************
           *        Program running with 18 parallel MPI-processes    *
           *              working on a common directory               *
           ************************************************************
------------------------------------------------------------------------------
                           ORCA GTO INTEGRAL CALCULATION
------------------------------------------------------------------------------

                         BASIS SET STATISTICS AND STARTUP INFO

 # of primitive gaussian shells          ...   81
 # of primitive gaussian functions       ...  201
 # of contracted shells                  ...   25
 # of contracted basis functions         ...  105
 Highest angular momentum                ...    5
 Maximum contraction depth               ...   15
 Integral package used                   ... LIBINT
 Integral threshhold            Thresh   ...  1.000e-12
 Primitive cut-off              TCut     ...  1.000e-14


------------------------------ INTEGRAL EVALUATION ----------------------------


 * One electron integrals 
 Pre-screening matrix                    ... done
 Shell pair data                         ... done (   0.000 sec)



           ************************************************************
           *        Program running with 18 parallel MPI-processes    *
           *              working on a common directory               *
           ************************************************************
------------------------------------------------------------------------------
                          ORCA RELATIVISTIC HAMILTONIAN
------------------------------------------------------------------------------

Relativistic Method            ... ZORA(MP)
Treatment of potential         ... Van Wuellen
Nucleus model                  ... Point Nucleus
Speed of light used            ... 548.14395600000000


            *************************************************
            *         ZERO ORDER REGULAR APPROXIMATION      *
            *                     ZORA(MP)                  *
            *            Programmed by FN according to      *
            *                   C. van Wuellen              *
            *       J. Chem. Phys. (1998) vol 109, 392-399  *
            *************************************************

Terms included in model potential: +V(e,N)
Basis function cutoff value   ... 1.000000e-12
Loading the fitted atomic densities  (DKH4)  ... done
Calculating the cutoffs                      ... done
Number of fit functions                      ... 15
Setting up the integration grid ... done


           ************************************************************
           *        Program running with 18 parallel MPI-processes    *
           *              working on a common directory               *
           ************************************************************
-------------------------------------------------------------------------------
                                 ORCA SCF
-------------------------------------------------------------------------------

------------
SCF SETTINGS
------------
Hamiltonian:
 Density Functional     Method          .... DFT(GTOs)
 Exchange Functional    Exchange        .... Slater
   X-Alpha parameter    XAlpha          ....  0.666667
 Correlation Functional Correlation     .... VWN-5
 Gradients option       PostSCFGGA      .... off
   Density functional embedding theory  .... OFF

Relativistic Settings:
 Scalar relativistic method             .... ZORA
 Speed of light used       Velit        ....       548.143956
Orbital energies will be scaled


General Settings:
 Integral files         IntName         .... Ar_pc-4_548.143956_
 Hartree-Fock type      HFTyp           .... RHF
 Total Charge           Charge          ....   16
 Multiplicity           Mult            ....    1
 Number of Electrons    NEL             ....    2
 Basis Dimension        Dim             ....  105
 Nuclear Repulsion      ENuc            ....      0.0000000000 Eh

Convergence Acceleration:
 DIIS                   CNVDIIS         .... on
   Start iteration      DIISMaxIt       ....    12
   Startup error        DIISStart       ....  0.200000
   # of expansion vecs  DIISMaxEq       ....     5
   Bias factor          DIISBfac        ....   1.050
   Max. coefficient     DIISMaxC        ....  10.000
 Newton-Raphson         CNVNR           .... off
 SOSCF                  CNVSOSCF        .... on
   Start iteration      SOSCFMaxIt      ....   150
   Startup grad/error   SOSCFStart      ....  0.003300
 Level Shifting         CNVShift        .... on
   Level shift para.    LevelShift      ....    0.2500
   Turn off err/grad.   ShiftErr        ....    0.0010
 Zerner damping         CNVZerner       .... off
 Static damping         CNVDamp         .... on
   Fraction old density DampFac         ....    0.7000
   Max. Damping (<1)    DampMax         ....    0.9800
   Min. Damping (>=0)   DampMin         ....    0.0000
   Turn off err/grad.   DampErr         ....    0.1000
 Fernandez-Rico         CNVRico         .... off

SCF Procedure:
 Maximum # iterations   MaxIter         ....   125
 SCF integral mode      SCFMode         .... Direct
   Integral package                     .... LIBINT
 Reset frequency        DirectResetFreq ....    20
 Integral Threshold     Thresh          ....  1.000e-12 Eh
 Primitive CutOff       TCut            ....  1.000e-14 Eh

Convergence Tolerance:
 Convergence Check Mode ConvCheckMode   .... Total+1el-Energy
 Convergence forced     ConvForced      .... 0
 Energy Change          TolE            ....  1.000e-09 Eh
 1-El. energy change                    ....  1.000e-06 Eh
 Orbital Gradient       TolG            ....  2.000e-06
 Orbital Rotation angle TolX            ....  2.000e-06
 DIIS Error             TolErr          ....  1.000e-08


Diagonalization of the overlap matrix:
Smallest eigenvalue                        ... 6.886e-04
Time for diagonalization                   ...    0.002 sec
Threshold for overlap eigenvalues          ... 1.000e-08
Number of eigenvalues below threshold      ... 0
Time for construction of square roots      ...    0.001 sec
Total time needed                          ...    0.003 sec

-------------------
DFT GRID GENERATION
-------------------

General Integration Accuracy     IntAcc      ...  5.010
Radial Grid Type                 RadialGrid  ... Gauss-Chebyshev
Angular Grid (max. acc.)         AngularGrid ... Lebedev-434
Angular grid pruning method      GridPruning ... 3 (G Style)
Weight generation scheme         WeightScheme... Becke
Basis function cutoff            BFCut       ...    1.0000e-12
Integration weight cutoff        WCut        ...    1.0000e-14
Grids for H and He will be reduced by one unit

# of grid points (after initial pruning)     ...  11992 (   0.0 sec)
# of grid points (after weights+screening)   ...  11992 (   0.0 sec)
Grid point division into batches done        ...    0.1 sec
Reduced shell lists constructed in    0.1 sec

Total number of grid points                  ...    11992
Total number of batches                      ...      188
Average number of points per batch           ...       63
Average number of grid points per atom       ...    11992
Average number of shells per batch           ...     1.75 ( 7.00%)
Average number of basis functions per batch  ...     5.25 ( 5.00%)
Average number of large shells per batch     ...     0.92 (52.38%)
Average number of large basis fcns per batch ...     2.75 (52.38%)
Maximum spatial batch extension              ...  18.71, 18.71, 18.71 au
Average spatial batch extension              ...   0.97,  0.98,  0.97 au

Time for grid setup =    0.154 sec

------------------------------
INITIAL GUESS: MODEL POTENTIAL
------------------------------
Loading ZORA relativistic densities                ... done
Calculating cut-offs                               ... done
Setting up the integral package                    ... done
Initializing the effective Hamiltonian             ... done
Starting the Coulomb interaction                   ... done (   0.0 sec)
Reading the grid                                   ... done
Mapping shells                                     ... done
Starting the XC term evaluation                    ... done (   0.0 sec)
  promolecular density results
     # of electrons  =     18.000000116
     EX              =    -28.047870263
     EC              =     -1.433252902
     EX+EC           =    -29.481123164
Transforming the Hamiltonian                       ... done (   0.0 sec)
Diagonalizing the Hamiltonian                      ... done (   0.0 sec)
Back transforming the eigenvectors                 ... done (   0.0 sec)
Now organizing SCF variables                       ... done
                      ------------------
                      INITIAL GUESS DONE (   0.2 sec)
                      ------------------
--------------
SCF ITERATIONS
--------------
ITER       Energy         Delta-E        Max-DP      RMS-DP      [F,P]     Damp
               ***  Starting incremental Fock matrix formation  ***
  0   -311.6729614406   0.000000000000 0.02100337  0.00025448  2.0669063 0.7000
                      *** Initiating the SOSCF procedure ***
                      *** Re-Reading the Fockian *** 
                      *** Removing any level shift *** 
ITER      Energy       Delta-E        Grad      Rot      Max-DP    RMS-DP
  1   -311.67989251  -0.0069310655  0.000925  0.000925  0.049220  0.000597
               *** Restarting incremental Fock matrix formation ***
  2   -311.69595108  -0.0160585713  0.005298  0.000047  0.000522  0.000008
  3   -311.69595169  -0.0000006141  0.000040  0.000000  0.000004  0.000000
                 **** Energy Check signals convergence ****
              ***Rediagonalizing the Fockian in SOSCF/NRSCF***

               *****************************************************
               *                     SUCCESS                       *
               *           SCF CONVERGED AFTER   4 CYCLES          *
               *****************************************************

Setting up the final grid:

General Integration Accuracy     IntAcc      ...  5.340
Radial Grid Type                 RadialGrid  ... Gauss-Chebyshev
Angular Grid (max. acc.)         AngularGrid ... Lebedev-590
Angular grid pruning method      GridPruning ... 3 (G Style)
Weight generation scheme         WeightScheme... Becke
Basis function cutoff            BFCut       ...    1.0000e-12
Integration weight cutoff        WCut        ...    1.0000e-14
Grids for H and He will be reduced by one unit

# of grid points (after initial pruning)     ...  18110 (   0.0 sec)
# of grid points (after weights+screening)   ...  18110 (   0.0 sec)
Grid point division into batches done        ...    0.2 sec
Reduced shell lists constructed in    0.2 sec

Total number of grid points                  ...    18110
Total number of batches                      ...      283
Average number of points per batch           ...       63
Average number of grid points per atom       ...    18110
Average number of shells per batch           ...     0.59 ( 2.35%)
Average number of basis functions per batch  ...     1.76 ( 1.68%)
Average number of large shells per batch     ...     0.59 (100.00%)
Average number of large basis fcns per batch ...     1.76 (100.00%)
Maximum spatial batch extension              ...  19.03, 19.03, 19.03 au
Average spatial batch extension              ...   0.84,  0.84,  0.80 au

Final grid set up in    0.3 sec
Final integration                            ... done (   0.0 sec)
Change in XC energy                          ...    -0.000009175
Integrated number of electrons               ...     1.999999894
Previous integrated no of electrons          ...     1.999999729

----------------
TOTAL SCF ENERGY
----------------

Total Energy       :         -311.69596087 Eh           -8481.67830 eV

Components:
Nuclear Repulsion  :            0.00000000 Eh               0.00000 eV
Electronic Energy  :         -311.69596087 Eh           -8481.67830 eV
One Electron Energy:         -323.97652312 Eh           -8815.84938 eV
Two Electron Energy:           12.28056225 Eh             334.17109 eV

Virial components:
Potential Energy   :         -621.33339450 Eh          -16907.34122 eV
Kinetic Energy     :          309.63743364 Eh            8425.66292 eV
Virial Ratio       :            2.00664819


DFT components:
N(Alpha)           :        0.999999946916 electrons
N(Beta)            :        0.999999946916 electrons
N(Total)           :        1.999999893831 electrons
E(X)               :       -9.407353791402 Eh       
E(C)               :       -0.236746786842 Eh       
E(XC)              :       -9.644100578244 Eh       
DFET-embed. en.    :        0.000000000000 Eh       

---------------
SCF CONVERGENCE
---------------

  Last Energy change         ...   -3.4731e-11  Tolerance :   1.0000e-09
  Last MAX-Density change    ...    0.0000e+00  Tolerance :   1.0000e-08
  Last RMS-Density change    ...    0.0000e+00  Tolerance :   1.0000e-09
  Last Orbital Gradient      ...    2.8107e-10  Tolerance :   2.0000e-06
  Last Orbital Rotation      ...    0.0000e+00  Tolerance :   2.0000e-06

================================================================================
                                        WARNING
Number of found core electrons (2) does not match given number of chemical core electrons (10)
================================================================================
             **** THE GBW FILE WAS UPDATED (Ar_pc-4_548.143956_.gbw) ****
             **** DENSITY FILE WAS UPDATED (Ar_pc-4_548.143956_.scfp) ****
             **** ENERGY FILE WAS UPDATED (Ar_pc-4_548.143956_.en.tmp) ****
             **** THE GBW FILE WAS UPDATED (Ar_pc-4_548.143956_.gbw) ****
             **** DENSITY FILE WAS UPDATED (Ar_pc-4_548.143956_.scfp) ****
----------------
ORBITAL ENERGIES
----------------

  NO   OCC          E(Eh)            E(eV) 
   0   2.0000    -146.463085     -3985.4631 
   1   0.0000     -33.947017      -923.7453 
   2   0.0000     -32.951971      -896.6687 
   3   0.0000     -32.951971      -896.6687 
   4   0.0000     -32.951971      -896.6687 
   5   0.0000     -14.477464      -393.9518 
   6   0.0000     -14.315746      -389.5512 
   7   0.0000     -14.315746      -389.5512 
   8   0.0000     -14.315746      -389.5512 
   9   0.0000     -14.315746      -389.5512 
  10   0.0000     -14.315746      -389.5512 
  11   0.0000     -14.006020      -381.1232 
  12   0.0000     -14.006020      -381.1232 
  13   0.0000     -14.006020      -381.1232 
  14   0.0000      -8.020036      -218.2363 
  15   0.0000      -8.020036      -218.2363 
  16   0.0000      -8.020036      -218.2363 
  17   0.0000      -8.020036      -218.2363 
  18   0.0000      -8.020036      -218.2363 
  19   0.0000      -7.981158      -217.1783 
  20   0.0000      -7.798253      -212.2013 
  21   0.0000      -7.798253      -212.2013 
  22   0.0000      -7.798253      -212.2013 
  23   0.0000      -7.798253      -212.2013 
  24   0.0000      -7.798253      -212.2013 
  25   0.0000      -7.798253      -212.2013 
  26   0.0000      -7.798253      -212.2013 
  27   0.0000      -7.731033      -210.3721 
  28   0.0000      -7.731033      -210.3721 
  29   0.0000      -7.731033      -210.3721 
  30   0.0000      -5.105476      -138.9271 
  31   0.0000      -5.105476      -138.9271 
  32   0.0000      -5.105476      -138.9271 
  33   0.0000      -5.105476      -138.9271 
  34   0.0000      -5.105476      -138.9271 
  35   0.0000      -5.089335      -138.4878 
  36   0.0000      -5.089335      -138.4878 
  37   0.0000      -5.089335      -138.4878 
  38   0.0000      -5.089335      -138.4878 
  39   0.0000      -5.089335      -138.4878 
  40   0.0000      -5.089335      -138.4878 
  41   0.0000      -5.089335      -138.4878 
  42   0.0000      -5.089335      -138.4878 
  43   0.0000      -5.089335      -138.4878 
  44   0.0000      -5.062938      -137.7695 
  45   0.0000      -4.931443      -134.1914 
  46   0.0000      -4.931443      -134.1914 
  47   0.0000      -4.931443      -134.1914 
  48   0.0000      -4.931443      -134.1914 
  49   0.0000      -4.931443      -134.1914 
  50   0.0000      -4.931443      -134.1914 
  51   0.0000      -4.931443      -134.1914 
  52   0.0000      -4.926210      -134.0490 
  53   0.0000      -4.926210      -134.0490 
  54   0.0000      -4.926210      -134.0490 
  55   0.0000      -3.500148       -95.2439 
  56   0.0000      -3.500148       -95.2439 
  57   0.0000      -3.500148       -95.2439 
  58   0.0000      -3.500148       -95.2439 
  59   0.0000      -3.500148       -95.2439 
  60   0.0000      -3.479074       -94.6704 
  61   0.0000      -3.419712       -93.0551 
  62   0.0000      -3.419712       -93.0551 
  63   0.0000      -3.419712       -93.0551 
  64   0.0000      -2.704775       -73.6007 
  65   0.0000      -2.704775       -73.6007 
  66   0.0000      -2.704775       -73.6007 
  67   0.0000      -2.704775       -73.6007 
  68   0.0000      -2.704775       -73.6007 
  69   0.0000      -2.704775       -73.6007 
  70   0.0000      -2.704775       -73.6007 
  71   0.0000      -2.704775       -73.6007 
  72   0.0000      -2.704775       -73.6007 
  73   0.0000      -2.704775       -73.6007 
  74   0.0000      -2.704775       -73.6007 
  75   0.0000      -2.482027       -67.5394 
  76   0.0000      -2.482027       -67.5394 
  77   0.0000      -2.482027       -67.5394 
  78   0.0000      -1.832041       -49.8524 
  79   0.0000      -1.832041       -49.8524 
  80   0.0000      -1.832041       -49.8524 
  81   0.0000      -1.832041       -49.8524 
  82   0.0000      -1.832041       -49.8524 
  83   0.0000      -1.832041       -49.8524 
  84   0.0000      -1.832041       -49.8524 
  85   0.0000      -1.832041       -49.8524 
  86   0.0000      -1.832041       -49.8524 
  87   0.0000      -1.542309       -41.9684 
  88   0.0000      -1.542309       -41.9684 
  89   0.0000      -1.542309       -41.9684 
  90   0.0000      -1.542309       -41.9684 
  91   0.0000      -1.542309       -41.9684 
  92   0.0000      -1.542309       -41.9684 
  93   0.0000      -1.542309       -41.9684 
  94   0.0000       0.656742        17.8708 
  95   0.0000       0.656742        17.8708 
  96   0.0000       0.656742        17.8708 
  97   0.0000       0.656742        17.8708 
  98   0.0000       0.656742        17.8708 
  99   0.0000      30.646676       833.9385 
 100   0.0000      43.484889      1183.2840 
 101   0.0000      43.484889      1183.2840 
 102   0.0000      43.484889      1183.2840 
 103   0.0000      43.484889      1183.2840 
 104   0.0000      43.484889      1183.2840 

                    ********************************
                    * MULLIKEN POPULATION ANALYSIS *
                    ********************************

-----------------------
MULLIKEN ATOMIC CHARGES
-----------------------
   0 Ar:   16.000000
Sum of atomic charges:   16.0000000

--------------------------------
MULLIKEN REDUCED ORBITAL CHARGES
--------------------------------
  0 Ars       :     2.000000  s :     2.000000
      pz      :     0.000000  p :     0.000000
      px      :     0.000000
      py      :     0.000000
      dz2     :     0.000000  d :     0.000000
      dxz     :     0.000000
      dyz     :     0.000000
      dx2y2   :     0.000000
      dxy     :     0.000000
      f0      :     0.000000  f :     0.000000
      f+1     :     0.000000
      f-1     :     0.000000
      f+2     :     0.000000
      f-2     :     0.000000
      f+3     :     0.000000
      f-3     :     0.000000
      g0      :     0.000000  g :     0.000000
      g+1     :     0.000000
      g-1     :     0.000000
      g+2     :     0.000000
      g-2     :     0.000000
      g+3     :     0.000000
      g-3     :     0.000000
      g+4     :     0.000000
      g-4     :     0.000000
      h0      :     0.000000  h :     0.000000
      h+1     :     0.000000
      h-1     :     0.000000
      h+2     :     0.000000
      h-2     :     0.000000
      h+3     :     0.000000
      h-3     :     0.000000
      h+4     :     0.000000
      h-4     :     0.000000
      h+5     :     0.000000
      h-5     :     0.000000


                     *******************************
                     * LOEWDIN POPULATION ANALYSIS *
                     *******************************

----------------------
LOEWDIN ATOMIC CHARGES
----------------------
   0 Ar:   16.000000

-------------------------------
LOEWDIN REDUCED ORBITAL CHARGES
-------------------------------
  0 Ars       :     2.000000  s :     2.000000
      pz      :     0.000000  p :     0.000000
      px      :     0.000000
      py      :     0.000000
      dz2     :     0.000000  d :     0.000000
      dxz     :     0.000000
      dyz     :     0.000000
      dx2y2   :     0.000000
      dxy     :     0.000000
      f0      :     0.000000  f :     0.000000
      f+1     :     0.000000
      f-1     :     0.000000
      f+2     :     0.000000
      f-2     :     0.000000
      f+3     :     0.000000
      f-3     :     0.000000
      g0      :     0.000000  g :     0.000000
      g+1     :     0.000000
      g-1     :     0.000000
      g+2     :     0.000000
      g-2     :     0.000000
      g+3     :     0.000000
      g-3     :     0.000000
      g+4     :     0.000000
      g-4     :     0.000000
      h0      :     0.000000  h :     0.000000
      h+1     :     0.000000
      h-1     :     0.000000
      h+2     :     0.000000
      h-2     :     0.000000
      h+3     :     0.000000
      h-3     :     0.000000
      h+4     :     0.000000
      h-4     :     0.000000
      h+5     :     0.000000
      h-5     :     0.000000


                      *****************************
                      * MAYER POPULATION ANALYSIS *
                      *****************************

  NA   - Mulliken gross atomic population
  ZA   - Total nuclear charge
  QA   - Mulliken gross atomic charge
  VA   - Mayer's total valence
  BVA  - Mayer's bonded valence
  FA   - Mayer's free valence

  ATOM       NA         ZA         QA         VA         BVA        FA
  0 Ar     2.0000    18.0000    16.0000    -0.0000     0.0000    -0.0000

  Mayer bond orders larger than 0.100000


--------------------------
ATOM BASIS FOR ELEMENT Ar
--------------------------
 NewGTO Ar
 S 43
    1    9445100.000000000000         0.000001293708
    2    1414100.000000000000         0.000010063373
    3     321810.000000000000         0.000052943868
    4      91158.000000000000         0.000223714932
    5      29743.000000000000         0.000815509901
    6      10740.000000000000         0.002660788232
    7       4190.000000000000         0.007928585147
    8       1738.900000000000         0.021717741805
    9        759.290000000000         0.054297353372
   10        345.500000000000         0.120981996463
   11        162.360000000000         0.226933708208
   12         78.888000000000         0.316419681068
   13         39.321000000000         0.277894330375
   14         19.918000000000         0.111247697941
   15          9.576400000000         0.010271494253
   16      29743.000000000000         0.000000046485
   17      10740.000000000000         0.000000033402
   18       4190.000000000000         0.000001954131
   19       1738.900000000000         0.000008480100
   20        759.290000000000         0.000064334609
   21        345.500000000000         0.000278677859
   22        162.360000000000         0.001278746477
   23         78.888000000000         0.003443166540
   24         39.321000000000         0.007386037006
   25         19.918000000000         0.000877331422
   26          9.576400000000        -0.016600907787
   27          4.916100000000        -0.030330789380
   28      10740.000000000000        -0.000000090984
   29       4190.000000000000        -0.000000682452
   30       1738.900000000000        -0.000004560188
   31        759.290000000000        -0.000026309021
   32        345.500000000000        -0.000129544111
   33        162.360000000000        -0.000547374847
   34         78.888000000000        -0.001582813966
   35         39.321000000000        -0.003231622582
   36         19.918000000000        -0.000784299867
   37          9.576400000000         0.009206253517
   38          4.916100000000         0.018736980725
   39          2.464800000000         0.012892435395
   40          1.183000000000        -0.006512582076
   41          0.575210000000         0.001980016829
   42          0.270410000000        -0.000265743093
   43          0.123120000000        -0.000018283144
 S 43
    1    9445100.000000000000         0.000000332770
    2    1414100.000000000000         0.000002588522
    3     321810.000000000000         0.000013618332
    4      91158.000000000000         0.000057544421
    5      29743.000000000000         0.000209767158
    6      10740.000000000000         0.000684413498
    7       4190.000000000000         0.002039407206
    8       1738.900000000000         0.005586282838
    9        759.290000000000         0.013966478469
   10        345.500000000000         0.031119241432
   11        162.360000000000         0.058372361685
   12         78.888000000000         0.081390130243
   13         39.321000000000         0.071480559195
   14         19.918000000000         0.028615364866
   15          9.576400000000         0.002642055172
   16      29743.000000000000         0.000000517708
   17      10740.000000000000         0.000000371999
   18       4190.000000000000         0.000021763430
   19       1738.900000000000         0.000094444032
   20        759.290000000000         0.000716503368
   21        345.500000000000         0.003103673547
   22        162.360000000000         0.014241574943
   23         78.888000000000         0.038347018128
   24         39.321000000000         0.082259307435
   25         19.918000000000         0.009770960409
   26          9.576400000000        -0.184886587509
   27          4.916100000000        -0.337798162422
   28      10740.000000000000         0.000001745447
   29       4190.000000000000         0.000013092275
   30       1738.900000000000         0.000087483374
   31        759.290000000000         0.000504716456
   32        345.500000000000         0.002485194939
   33        162.360000000000         0.010500926559
   34         78.888000000000         0.030364956119
   35         39.321000000000         0.061995964130
   36         19.918000000000         0.015046134010
   37          9.576400000000        -0.176614238958
   38          4.916100000000        -0.359453233052
   39          2.464800000000        -0.247330541281
   40          1.183000000000         0.302541137599
   41          0.575210000000        -0.270885947184
   42          0.270410000000         0.142871883361
   43          0.123120000000        -0.039377228950
 S 43
    1    9445100.000000000000         0.000000087822
    2    1414100.000000000000         0.000000683141
    3     321810.000000000000         0.000003594037
    4      91158.000000000000         0.000015186645
    5      29743.000000000000         0.000055360004
    6      10740.000000000000         0.000180624721
    7       4190.000000000000         0.000538223396
    8       1738.900000000000         0.001474285326
    9        759.290000000000         0.003685916890
   10        345.500000000000         0.008212731496
   11        162.360000000000         0.015405148431
   12         78.888000000000         0.021479806555
   13         39.321000000000         0.018864554945
   14         19.918000000000         0.007551929208
   15          9.576400000000         0.000697269237
   16      29743.000000000000        -0.000000107575
   17      10740.000000000000        -0.000000077298
   18       4190.000000000000        -0.000004522250
   19       1738.900000000000        -0.000019624643
   20        759.290000000000        -0.000148883125
   21        345.500000000000        -0.000644916181
   22        162.360000000000        -0.002959274543
   23         78.888000000000        -0.007968174518
   24         39.321000000000        -0.017092763645
   25         19.918000000000        -0.002030319997
   26          9.576400000000         0.038417813618
   27          4.916100000000         0.070191499660
   28      10740.000000000000         0.000003494332
   29       4190.000000000000         0.000026210334
   30       1738.900000000000         0.000175139041
   31        759.290000000000         0.001010426916
   32        345.500000000000         0.004975284293
   33        162.360000000000         0.021022533952
   34         78.888000000000         0.060789713873
   35         39.321000000000         0.124114024930
   36         19.918000000000         0.030121900317
   37          9.576400000000        -0.353576307177
   38          4.916100000000        -0.719614383843
   39          2.464800000000        -0.495148182584
   40          1.183000000000         2.408822116334
   41          0.575210000000        -1.081914160181
   42          0.270410000000         0.549808406473
   43          0.123120000000        -0.146967580409
 S 43
    1    9445100.000000000000         0.000000032631
    2    1414100.000000000000         0.000000253829
    3     321810.000000000000         0.000001335405
    4      91158.000000000000         0.000005642768
    5      29743.000000000000         0.000020569630
    6      10740.000000000000         0.000067113140
    7       4190.000000000000         0.000199982937
    8       1738.900000000000         0.000547787242
    9        759.290000000000         0.001369543745
   10        345.500000000000         0.003051532464
   11        162.360000000000         0.005723955614
   12         78.888000000000         0.007981062947
   13         39.321000000000         0.007009336890
   14         19.918000000000         0.002806003966
   15          9.576400000000         0.000259078202
   16      29743.000000000000        -0.000000262754
   17      10740.000000000000        -0.000000188802
   18       4190.000000000000        -0.000011045675
   19       1738.900000000000        -0.000047933532
   20        759.290000000000        -0.000363649627
   21        345.500000000000        -0.001575219012
   22        162.360000000000        -0.007228079653
   23         78.888000000000        -0.019462405148
   24         39.321000000000        -0.041749373136
   25         19.918000000000        -0.004959091983
   26          9.576400000000         0.093836179399
   27          4.916100000000         0.171443961386
   28      10740.000000000000         0.000003129104
   29       4190.000000000000         0.000023470827
   30       1738.900000000000         0.000156833483
   31        759.290000000000         0.000904816949
   32        345.500000000000         0.004455266863
   33        162.360000000000         0.018825255681
   34         78.888000000000         0.054435964240
   35         39.321000000000         0.111141609203
   36         19.918000000000         0.026973554966
   37          9.576400000000        -0.316620460725
   38          4.916100000000        -0.644400184999
   39          2.464800000000        -0.443395223362
   40          1.183000000000         3.757921306238
   41          0.575210000000        -3.634806563095
   42          0.270410000000         0.575663147494
   43          0.123120000000        -0.188426659695
 S 43
    1    9445100.000000000000         0.000000016767
    2    1414100.000000000000         0.000000130422
    3     321810.000000000000         0.000000686155
    4      91158.000000000000         0.000002899357
    5      29743.000000000000         0.000010569051
    6      10740.000000000000         0.000034483954
    7       4190.000000000000         0.000102754875
    8       1738.900000000000         0.000281463062
    9        759.290000000000         0.000703696520
   10        345.500000000000         0.001567932959
   11        162.360000000000         0.002941072647
   12         78.888000000000         0.004100815503
   13         39.321000000000         0.003601524957
   14         19.918000000000         0.001441775944
   15          9.576400000000         0.000133119099
   16      29743.000000000000        -0.000000271891
   17      10740.000000000000        -0.000000195367
   18       4190.000000000000        -0.000011429771
   19       1738.900000000000        -0.000049600345
   20        759.290000000000        -0.000376294971
   21        345.500000000000        -0.001629994778
   22        162.360000000000        -0.007479424765
   23         78.888000000000        -0.020139179705
   24         39.321000000000        -0.043201141986
   25         19.918000000000        -0.005131536614
   26          9.576400000000         0.097099185093
   27          4.916100000000         0.177405655753
   28      10740.000000000000         0.000002508426
   29       4190.000000000000         0.000018815236
   30       1738.900000000000         0.000125724548
   31        759.290000000000         0.000725340661
   32        345.500000000000         0.003571535892
   33        162.360000000000         0.015091144570
   34         78.888000000000         0.043638238974
   35         39.321000000000         0.089095952833
   36         19.918000000000         0.021623176038
   37          9.576400000000        -0.253816746375
   38          4.916100000000        -0.516579244265
   39          2.464800000000        -0.355444915640
   40          1.183000000000         4.058516414177
   41          0.575210000000        -6.705863938782
   42          0.270410000000         3.891223956616
   43          0.123120000000        -0.090346166672
 S 43
    1    9445100.000000000000        -0.000000007577
    2    1414100.000000000000        -0.000000058936
    3     321810.000000000000        -0.000000310066
    4      91158.000000000000        -0.000001310186
    5      29743.000000000000        -0.000004776034
    6      10740.000000000000        -0.000015582906
    7       4190.000000000000        -0.000046433757
    8       1738.900000000000        -0.000127189951
    9        759.290000000000        -0.000317992439
   10        345.500000000000        -0.000708531039
   11        162.360000000000        -0.001329037218
   12         78.888000000000        -0.001853111800
   13         39.321000000000        -0.001627488091
   14         19.918000000000        -0.000651522121
   15          9.576400000000        -0.000060155004
   16      29743.000000000000         0.000000188455
   17      10740.000000000000         0.000000135414
   18       4190.000000000000         0.000007922268
   19       1738.900000000000         0.000034379277
   20        759.290000000000         0.000260819736
   21        345.500000000000         0.001129791363
   22        162.360000000000         0.005184181946
   23         78.888000000000         0.013958984161
   24         39.321000000000         0.029943824204
   25         19.918000000000         0.003556800196
   26          9.576400000000        -0.067301946086
   27          4.916100000000        -0.122964429284
   28      10740.000000000000        -0.000001700951
   29       4190.000000000000        -0.000012758513
   30       1738.900000000000        -0.000085253156
   31        759.290000000000        -0.000491849695
   32        345.500000000000        -0.002421839744
   33        162.360000000000        -0.010233225932
   34         78.888000000000        -0.029590860828
   35         39.321000000000        -0.060415498025
   36         19.918000000000        -0.014662562189
   37          9.576400000000         0.172111803643
   38          4.916100000000         0.350289674439
   39          2.464800000000         0.241025331859
   40          1.183000000000        -3.344073886566
   41          0.575210000000         7.392790516538
   42          0.270410000000        -8.040712343972
   43          0.123120000000         3.893009902716
 S 43
    1    9445100.000000000000        -0.000001871402
    2    1414100.000000000000        -0.000014557083
    3     321810.000000000000        -0.000076585480
    4      91158.000000000000        -0.000323612839
    5      29743.000000000000        -0.001179668572
    6      10740.000000000000        -0.003848939478
    7       4190.000000000000        -0.011469024104
    8       1738.900000000000        -0.031415605639
    9        759.290000000000        -0.078543352072
   10        345.500000000000        -0.175005427566
   11        162.360000000000        -0.328268930877
   12         78.888000000000        -0.457714066513
   13         39.321000000000        -0.401985564196
   14         19.918000000000        -0.160924364890
   15          9.576400000000        -0.014858138368
   16      29743.000000000000         0.000023106735
   17      10740.000000000000         0.000016603347
   18       4190.000000000000         0.000971361483
   19       1738.900000000000         0.004215295806
   20        759.290000000000         0.031979507707
   21        345.500000000000         0.138525450955
   22        162.360000000000         0.635640495461
   23         78.888000000000         1.711532446344
   24         39.321000000000         3.671458187968
   25         19.918000000000         0.436104724376
   26          9.576400000000        -8.251994779922
   27          4.916100000000       -15.076857172411
   28      10740.000000000000        -0.000064632993
   29       4190.000000000000        -0.000484800041
   30       1738.900000000000        -0.003239463206
   31        759.290000000000        -0.018689384179
   32        345.500000000000        -0.092025457842
   33        162.360000000000        -0.388843772131
   34         78.888000000000        -1.124398310091
   35         39.321000000000        -2.295677854011
   36         19.918000000000        -0.557150406787
   37          9.576400000000         6.539932119255
   38          4.916100000000        13.310363638173
   39          2.464800000000         9.158519497305
   40          1.183000000000       -12.600496367467
   41          0.575210000000        10.137571053854
   42          0.270410000000        -5.131683909780
   43          0.123120000000         1.391931084583
 P 26
    1      13006.000000000000         0.000019209964
    2       3078.100000000000         0.000171510276
    3        999.560000000000         0.000999944402
    4        380.970000000000         0.004551228748
    5        160.280000000000         0.016766731128
    6         74.494000000000         0.048223798855
    7         36.065000000000         0.120066695967
    8         18.164000000000         0.230754700597
    9          9.466500000000         0.323635566965
   10          5.163000000000         0.318795950088
   11          2.808500000000         0.208565388696
   12       3078.100000000000        -0.000001234752
   13        999.560000000000         0.000000818450
   14        380.970000000000        -0.000020334931
   15        160.280000000000         0.000114449499
   16         74.494000000000         0.000246215805
   17         36.065000000000         0.003742060981
   18         18.164000000000         0.007392565946
   19          9.466500000000         0.034285129825
   20          5.163000000000        -0.000743825437
   21          2.808500000000        -0.000538182743
   22          1.523500000000        -0.381493849397
   23          0.743790000000         0.352672243182
   24          0.356800000000        -0.223115558478
   25          0.162210000000         0.101223385926
   26          0.069956000000        -0.028419118127
 P 26
    1      13006.000000000000         0.000006632112
    2       3078.100000000000         0.000059212777
    3        999.560000000000         0.000345224122
    4        380.970000000000         0.001571281308
    5        160.280000000000         0.005788601866
    6         74.494000000000         0.016648944265
    7         36.065000000000         0.041452224352
    8         18.164000000000         0.079666518200
    9          9.466500000000         0.111733016572
   10          5.163000000000         0.110062171189
   11          2.808500000000         0.072005806562
   12       3078.100000000000        -0.000005054664
   13        999.560000000000         0.000003350462
   14        380.970000000000        -0.000083244446
   15        160.280000000000         0.000468518183
   16         74.494000000000         0.001007925618
   17         36.065000000000         0.015318753089
   18         18.164000000000         0.030262706301
   19          9.466500000000         0.140351918667
   20          5.163000000000        -0.003044973951
   21          2.808500000000        -0.002203141155
   22          1.523500000000        -1.561708939007
   23          0.743790000000         0.713040916643
   24          0.356800000000        -0.478218622424
   25          0.162210000000         0.214518257707
   26          0.069956000000        -0.059645570575
 P 26
    1      13006.000000000000        -0.000001782464
    2       3078.100000000000        -0.000015914185
    3        999.560000000000        -0.000092783364
    4        380.970000000000        -0.000422301793
    5        160.280000000000        -0.001555760216
    6         74.494000000000        -0.004474615067
    7         36.065000000000        -0.011140811375
    8         18.164000000000        -0.021411387834
    9          9.466500000000        -0.030029666236
   10          5.163000000000        -0.029580605334
   11          2.808500000000        -0.019352474357
   12       3078.100000000000         0.000005721917
   13        999.560000000000        -0.000003792747
   14        380.970000000000         0.000094233334
   15        160.280000000000        -0.000530366078
   16         74.494000000000        -0.001140979319
   17         36.065000000000        -0.017340942774
   18         18.164000000000        -0.034257609291
   19          9.466500000000        -0.158879418949
   20          5.163000000000         0.003446933228
   21          2.808500000000         0.002493972223
   22          1.523500000000         1.767866169228
   23          0.743790000000        -2.087036336947
   24          0.356800000000         0.179604182884
   25          0.162210000000        -0.187599696861
   26          0.069956000000         0.053725684785
 P 26
    1      13006.000000000000        -0.000000036106
    2       3078.100000000000        -0.000000322357
    3        999.560000000000        -0.000001879416
    4        380.970000000000        -0.000008554126
    5        160.280000000000        -0.000031513407
    6         74.494000000000        -0.000090637595
    7         36.065000000000        -0.000225667758
    8         18.164000000000        -0.000433708077
    9          9.466500000000        -0.000608279524
   10          5.163000000000        -0.000599183367
   11          2.808500000000        -0.000392002821
   12       3078.100000000000         0.000005405968
   13        999.560000000000        -0.000003583322
   14        380.970000000000         0.000089030021
   15        160.280000000000        -0.000501080679
   16         74.494000000000        -0.001077977487
   17         36.065000000000        -0.016383422208
   18         18.164000000000        -0.032365995561
   19          9.466500000000        -0.150106521584
   20          5.163000000000         0.003256602777
   21          2.808500000000         0.002356261735
   22          1.523500000000         1.670249318913
   23          0.743790000000        -3.320458162445
   24          0.356800000000         2.016128865602
   25          0.162210000000         0.292775416172
   26          0.069956000000        -0.007334592745
 P 26
    1      13006.000000000000        -0.000000579351
    2       3078.100000000000        -0.000005172557
    3        999.560000000000        -0.000030157198
    4        380.970000000000        -0.000137259938
    5        160.280000000000        -0.000505665743
    6         74.494000000000        -0.001454375508
    7         36.065000000000        -0.003621076441
    8         18.164000000000        -0.006959302105
    9          9.466500000000        -0.009760484518
   10          5.163000000000        -0.009614527119
   11          2.808500000000        -0.006290097428
   12       3078.100000000000        -0.000004739686
   13        999.560000000000         0.000003141680
   14        380.970000000000        -0.000078057121
   15        160.280000000000         0.000439322765
   16         74.494000000000         0.000945117362
   17         36.065000000000         0.014364174555
   18         18.164000000000         0.028376904654
   19          9.466500000000         0.131605976492
   20          5.163000000000        -0.002855228300
   21          2.808500000000        -0.002065853789
   22          1.523500000000        -1.464392021611
   23          0.743790000000         3.838630324623
   24          0.356800000000        -4.524062057103
   25          0.162210000000         2.375464098165
   26          0.069956000000         0.104185687438
 P 26
    1      13006.000000000000        -0.000000535766
    2       3078.100000000000        -0.000004783420
    3        999.560000000000        -0.000027888441
    4        380.970000000000        -0.000126933732
    5        160.280000000000        -0.000467623991
    6         74.494000000000        -0.001344961348
    7         36.065000000000        -0.003348659150
    8         18.164000000000        -0.006435746676
    9          9.466500000000        -0.009026193265
   10          5.163000000000        -0.008891216390
   11          2.808500000000        -0.005816886952
   12       3078.100000000000        -0.000003071162
   13        999.560000000000         0.000002035706
   14        380.970000000000        -0.000050578470
   15        160.280000000000         0.000284666832
   16         74.494000000000         0.000612405246
   17         36.065000000000         0.009307516925
   18         18.164000000000         0.018387309297
   19          9.466500000000         0.085276383195
   20          5.163000000000        -0.001850094875
   21          2.808500000000        -0.001338605921
   22          1.523500000000        -0.948878299535
   23          0.743790000000         2.827990973456
   24          0.356800000000        -4.351965613634
   25          0.162210000000         4.345285741901
   26          0.069956000000        -2.410291959592
 D 6
    1         26.330000000000         0.064428901890
    2          7.530000000000         0.413011641981
    3          2.600000000000         0.628210175376
    4          0.930000000000         0.066064367461
    5          0.410000000000        -0.000851127716
    6          0.170000000000        -0.000983707505
 D 6
    1         26.330000000000         0.049216857232
    2          7.530000000000         0.366720375381
    3          2.600000000000         0.262081971135
    4          0.930000000000        -1.012599327282
    5          0.410000000000        -0.074306860557
    6          0.170000000000        -0.012588805236
 D 6
    1         26.330000000000         0.036268660567
    2          7.530000000000         0.296876189768
    3          2.600000000000         0.044563705406
    4          0.930000000000        -1.188435424821
    5          0.410000000000         1.412418611544
    6          0.170000000000         0.087702138782
 D 6
    1         26.330000000000         0.024571535947
    2          7.530000000000         0.219410417502
    3          2.600000000000        -0.066818235907
    4          0.930000000000        -0.822264143807
    5          0.410000000000         1.822622500874
    6          0.170000000000        -1.617802808819
 D 6
    1         26.330000000000         0.097820407064
    2          7.530000000000         1.109059997803
    3          2.600000000000        -1.866831260925
    4          0.930000000000         1.952090407673
    5          0.410000000000        -1.437548568189
    6          0.170000000000         0.546547714768
 D 6
    1         26.330000000000         1.235287617990
    2          7.530000000000        -1.134192879062
    3          2.600000000000         0.765823161999
    4          0.930000000000        -0.503332555140
    5          0.410000000000         0.302463394475
    6          0.170000000000        -0.101323956460
 F 3
    1          4.530000000000         0.340513753935
    2          1.060000000000         0.858239277859
    3          0.440000000000        -0.042252946463
 F 3
    1          4.530000000000         0.328446142448
    2          1.060000000000         0.452171539310
    3          0.440000000000        -1.154458106024
 F 3
    1          4.530000000000         0.973762730781
    2          1.060000000000        -1.050664766644
    3          0.440000000000         0.701986269820
 G 2
    1          2.180000000000         0.303513883491
    2          0.730000000000         0.824374342837
 G 2
    1          2.180000000000         1.081980318504
    2          0.730000000000        -0.763681235841
 H 1
    1          1.120000000000         1.000000000000
 end
  // -----------------------------------------------
  // The basis set
  // -----------------------------------------------
  BAS[ATNO] = new BFNGauss[NSH];
  // Basis function   1 L = s
  InitBFNGauss(BAS[ATNO][  0]);
  BAS[ATNO][  0].l  = 0;
  BAS[ATNO][  0].ng = 43;
  BAS[ATNO][  0].a[  0] =   9445100.000000000000;     BAS[ATNO][  0].d[  0] =         0.000001293708;
  BAS[ATNO][  0].a[  1] =   1414100.000000000000;     BAS[ATNO][  0].d[  1] =         0.000010063373;
  BAS[ATNO][  0].a[  2] =    321810.000000000000;     BAS[ATNO][  0].d[  2] =         0.000052943868;
  BAS[ATNO][  0].a[  3] =     91158.000000000000;     BAS[ATNO][  0].d[  3] =         0.000223714932;
  BAS[ATNO][  0].a[  4] =     29743.000000000000;     BAS[ATNO][  0].d[  4] =         0.000815509901;
  BAS[ATNO][  0].a[  5] =     10740.000000000000;     BAS[ATNO][  0].d[  5] =         0.002660788232;
  BAS[ATNO][  0].a[  6] =      4190.000000000000;     BAS[ATNO][  0].d[  6] =         0.007928585147;
  BAS[ATNO][  0].a[  7] =      1738.900000000000;     BAS[ATNO][  0].d[  7] =         0.021717741805;
  BAS[ATNO][  0].a[  8] =       759.290000000000;     BAS[ATNO][  0].d[  8] =         0.054297353372;
  BAS[ATNO][  0].a[  9] =       345.500000000000;     BAS[ATNO][  0].d[  9] =         0.120981996463;
  BAS[ATNO][  0].a[ 10] =       162.360000000000;     BAS[ATNO][  0].d[ 10] =         0.226933708208;
  BAS[ATNO][  0].a[ 11] =        78.888000000000;     BAS[ATNO][  0].d[ 11] =         0.316419681068;
  BAS[ATNO][  0].a[ 12] =        39.321000000000;     BAS[ATNO][  0].d[ 12] =         0.277894330375;
  BAS[ATNO][  0].a[ 13] =        19.918000000000;     BAS[ATNO][  0].d[ 13] =         0.111247697941;
  BAS[ATNO][  0].a[ 14] =         9.576400000000;     BAS[ATNO][  0].d[ 14] =         0.010271494253;
  BAS[ATNO][  0].a[ 15] =     29743.000000000000;     BAS[ATNO][  0].d[ 15] =         0.000000046485;
  BAS[ATNO][  0].a[ 16] =     10740.000000000000;     BAS[ATNO][  0].d[ 16] =         0.000000033402;
  BAS[ATNO][  0].a[ 17] =      4190.000000000000;     BAS[ATNO][  0].d[ 17] =         0.000001954131;
  BAS[ATNO][  0].a[ 18] =      1738.900000000000;     BAS[ATNO][  0].d[ 18] =         0.000008480100;
  BAS[ATNO][  0].a[ 19] =       759.290000000000;     BAS[ATNO][  0].d[ 19] =         0.000064334609;
  BAS[ATNO][  0].a[ 20] =       345.500000000000;     BAS[ATNO][  0].d[ 20] =         0.000278677859;
  BAS[ATNO][  0].a[ 21] =       162.360000000000;     BAS[ATNO][  0].d[ 21] =         0.001278746477;
  BAS[ATNO][  0].a[ 22] =        78.888000000000;     BAS[ATNO][  0].d[ 22] =         0.003443166540;
  BAS[ATNO][  0].a[ 23] =        39.321000000000;     BAS[ATNO][  0].d[ 23] =         0.007386037006;
  BAS[ATNO][  0].a[ 24] =        19.918000000000;     BAS[ATNO][  0].d[ 24] =         0.000877331422;
  BAS[ATNO][  0].a[ 25] =         9.576400000000;     BAS[ATNO][  0].d[ 25] =        -0.016600907787;
  BAS[ATNO][  0].a[ 26] =         4.916100000000;     BAS[ATNO][  0].d[ 26] =        -0.030330789380;
  BAS[ATNO][  0].a[ 27] =     10740.000000000000;     BAS[ATNO][  0].d[ 27] =        -0.000000090984;
  BAS[ATNO][  0].a[ 28] =      4190.000000000000;     BAS[ATNO][  0].d[ 28] =        -0.000000682452;
  BAS[ATNO][  0].a[ 29] =      1738.900000000000;     BAS[ATNO][  0].d[ 29] =        -0.000004560188;
  BAS[ATNO][  0].a[ 30] =       759.290000000000;     BAS[ATNO][  0].d[ 30] =        -0.000026309021;
  BAS[ATNO][  0].a[ 31] =       345.500000000000;     BAS[ATNO][  0].d[ 31] =        -0.000129544111;
  BAS[ATNO][  0].a[ 32] =       162.360000000000;     BAS[ATNO][  0].d[ 32] =        -0.000547374847;
  BAS[ATNO][  0].a[ 33] =        78.888000000000;     BAS[ATNO][  0].d[ 33] =        -0.001582813966;
  BAS[ATNO][  0].a[ 34] =        39.321000000000;     BAS[ATNO][  0].d[ 34] =        -0.003231622582;
  BAS[ATNO][  0].a[ 35] =        19.918000000000;     BAS[ATNO][  0].d[ 35] =        -0.000784299867;
  BAS[ATNO][  0].a[ 36] =         9.576400000000;     BAS[ATNO][  0].d[ 36] =         0.009206253517;
  BAS[ATNO][  0].a[ 37] =         4.916100000000;     BAS[ATNO][  0].d[ 37] =         0.018736980725;
  BAS[ATNO][  0].a[ 38] =         2.464800000000;     BAS[ATNO][  0].d[ 38] =         0.012892435395;
  BAS[ATNO][  0].a[ 39] =         1.183000000000;     BAS[ATNO][  0].d[ 39] =        -0.006512582076;
  BAS[ATNO][  0].a[ 40] =         0.575210000000;     BAS[ATNO][  0].d[ 40] =         0.001980016829;
  BAS[ATNO][  0].a[ 41] =         0.270410000000;     BAS[ATNO][  0].d[ 41] =        -0.000265743093;
  BAS[ATNO][  0].a[ 42] =         0.123120000000;     BAS[ATNO][  0].d[ 42] =        -0.000018283144;

  // Basis function   2 L = s
  InitBFNGauss(BAS[ATNO][  1]);
  BAS[ATNO][  1].l  = 0;
  BAS[ATNO][  1].ng = 43;
  BAS[ATNO][  1].a[  0] =   9445100.000000000000;     BAS[ATNO][  1].d[  0] =        -0.000000332770;
  BAS[ATNO][  1].a[  1] =   1414100.000000000000;     BAS[ATNO][  1].d[  1] =        -0.000002588522;
  BAS[ATNO][  1].a[  2] =    321810.000000000000;     BAS[ATNO][  1].d[  2] =        -0.000013618332;
  BAS[ATNO][  1].a[  3] =     91158.000000000000;     BAS[ATNO][  1].d[  3] =        -0.000057544421;
  BAS[ATNO][  1].a[  4] =     29743.000000000000;     BAS[ATNO][  1].d[  4] =        -0.000209767158;
  BAS[ATNO][  1].a[  5] =     10740.000000000000;     BAS[ATNO][  1].d[  5] =        -0.000684413498;
  BAS[ATNO][  1].a[  6] =      4190.000000000000;     BAS[ATNO][  1].d[  6] =        -0.002039407206;
  BAS[ATNO][  1].a[  7] =      1738.900000000000;     BAS[ATNO][  1].d[  7] =        -0.005586282838;
  BAS[ATNO][  1].a[  8] =       759.290000000000;     BAS[ATNO][  1].d[  8] =        -0.013966478469;
  BAS[ATNO][  1].a[  9] =       345.500000000000;     BAS[ATNO][  1].d[  9] =        -0.031119241432;
  BAS[ATNO][  1].a[ 10] =       162.360000000000;     BAS[ATNO][  1].d[ 10] =        -0.058372361685;
  BAS[ATNO][  1].a[ 11] =        78.888000000000;     BAS[ATNO][  1].d[ 11] =        -0.081390130243;
  BAS[ATNO][  1].a[ 12] =        39.321000000000;     BAS[ATNO][  1].d[ 12] =        -0.071480559195;
  BAS[ATNO][  1].a[ 13] =        19.918000000000;     BAS[ATNO][  1].d[ 13] =        -0.028615364866;
  BAS[ATNO][  1].a[ 14] =         9.576400000000;     BAS[ATNO][  1].d[ 14] =        -0.002642055172;
  BAS[ATNO][  1].a[ 15] =     29743.000000000000;     BAS[ATNO][  1].d[ 15] =        -0.000000517708;
  BAS[ATNO][  1].a[ 16] =     10740.000000000000;     BAS[ATNO][  1].d[ 16] =        -0.000000371999;
  BAS[ATNO][  1].a[ 17] =      4190.000000000000;     BAS[ATNO][  1].d[ 17] =        -0.000021763430;
  BAS[ATNO][  1].a[ 18] =      1738.900000000000;     BAS[ATNO][  1].d[ 18] =        -0.000094444032;
  BAS[ATNO][  1].a[ 19] =       759.290000000000;     BAS[ATNO][  1].d[ 19] =        -0.000716503368;
  BAS[ATNO][  1].a[ 20] =       345.500000000000;     BAS[ATNO][  1].d[ 20] =        -0.003103673547;
  BAS[ATNO][  1].a[ 21] =       162.360000000000;     BAS[ATNO][  1].d[ 21] =        -0.014241574943;
  BAS[ATNO][  1].a[ 22] =        78.888000000000;     BAS[ATNO][  1].d[ 22] =        -0.038347018128;
  BAS[ATNO][  1].a[ 23] =        39.321000000000;     BAS[ATNO][  1].d[ 23] =        -0.082259307435;
  BAS[ATNO][  1].a[ 24] =        19.918000000000;     BAS[ATNO][  1].d[ 24] =        -0.009770960409;
  BAS[ATNO][  1].a[ 25] =         9.576400000000;     BAS[ATNO][  1].d[ 25] =         0.184886587509;
  BAS[ATNO][  1].a[ 26] =         4.916100000000;     BAS[ATNO][  1].d[ 26] =         0.337798162422;
  BAS[ATNO][  1].a[ 27] =     10740.000000000000;     BAS[ATNO][  1].d[ 27] =        -0.000001745447;
  BAS[ATNO][  1].a[ 28] =      4190.000000000000;     BAS[ATNO][  1].d[ 28] =        -0.000013092275;
  BAS[ATNO][  1].a[ 29] =      1738.900000000000;     BAS[ATNO][  1].d[ 29] =        -0.000087483374;
  BAS[ATNO][  1].a[ 30] =       759.290000000000;     BAS[ATNO][  1].d[ 30] =        -0.000504716456;
  BAS[ATNO][  1].a[ 31] =       345.500000000000;     BAS[ATNO][  1].d[ 31] =        -0.002485194939;
  BAS[ATNO][  1].a[ 32] =       162.360000000000;     BAS[ATNO][  1].d[ 32] =        -0.010500926559;
  BAS[ATNO][  1].a[ 33] =        78.888000000000;     BAS[ATNO][  1].d[ 33] =        -0.030364956119;
  BAS[ATNO][  1].a[ 34] =        39.321000000000;     BAS[ATNO][  1].d[ 34] =        -0.061995964130;
  BAS[ATNO][  1].a[ 35] =        19.918000000000;     BAS[ATNO][  1].d[ 35] =        -0.015046134010;
  BAS[ATNO][  1].a[ 36] =         9.576400000000;     BAS[ATNO][  1].d[ 36] =         0.176614238958;
  BAS[ATNO][  1].a[ 37] =         4.916100000000;     BAS[ATNO][  1].d[ 37] =         0.359453233052;
  BAS[ATNO][  1].a[ 38] =         2.464800000000;     BAS[ATNO][  1].d[ 38] =         0.247330541281;
  BAS[ATNO][  1].a[ 39] =         1.183000000000;     BAS[ATNO][  1].d[ 39] =        -0.302541137599;
  BAS[ATNO][  1].a[ 40] =         0.575210000000;     BAS[ATNO][  1].d[ 40] =         0.270885947184;
  BAS[ATNO][  1].a[ 41] =         0.270410000000;     BAS[ATNO][  1].d[ 41] =        -0.142871883361;
  BAS[ATNO][  1].a[ 42] =         0.123120000000;     BAS[ATNO][  1].d[ 42] =         0.039377228950;

  // Basis function   3 L = s
  InitBFNGauss(BAS[ATNO][  2]);
  BAS[ATNO][  2].l  = 0;
  BAS[ATNO][  2].ng = 43;
  BAS[ATNO][  2].a[  0] =   9445100.000000000000;     BAS[ATNO][  2].d[  0] =         0.000000087822;
  BAS[ATNO][  2].a[  1] =   1414100.000000000000;     BAS[ATNO][  2].d[  1] =         0.000000683141;
  BAS[ATNO][  2].a[  2] =    321810.000000000000;     BAS[ATNO][  2].d[  2] =         0.000003594037;
  BAS[ATNO][  2].a[  3] =     91158.000000000000;     BAS[ATNO][  2].d[  3] =         0.000015186645;
  BAS[ATNO][  2].a[  4] =     29743.000000000000;     BAS[ATNO][  2].d[  4] =         0.000055360004;
  BAS[ATNO][  2].a[  5] =     10740.000000000000;     BAS[ATNO][  2].d[  5] =         0.000180624721;
  BAS[ATNO][  2].a[  6] =      4190.000000000000;     BAS[ATNO][  2].d[  6] =         0.000538223396;
  BAS[ATNO][  2].a[  7] =      1738.900000000000;     BAS[ATNO][  2].d[  7] =         0.001474285326;
  BAS[ATNO][  2].a[  8] =       759.290000000000;     BAS[ATNO][  2].d[  8] =         0.003685916890;
  BAS[ATNO][  2].a[  9] =       345.500000000000;     BAS[ATNO][  2].d[  9] =         0.008212731496;
  BAS[ATNO][  2].a[ 10] =       162.360000000000;     BAS[ATNO][  2].d[ 10] =         0.015405148431;
  BAS[ATNO][  2].a[ 11] =        78.888000000000;     BAS[ATNO][  2].d[ 11] =         0.021479806555;
  BAS[ATNO][  2].a[ 12] =        39.321000000000;     BAS[ATNO][  2].d[ 12] =         0.018864554945;
  BAS[ATNO][  2].a[ 13] =        19.918000000000;     BAS[ATNO][  2].d[ 13] =         0.007551929208;
  BAS[ATNO][  2].a[ 14] =         9.576400000000;     BAS[ATNO][  2].d[ 14] =         0.000697269237;
  BAS[ATNO][  2].a[ 15] =     29743.000000000000;     BAS[ATNO][  2].d[ 15] =        -0.000000107575;
  BAS[ATNO][  2].a[ 16] =     10740.000000000000;     BAS[ATNO][  2].d[ 16] =        -0.000000077298;
  BAS[ATNO][  2].a[ 17] =      4190.000000000000;     BAS[ATNO][  2].d[ 17] =        -0.000004522250;
  BAS[ATNO][  2].a[ 18] =      1738.900000000000;     BAS[ATNO][  2].d[ 18] =        -0.000019624643;
  BAS[ATNO][  2].a[ 19] =       759.290000000000;     BAS[ATNO][  2].d[ 19] =        -0.000148883125;
  BAS[ATNO][  2].a[ 20] =       345.500000000000;     BAS[ATNO][  2].d[ 20] =        -0.000644916181;
  BAS[ATNO][  2].a[ 21] =       162.360000000000;     BAS[ATNO][  2].d[ 21] =        -0.002959274543;
  BAS[ATNO][  2].a[ 22] =        78.888000000000;     BAS[ATNO][  2].d[ 22] =        -0.007968174518;
  BAS[ATNO][  2].a[ 23] =        39.321000000000;     BAS[ATNO][  2].d[ 23] =        -0.017092763645;
  BAS[ATNO][  2].a[ 24] =        19.918000000000;     BAS[ATNO][  2].d[ 24] =        -0.002030319997;
  BAS[ATNO][  2].a[ 25] =         9.576400000000;     BAS[ATNO][  2].d[ 25] =         0.038417813618;
  BAS[ATNO][  2].a[ 26] =         4.916100000000;     BAS[ATNO][  2].d[ 26] =         0.070191499660;
  BAS[ATNO][  2].a[ 27] =     10740.000000000000;     BAS[ATNO][  2].d[ 27] =         0.000003494332;
  BAS[ATNO][  2].a[ 28] =      4190.000000000000;     BAS[ATNO][  2].d[ 28] =         0.000026210334;
  BAS[ATNO][  2].a[ 29] =      1738.900000000000;     BAS[ATNO][  2].d[ 29] =         0.000175139041;
  BAS[ATNO][  2].a[ 30] =       759.290000000000;     BAS[ATNO][  2].d[ 30] =         0.001010426916;
  BAS[ATNO][  2].a[ 31] =       345.500000000000;     BAS[ATNO][  2].d[ 31] =         0.004975284293;
  BAS[ATNO][  2].a[ 32] =       162.360000000000;     BAS[ATNO][  2].d[ 32] =         0.021022533952;
  BAS[ATNO][  2].a[ 33] =        78.888000000000;     BAS[ATNO][  2].d[ 33] =         0.060789713873;
  BAS[ATNO][  2].a[ 34] =        39.321000000000;     BAS[ATNO][  2].d[ 34] =         0.124114024930;
  BAS[ATNO][  2].a[ 35] =        19.918000000000;     BAS[ATNO][  2].d[ 35] =         0.030121900317;
  BAS[ATNO][  2].a[ 36] =         9.576400000000;     BAS[ATNO][  2].d[ 36] =        -0.353576307177;
  BAS[ATNO][  2].a[ 37] =         4.916100000000;     BAS[ATNO][  2].d[ 37] =        -0.719614383843;
  BAS[ATNO][  2].a[ 38] =         2.464800000000;     BAS[ATNO][  2].d[ 38] =        -0.495148182584;
  BAS[ATNO][  2].a[ 39] =         1.183000000000;     BAS[ATNO][  2].d[ 39] =         2.408822116334;
  BAS[ATNO][  2].a[ 40] =         0.575210000000;     BAS[ATNO][  2].d[ 40] =        -1.081914160181;
  BAS[ATNO][  2].a[ 41] =         0.270410000000;     BAS[ATNO][  2].d[ 41] =         0.549808406473;
  BAS[ATNO][  2].a[ 42] =         0.123120000000;     BAS[ATNO][  2].d[ 42] =        -0.146967580409;

  // Basis function   4 L = s
  InitBFNGauss(BAS[ATNO][  3]);
  BAS[ATNO][  3].l  = 0;
  BAS[ATNO][  3].ng = 43;
  BAS[ATNO][  3].a[  0] =   9445100.000000000000;     BAS[ATNO][  3].d[  0] =         0.000000032631;
  BAS[ATNO][  3].a[  1] =   1414100.000000000000;     BAS[ATNO][  3].d[  1] =         0.000000253829;
  BAS[ATNO][  3].a[  2] =    321810.000000000000;     BAS[ATNO][  3].d[  2] =         0.000001335405;
  BAS[ATNO][  3].a[  3] =     91158.000000000000;     BAS[ATNO][  3].d[  3] =         0.000005642768;
  BAS[ATNO][  3].a[  4] =     29743.000000000000;     BAS[ATNO][  3].d[  4] =         0.000020569630;
  BAS[ATNO][  3].a[  5] =     10740.000000000000;     BAS[ATNO][  3].d[  5] =         0.000067113140;
  BAS[ATNO][  3].a[  6] =      4190.000000000000;     BAS[ATNO][  3].d[  6] =         0.000199982937;
  BAS[ATNO][  3].a[  7] =      1738.900000000000;     BAS[ATNO][  3].d[  7] =         0.000547787242;
  BAS[ATNO][  3].a[  8] =       759.290000000000;     BAS[ATNO][  3].d[  8] =         0.001369543745;
  BAS[ATNO][  3].a[  9] =       345.500000000000;     BAS[ATNO][  3].d[  9] =         0.003051532464;
  BAS[ATNO][  3].a[ 10] =       162.360000000000;     BAS[ATNO][  3].d[ 10] =         0.005723955614;
  BAS[ATNO][  3].a[ 11] =        78.888000000000;     BAS[ATNO][  3].d[ 11] =         0.007981062947;
  BAS[ATNO][  3].a[ 12] =        39.321000000000;     BAS[ATNO][  3].d[ 12] =         0.007009336890;
  BAS[ATNO][  3].a[ 13] =        19.918000000000;     BAS[ATNO][  3].d[ 13] =         0.002806003966;
  BAS[ATNO][  3].a[ 14] =         9.576400000000;     BAS[ATNO][  3].d[ 14] =         0.000259078202;
  BAS[ATNO][  3].a[ 15] =     29743.000000000000;     BAS[ATNO][  3].d[ 15] =        -0.000000262754;
  BAS[ATNO][  3].a[ 16] =     10740.000000000000;     BAS[ATNO][  3].d[ 16] =        -0.000000188802;
  BAS[ATNO][  3].a[ 17] =      4190.000000000000;     BAS[ATNO][  3].d[ 17] =        -0.000011045675;
  BAS[ATNO][  3].a[ 18] =      1738.900000000000;     BAS[ATNO][  3].d[ 18] =        -0.000047933532;
  BAS[ATNO][  3].a[ 19] =       759.290000000000;     BAS[ATNO][  3].d[ 19] =        -0.000363649627;
  BAS[ATNO][  3].a[ 20] =       345.500000000000;     BAS[ATNO][  3].d[ 20] =        -0.001575219012;
  BAS[ATNO][  3].a[ 21] =       162.360000000000;     BAS[ATNO][  3].d[ 21] =        -0.007228079653;
  BAS[ATNO][  3].a[ 22] =        78.888000000000;     BAS[ATNO][  3].d[ 22] =        -0.019462405148;
  BAS[ATNO][  3].a[ 23] =        39.321000000000;     BAS[ATNO][  3].d[ 23] =        -0.041749373136;
  BAS[ATNO][  3].a[ 24] =        19.918000000000;     BAS[ATNO][  3].d[ 24] =        -0.004959091983;
  BAS[ATNO][  3].a[ 25] =         9.576400000000;     BAS[ATNO][  3].d[ 25] =         0.093836179399;
  BAS[ATNO][  3].a[ 26] =         4.916100000000;     BAS[ATNO][  3].d[ 26] =         0.171443961386;
  BAS[ATNO][  3].a[ 27] =     10740.000000000000;     BAS[ATNO][  3].d[ 27] =         0.000003129104;
  BAS[ATNO][  3].a[ 28] =      4190.000000000000;     BAS[ATNO][  3].d[ 28] =         0.000023470827;
  BAS[ATNO][  3].a[ 29] =      1738.900000000000;     BAS[ATNO][  3].d[ 29] =         0.000156833483;
  BAS[ATNO][  3].a[ 30] =       759.290000000000;     BAS[ATNO][  3].d[ 30] =         0.000904816949;
  BAS[ATNO][  3].a[ 31] =       345.500000000000;     BAS[ATNO][  3].d[ 31] =         0.004455266863;
  BAS[ATNO][  3].a[ 32] =       162.360000000000;     BAS[ATNO][  3].d[ 32] =         0.018825255681;
  BAS[ATNO][  3].a[ 33] =        78.888000000000;     BAS[ATNO][  3].d[ 33] =         0.054435964240;
  BAS[ATNO][  3].a[ 34] =        39.321000000000;     BAS[ATNO][  3].d[ 34] =         0.111141609203;
  BAS[ATNO][  3].a[ 35] =        19.918000000000;     BAS[ATNO][  3].d[ 35] =         0.026973554966;
  BAS[ATNO][  3].a[ 36] =         9.576400000000;     BAS[ATNO][  3].d[ 36] =        -0.316620460725;
  BAS[ATNO][  3].a[ 37] =         4.916100000000;     BAS[ATNO][  3].d[ 37] =        -0.644400184999;
  BAS[ATNO][  3].a[ 38] =         2.464800000000;     BAS[ATNO][  3].d[ 38] =        -0.443395223362;
  BAS[ATNO][  3].a[ 39] =         1.183000000000;     BAS[ATNO][  3].d[ 39] =         3.757921306238;
  BAS[ATNO][  3].a[ 40] =         0.575210000000;     BAS[ATNO][  3].d[ 40] =        -3.634806563095;
  BAS[ATNO][  3].a[ 41] =         0.270410000000;     BAS[ATNO][  3].d[ 41] =         0.575663147494;
  BAS[ATNO][  3].a[ 42] =         0.123120000000;     BAS[ATNO][  3].d[ 42] =        -0.188426659695;

  // Basis function   5 L = s
  InitBFNGauss(BAS[ATNO][  4]);
  BAS[ATNO][  4].l  = 0;
  BAS[ATNO][  4].ng = 43;
  BAS[ATNO][  4].a[  0] =   9445100.000000000000;     BAS[ATNO][  4].d[  0] =        -0.000000016767;
  BAS[ATNO][  4].a[  1] =   1414100.000000000000;     BAS[ATNO][  4].d[  1] =        -0.000000130422;
  BAS[ATNO][  4].a[  2] =    321810.000000000000;     BAS[ATNO][  4].d[  2] =        -0.000000686155;
  BAS[ATNO][  4].a[  3] =     91158.000000000000;     BAS[ATNO][  4].d[  3] =        -0.000002899357;
  BAS[ATNO][  4].a[  4] =     29743.000000000000;     BAS[ATNO][  4].d[  4] =        -0.000010569051;
  BAS[ATNO][  4].a[  5] =     10740.000000000000;     BAS[ATNO][  4].d[  5] =        -0.000034483954;
  BAS[ATNO][  4].a[  6] =      4190.000000000000;     BAS[ATNO][  4].d[  6] =        -0.000102754875;
  BAS[ATNO][  4].a[  7] =      1738.900000000000;     BAS[ATNO][  4].d[  7] =        -0.000281463062;
  BAS[ATNO][  4].a[  8] =       759.290000000000;     BAS[ATNO][  4].d[  8] =        -0.000703696520;
  BAS[ATNO][  4].a[  9] =       345.500000000000;     BAS[ATNO][  4].d[  9] =        -0.001567932959;
  BAS[ATNO][  4].a[ 10] =       162.360000000000;     BAS[ATNO][  4].d[ 10] =        -0.002941072647;
  BAS[ATNO][  4].a[ 11] =        78.888000000000;     BAS[ATNO][  4].d[ 11] =        -0.004100815503;
  BAS[ATNO][  4].a[ 12] =        39.321000000000;     BAS[ATNO][  4].d[ 12] =        -0.003601524957;
  BAS[ATNO][  4].a[ 13] =        19.918000000000;     BAS[ATNO][  4].d[ 13] =        -0.001441775944;
  BAS[ATNO][  4].a[ 14] =         9.576400000000;     BAS[ATNO][  4].d[ 14] =        -0.000133119099;
  BAS[ATNO][  4].a[ 15] =     29743.000000000000;     BAS[ATNO][  4].d[ 15] =         0.000000271891;
  BAS[ATNO][  4].a[ 16] =     10740.000000000000;     BAS[ATNO][  4].d[ 16] =         0.000000195367;
  BAS[ATNO][  4].a[ 17] =      4190.000000000000;     BAS[ATNO][  4].d[ 17] =         0.000011429771;
  BAS[ATNO][  4].a[ 18] =      1738.900000000000;     BAS[ATNO][  4].d[ 18] =         0.000049600345;
  BAS[ATNO][  4].a[ 19] =       759.290000000000;     BAS[ATNO][  4].d[ 19] =         0.000376294971;
  BAS[ATNO][  4].a[ 20] =       345.500000000000;     BAS[ATNO][  4].d[ 20] =         0.001629994778;
  BAS[ATNO][  4].a[ 21] =       162.360000000000;     BAS[ATNO][  4].d[ 21] =         0.007479424765;
  BAS[ATNO][  4].a[ 22] =        78.888000000000;     BAS[ATNO][  4].d[ 22] =         0.020139179705;
  BAS[ATNO][  4].a[ 23] =        39.321000000000;     BAS[ATNO][  4].d[ 23] =         0.043201141986;
  BAS[ATNO][  4].a[ 24] =        19.918000000000;     BAS[ATNO][  4].d[ 24] =         0.005131536614;
  BAS[ATNO][  4].a[ 25] =         9.576400000000;     BAS[ATNO][  4].d[ 25] =        -0.097099185093;
  BAS[ATNO][  4].a[ 26] =         4.916100000000;     BAS[ATNO][  4].d[ 26] =        -0.177405655753;
  BAS[ATNO][  4].a[ 27] =     10740.000000000000;     BAS[ATNO][  4].d[ 27] =        -0.000002508426;
  BAS[ATNO][  4].a[ 28] =      4190.000000000000;     BAS[ATNO][  4].d[ 28] =        -0.000018815236;
  BAS[ATNO][  4].a[ 29] =      1738.900000000000;     BAS[ATNO][  4].d[ 29] =        -0.000125724548;
  BAS[ATNO][  4].a[ 30] =       759.290000000000;     BAS[ATNO][  4].d[ 30] =        -0.000725340661;
  BAS[ATNO][  4].a[ 31] =       345.500000000000;     BAS[ATNO][  4].d[ 31] =        -0.003571535892;
  BAS[ATNO][  4].a[ 32] =       162.360000000000;     BAS[ATNO][  4].d[ 32] =        -0.015091144570;
  BAS[ATNO][  4].a[ 33] =        78.888000000000;     BAS[ATNO][  4].d[ 33] =        -0.043638238974;
  BAS[ATNO][  4].a[ 34] =        39.321000000000;     BAS[ATNO][  4].d[ 34] =        -0.089095952833;
  BAS[ATNO][  4].a[ 35] =        19.918000000000;     BAS[ATNO][  4].d[ 35] =        -0.021623176038;
  BAS[ATNO][  4].a[ 36] =         9.576400000000;     BAS[ATNO][  4].d[ 36] =         0.253816746375;
  BAS[ATNO][  4].a[ 37] =         4.916100000000;     BAS[ATNO][  4].d[ 37] =         0.516579244265;
  BAS[ATNO][  4].a[ 38] =         2.464800000000;     BAS[ATNO][  4].d[ 38] =         0.355444915640;
  BAS[ATNO][  4].a[ 39] =         1.183000000000;     BAS[ATNO][  4].d[ 39] =        -4.058516414177;
[...]
  BAS[ATNO][  9].a[ 10] =         2.808500000000;     BAS[ATNO][  9].d[ 10] =         0.019352474357;
  BAS[ATNO][  9].a[ 11] =      3078.100000000000;     BAS[ATNO][  9].d[ 11] =        -0.000005721917;
  BAS[ATNO][  9].a[ 12] =       999.560000000000;     BAS[ATNO][  9].d[ 12] =         0.000003792747;
  BAS[ATNO][  9].a[ 13] =       380.970000000000;     BAS[ATNO][  9].d[ 13] =        -0.000094233334;
  BAS[ATNO][  9].a[ 14] =       160.280000000000;     BAS[ATNO][  9].d[ 14] =         0.000530366078;
  BAS[ATNO][  9].a[ 15] =        74.494000000000;     BAS[ATNO][  9].d[ 15] =         0.001140979319;
  BAS[ATNO][  9].a[ 16] =        36.065000000000;     BAS[ATNO][  9].d[ 16] =         0.017340942774;
  BAS[ATNO][  9].a[ 17] =        18.164000000000;     BAS[ATNO][  9].d[ 17] =         0.034257609291;
  BAS[ATNO][  9].a[ 18] =         9.466500000000;     BAS[ATNO][  9].d[ 18] =         0.158879418949;
  BAS[ATNO][  9].a[ 19] =         5.163000000000;     BAS[ATNO][  9].d[ 19] =        -0.003446933228;
  BAS[ATNO][  9].a[ 20] =         2.808500000000;     BAS[ATNO][  9].d[ 20] =        -0.002493972223;
  BAS[ATNO][  9].a[ 21] =         1.523500000000;     BAS[ATNO][  9].d[ 21] =        -1.767866169228;
  BAS[ATNO][  9].a[ 22] =         0.743790000000;     BAS[ATNO][  9].d[ 22] =         2.087036336947;
  BAS[ATNO][  9].a[ 23] =         0.356800000000;     BAS[ATNO][  9].d[ 23] =        -0.179604182884;
  BAS[ATNO][  9].a[ 24] =         0.162210000000;     BAS[ATNO][  9].d[ 24] =         0.187599696861;
  BAS[ATNO][  9].a[ 25] =         0.069956000000;     BAS[ATNO][  9].d[ 25] =        -0.053725684785;

  // Basis function  11 L = p
  InitBFNGauss(BAS[ATNO][ 10]);
  BAS[ATNO][ 10].l  = 1;
  BAS[ATNO][ 10].ng = 26;
  BAS[ATNO][ 10].a[  0] =     13006.000000000000;     BAS[ATNO][ 10].d[  0] =         0.000000036106;
  BAS[ATNO][ 10].a[  1] =      3078.100000000000;     BAS[ATNO][ 10].d[  1] =         0.000000322357;
  BAS[ATNO][ 10].a[  2] =       999.560000000000;     BAS[ATNO][ 10].d[  2] =         0.000001879416;
  BAS[ATNO][ 10].a[  3] =       380.970000000000;     BAS[ATNO][ 10].d[  3] =         0.000008554126;
  BAS[ATNO][ 10].a[  4] =       160.280000000000;     BAS[ATNO][ 10].d[  4] =         0.000031513407;
  BAS[ATNO][ 10].a[  5] =        74.494000000000;     BAS[ATNO][ 10].d[  5] =         0.000090637595;
  BAS[ATNO][ 10].a[  6] =        36.065000000000;     BAS[ATNO][ 10].d[  6] =         0.000225667758;
  BAS[ATNO][ 10].a[  7] =        18.164000000000;     BAS[ATNO][ 10].d[  7] =         0.000433708077;
  BAS[ATNO][ 10].a[  8] =         9.466500000000;     BAS[ATNO][ 10].d[  8] =         0.000608279524;
  BAS[ATNO][ 10].a[  9] =         5.163000000000;     BAS[ATNO][ 10].d[  9] =         0.000599183367;
  BAS[ATNO][ 10].a[ 10] =         2.808500000000;     BAS[ATNO][ 10].d[ 10] =         0.000392002821;
  BAS[ATNO][ 10].a[ 11] =      3078.100000000000;     BAS[ATNO][ 10].d[ 11] =        -0.000005405968;
  BAS[ATNO][ 10].a[ 12] =       999.560000000000;     BAS[ATNO][ 10].d[ 12] =         0.000003583322;
  BAS[ATNO][ 10].a[ 13] =       380.970000000000;     BAS[ATNO][ 10].d[ 13] =        -0.000089030021;
  BAS[ATNO][ 10].a[ 14] =       160.280000000000;     BAS[ATNO][ 10].d[ 14] =         0.000501080679;
  BAS[ATNO][ 10].a[ 15] =        74.494000000000;     BAS[ATNO][ 10].d[ 15] =         0.001077977487;
  BAS[ATNO][ 10].a[ 16] =        36.065000000000;     BAS[ATNO][ 10].d[ 16] =         0.016383422208;
  BAS[ATNO][ 10].a[ 17] =        18.164000000000;     BAS[ATNO][ 10].d[ 17] =         0.032365995561;
  BAS[ATNO][ 10].a[ 18] =         9.466500000000;     BAS[ATNO][ 10].d[ 18] =         0.150106521584;
  BAS[ATNO][ 10].a[ 19] =         5.163000000000;     BAS[ATNO][ 10].d[ 19] =        -0.003256602777;
  BAS[ATNO][ 10].a[ 20] =         2.808500000000;     BAS[ATNO][ 10].d[ 20] =        -0.002356261735;
  BAS[ATNO][ 10].a[ 21] =         1.523500000000;     BAS[ATNO][ 10].d[ 21] =        -1.670249318913;
  BAS[ATNO][ 10].a[ 22] =         0.743790000000;     BAS[ATNO][ 10].d[ 22] =         3.320458162445;
  BAS[ATNO][ 10].a[ 23] =         0.356800000000;     BAS[ATNO][ 10].d[ 23] =        -2.016128865602;
  BAS[ATNO][ 10].a[ 24] =         0.162210000000;     BAS[ATNO][ 10].d[ 24] =        -0.292775416172;
  BAS[ATNO][ 10].a[ 25] =         0.069956000000;     BAS[ATNO][ 10].d[ 25] =         0.007334592745;

  // Basis function  12 L = p
  InitBFNGauss(BAS[ATNO][ 11]);
  BAS[ATNO][ 11].l  = 1;
  BAS[ATNO][ 11].ng = 26;
  BAS[ATNO][ 11].a[  0] =     13006.000000000000;     BAS[ATNO][ 11].d[  0] =         0.000000579351;
  BAS[ATNO][ 11].a[  1] =      3078.100000000000;     BAS[ATNO][ 11].d[  1] =         0.000005172557;
  BAS[ATNO][ 11].a[  2] =       999.560000000000;     BAS[ATNO][ 11].d[  2] =         0.000030157198;
  BAS[ATNO][ 11].a[  3] =       380.970000000000;     BAS[ATNO][ 11].d[  3] =         0.000137259938;
  BAS[ATNO][ 11].a[  4] =       160.280000000000;     BAS[ATNO][ 11].d[  4] =         0.000505665743;
  BAS[ATNO][ 11].a[  5] =        74.494000000000;     BAS[ATNO][ 11].d[  5] =         0.001454375508;
  BAS[ATNO][ 11].a[  6] =        36.065000000000;     BAS[ATNO][ 11].d[  6] =         0.003621076441;
  BAS[ATNO][ 11].a[  7] =        18.164000000000;     BAS[ATNO][ 11].d[  7] =         0.006959302105;
  BAS[ATNO][ 11].a[  8] =         9.466500000000;     BAS[ATNO][ 11].d[  8] =         0.009760484518;
  BAS[ATNO][ 11].a[  9] =         5.163000000000;     BAS[ATNO][ 11].d[  9] =         0.009614527119;
  BAS[ATNO][ 11].a[ 10] =         2.808500000000;     BAS[ATNO][ 11].d[ 10] =         0.006290097428;
  BAS[ATNO][ 11].a[ 11] =      3078.100000000000;     BAS[ATNO][ 11].d[ 11] =         0.000004739686;
  BAS[ATNO][ 11].a[ 12] =       999.560000000000;     BAS[ATNO][ 11].d[ 12] =        -0.000003141680;
  BAS[ATNO][ 11].a[ 13] =       380.970000000000;     BAS[ATNO][ 11].d[ 13] =         0.000078057121;
  BAS[ATNO][ 11].a[ 14] =       160.280000000000;     BAS[ATNO][ 11].d[ 14] =        -0.000439322765;
  BAS[ATNO][ 11].a[ 15] =        74.494000000000;     BAS[ATNO][ 11].d[ 15] =        -0.000945117362;
  BAS[ATNO][ 11].a[ 16] =        36.065000000000;     BAS[ATNO][ 11].d[ 16] =        -0.014364174555;
  BAS[ATNO][ 11].a[ 17] =        18.164000000000;     BAS[ATNO][ 11].d[ 17] =        -0.028376904654;
  BAS[ATNO][ 11].a[ 18] =         9.466500000000;     BAS[ATNO][ 11].d[ 18] =        -0.131605976492;
  BAS[ATNO][ 11].a[ 19] =         5.163000000000;     BAS[ATNO][ 11].d[ 19] =         0.002855228300;
  BAS[ATNO][ 11].a[ 20] =         2.808500000000;     BAS[ATNO][ 11].d[ 20] =         0.002065853789;
  BAS[ATNO][ 11].a[ 21] =         1.523500000000;     BAS[ATNO][ 11].d[ 21] =         1.464392021611;
  BAS[ATNO][ 11].a[ 22] =         0.743790000000;     BAS[ATNO][ 11].d[ 22] =        -3.838630324623;
  BAS[ATNO][ 11].a[ 23] =         0.356800000000;     BAS[ATNO][ 11].d[ 23] =         4.524062057103;
  BAS[ATNO][ 11].a[ 24] =         0.162210000000;     BAS[ATNO][ 11].d[ 24] =        -2.375464098165;
  BAS[ATNO][ 11].a[ 25] =         0.069956000000;     BAS[ATNO][ 11].d[ 25] =        -0.104185687438;

  // Basis function  13 L = p
  InitBFNGauss(BAS[ATNO][ 12]);
  BAS[ATNO][ 12].l  = 1;
  BAS[ATNO][ 12].ng = 26;
  BAS[ATNO][ 12].a[  0] =     13006.000000000000;     BAS[ATNO][ 12].d[  0] =         0.000000535766;
  BAS[ATNO][ 12].a[  1] =      3078.100000000000;     BAS[ATNO][ 12].d[  1] =         0.000004783420;
  BAS[ATNO][ 12].a[  2] =       999.560000000000;     BAS[ATNO][ 12].d[  2] =         0.000027888441;
  BAS[ATNO][ 12].a[  3] =       380.970000000000;     BAS[ATNO][ 12].d[  3] =         0.000126933732;
  BAS[ATNO][ 12].a[  4] =       160.280000000000;     BAS[ATNO][ 12].d[  4] =         0.000467623991;
  BAS[ATNO][ 12].a[  5] =        74.494000000000;     BAS[ATNO][ 12].d[  5] =         0.001344961348;
  BAS[ATNO][ 12].a[  6] =        36.065000000000;     BAS[ATNO][ 12].d[  6] =         0.003348659150;
  BAS[ATNO][ 12].a[  7] =        18.164000000000;     BAS[ATNO][ 12].d[  7] =         0.006435746676;
  BAS[ATNO][ 12].a[  8] =         9.466500000000;     BAS[ATNO][ 12].d[  8] =         0.009026193265;
  BAS[ATNO][ 12].a[  9] =         5.163000000000;     BAS[ATNO][ 12].d[  9] =         0.008891216390;
  BAS[ATNO][ 12].a[ 10] =         2.808500000000;     BAS[ATNO][ 12].d[ 10] =         0.005816886952;
  BAS[ATNO][ 12].a[ 11] =      3078.100000000000;     BAS[ATNO][ 12].d[ 11] =         0.000003071162;
  BAS[ATNO][ 12].a[ 12] =       999.560000000000;     BAS[ATNO][ 12].d[ 12] =        -0.000002035706;
  BAS[ATNO][ 12].a[ 13] =       380.970000000000;     BAS[ATNO][ 12].d[ 13] =         0.000050578470;
  BAS[ATNO][ 12].a[ 14] =       160.280000000000;     BAS[ATNO][ 12].d[ 14] =        -0.000284666832;
  BAS[ATNO][ 12].a[ 15] =        74.494000000000;     BAS[ATNO][ 12].d[ 15] =        -0.000612405246;
  BAS[ATNO][ 12].a[ 16] =        36.065000000000;     BAS[ATNO][ 12].d[ 16] =        -0.009307516925;
  BAS[ATNO][ 12].a[ 17] =        18.164000000000;     BAS[ATNO][ 12].d[ 17] =        -0.018387309297;
  BAS[ATNO][ 12].a[ 18] =         9.466500000000;     BAS[ATNO][ 12].d[ 18] =        -0.085276383195;
  BAS[ATNO][ 12].a[ 19] =         5.163000000000;     BAS[ATNO][ 12].d[ 19] =         0.001850094875;
  BAS[ATNO][ 12].a[ 20] =         2.808500000000;     BAS[ATNO][ 12].d[ 20] =         0.001338605921;
  BAS[ATNO][ 12].a[ 21] =         1.523500000000;     BAS[ATNO][ 12].d[ 21] =         0.948878299535;
  BAS[ATNO][ 12].a[ 22] =         0.743790000000;     BAS[ATNO][ 12].d[ 22] =        -2.827990973456;
  BAS[ATNO][ 12].a[ 23] =         0.356800000000;     BAS[ATNO][ 12].d[ 23] =         4.351965613634;
  BAS[ATNO][ 12].a[ 24] =         0.162210000000;     BAS[ATNO][ 12].d[ 24] =        -4.345285741901;
  BAS[ATNO][ 12].a[ 25] =         0.069956000000;     BAS[ATNO][ 12].d[ 25] =         2.410291959592;

  // Basis function  14 L = d
  InitBFNGauss(BAS[ATNO][ 13]);
  BAS[ATNO][ 13].l  = 2;
  BAS[ATNO][ 13].ng = 6;
  BAS[ATNO][ 13].a[  0] =        26.330000000000;     BAS[ATNO][ 13].d[  0] =         0.064428901890;
  BAS[ATNO][ 13].a[  1] =         7.530000000000;     BAS[ATNO][ 13].d[  1] =         0.413011641981;
  BAS[ATNO][ 13].a[  2] =         2.600000000000;     BAS[ATNO][ 13].d[  2] =         0.628210175376;
  BAS[ATNO][ 13].a[  3] =         0.930000000000;     BAS[ATNO][ 13].d[  3] =         0.066064367461;
  BAS[ATNO][ 13].a[  4] =         0.410000000000;     BAS[ATNO][ 13].d[  4] =        -0.000851127716;
  BAS[ATNO][ 13].a[  5] =         0.170000000000;     BAS[ATNO][ 13].d[  5] =        -0.000983707505;

  // Basis function  15 L = d
  InitBFNGauss(BAS[ATNO][ 14]);
  BAS[ATNO][ 14].l  = 2;
  BAS[ATNO][ 14].ng = 6;
  BAS[ATNO][ 14].a[  0] =        26.330000000000;     BAS[ATNO][ 14].d[  0] =        -0.049216857232;
  BAS[ATNO][ 14].a[  1] =         7.530000000000;     BAS[ATNO][ 14].d[  1] =        -0.366720375381;
  BAS[ATNO][ 14].a[  2] =         2.600000000000;     BAS[ATNO][ 14].d[  2] =        -0.262081971135;
  BAS[ATNO][ 14].a[  3] =         0.930000000000;     BAS[ATNO][ 14].d[  3] =         1.012599327282;
  BAS[ATNO][ 14].a[  4] =         0.410000000000;     BAS[ATNO][ 14].d[  4] =         0.074306860557;
  BAS[ATNO][ 14].a[  5] =         0.170000000000;     BAS[ATNO][ 14].d[  5] =         0.012588805236;

  // Basis function  16 L = d
  InitBFNGauss(BAS[ATNO][ 15]);
  BAS[ATNO][ 15].l  = 2;
  BAS[ATNO][ 15].ng = 6;
  BAS[ATNO][ 15].a[  0] =        26.330000000000;     BAS[ATNO][ 15].d[  0] =         0.036268660567;
  BAS[ATNO][ 15].a[  1] =         7.530000000000;     BAS[ATNO][ 15].d[  1] =         0.296876189768;
  BAS[ATNO][ 15].a[  2] =         2.600000000000;     BAS[ATNO][ 15].d[  2] =         0.044563705406;
  BAS[ATNO][ 15].a[  3] =         0.930000000000;     BAS[ATNO][ 15].d[  3] =        -1.188435424821;
  BAS[ATNO][ 15].a[  4] =         0.410000000000;     BAS[ATNO][ 15].d[  4] =         1.412418611544;
  BAS[ATNO][ 15].a[  5] =         0.170000000000;     BAS[ATNO][ 15].d[  5] =         0.087702138782;

  // Basis function  17 L = d
  InitBFNGauss(BAS[ATNO][ 16]);
  BAS[ATNO][ 16].l  = 2;
  BAS[ATNO][ 16].ng = 6;
  BAS[ATNO][ 16].a[  0] =        26.330000000000;     BAS[ATNO][ 16].d[  0] =         0.024571535947;
  BAS[ATNO][ 16].a[  1] =         7.530000000000;     BAS[ATNO][ 16].d[  1] =         0.219410417502;
  BAS[ATNO][ 16].a[  2] =         2.600000000000;     BAS[ATNO][ 16].d[  2] =        -0.066818235907;
  BAS[ATNO][ 16].a[  3] =         0.930000000000;     BAS[ATNO][ 16].d[  3] =        -0.822264143807;
  BAS[ATNO][ 16].a[  4] =         0.410000000000;     BAS[ATNO][ 16].d[  4] =         1.822622500874;
  BAS[ATNO][ 16].a[  5] =         0.170000000000;     BAS[ATNO][ 16].d[  5] =        -1.617802808819;

  // Basis function  18 L = d
  InitBFNGauss(BAS[ATNO][ 17]);
  BAS[ATNO][ 17].l  = 2;
  BAS[ATNO][ 17].ng = 6;
  BAS[ATNO][ 17].a[  0] =        26.330000000000;     BAS[ATNO][ 17].d[  0] =         0.097820407064;
  BAS[ATNO][ 17].a[  1] =         7.530000000000;     BAS[ATNO][ 17].d[  1] =         1.109059997803;
  BAS[ATNO][ 17].a[  2] =         2.600000000000;     BAS[ATNO][ 17].d[  2] =        -1.866831260925;
  BAS[ATNO][ 17].a[  3] =         0.930000000000;     BAS[ATNO][ 17].d[  3] =         1.952090407673;
  BAS[ATNO][ 17].a[  4] =         0.410000000000;     BAS[ATNO][ 17].d[  4] =        -1.437548568189;
  BAS[ATNO][ 17].a[  5] =         0.170000000000;     BAS[ATNO][ 17].d[  5] =         0.546547714768;

  // Basis function  19 L = d
  InitBFNGauss(BAS[ATNO][ 18]);
  BAS[ATNO][ 18].l  = 2;
  BAS[ATNO][ 18].ng = 6;
  BAS[ATNO][ 18].a[  0] =        26.330000000000;     BAS[ATNO][ 18].d[  0] =         1.235287617990;
  BAS[ATNO][ 18].a[  1] =         7.530000000000;     BAS[ATNO][ 18].d[  1] =        -1.134192879062;
  BAS[ATNO][ 18].a[  2] =         2.600000000000;     BAS[ATNO][ 18].d[  2] =         0.765823161999;
  BAS[ATNO][ 18].a[  3] =         0.930000000000;     BAS[ATNO][ 18].d[  3] =        -0.503332555140;
  BAS[ATNO][ 18].a[  4] =         0.410000000000;     BAS[ATNO][ 18].d[  4] =         0.302463394475;
  BAS[ATNO][ 18].a[  5] =         0.170000000000;     BAS[ATNO][ 18].d[  5] =        -0.101323956460;

  // Basis function  20 L = f
  InitBFNGauss(BAS[ATNO][ 19]);
  BAS[ATNO][ 19].l  = 3;
  BAS[ATNO][ 19].ng = 3;
  BAS[ATNO][ 19].a[  0] =         4.530000000000;     BAS[ATNO][ 19].d[  0] =         0.340513753935;
  BAS[ATNO][ 19].a[  1] =         1.060000000000;     BAS[ATNO][ 19].d[  1] =         0.858239277859;
  BAS[ATNO][ 19].a[  2] =         0.440000000000;     BAS[ATNO][ 19].d[  2] =        -0.042252946463;

  // Basis function  21 L = f
  InitBFNGauss(BAS[ATNO][ 20]);
  BAS[ATNO][ 20].l  = 3;
  BAS[ATNO][ 20].ng = 3;
  BAS[ATNO][ 20].a[  0] =         4.530000000000;     BAS[ATNO][ 20].d[  0] =        -0.328446142448;
  BAS[ATNO][ 20].a[  1] =         1.060000000000;     BAS[ATNO][ 20].d[  1] =        -0.452171539310;
  BAS[ATNO][ 20].a[  2] =         0.440000000000;     BAS[ATNO][ 20].d[  2] =         1.154458106024;

  // Basis function  22 L = f
  InitBFNGauss(BAS[ATNO][ 21]);
  BAS[ATNO][ 21].l  = 3;
  BAS[ATNO][ 21].ng = 3;
  BAS[ATNO][ 21].a[  0] =         4.530000000000;     BAS[ATNO][ 21].d[  0] =        -0.973762730781;
  BAS[ATNO][ 21].a[  1] =         1.060000000000;     BAS[ATNO][ 21].d[  1] =         1.050664766644;
  BAS[ATNO][ 21].a[  2] =         0.440000000000;     BAS[ATNO][ 21].d[  2] =        -0.701986269820;

  // Basis function  23 L = g
  InitBFNGauss(BAS[ATNO][ 22]);
  BAS[ATNO][ 22].l  = 4;
  BAS[ATNO][ 22].ng = 2;
  BAS[ATNO][ 22].a[  0] =         2.180000000000;     BAS[ATNO][ 22].d[  0] =         0.303513883491;
  BAS[ATNO][ 22].a[  1] =         0.730000000000;     BAS[ATNO][ 22].d[  1] =         0.824374342837;

  // Basis function  24 L = g
  InitBFNGauss(BAS[ATNO][ 23]);
  BAS[ATNO][ 23].l  = 4;
  BAS[ATNO][ 23].ng = 2;
  BAS[ATNO][ 23].a[  0] =         2.180000000000;     BAS[ATNO][ 23].d[  0] =         1.081980318504;
  BAS[ATNO][ 23].a[  1] =         0.730000000000;     BAS[ATNO][ 23].d[  1] =        -0.763681235841;

  // Basis function  25 L = h
  InitBFNGauss(BAS[ATNO][ 24]);
  BAS[ATNO][ 24].l  = 5;
  BAS[ATNO][ 24].ng = 1;
  BAS[ATNO][ 24].a[  0] =         1.120000000000;     BAS[ATNO][ 24].d[  0] =         1.000000000000;

-------
TIMINGS
-------

Total SCF time: 0 days 0 hours 0 min 1 sec 

Total time                  ....       1.996 sec
Sum of individual times     ....       1.751 sec  ( 87.7%)

Fock matrix formation       ....       1.213 sec  ( 60.8%)
  XC integration            ....       0.027 sec  (  2.2% of F)
    Basis function eval.    ....       0.005 sec  ( 19.1% of XC)
    Density eval.           ....       0.003 sec  (  9.4% of XC)
    XC-Functional eval.     ....       0.001 sec  (  4.5% of XC)
    XC-Potential eval.      ....       0.005 sec  ( 19.2% of XC)
Diagonalization             ....       0.002 sec  (  0.1%)
Density matrix formation    ....       0.001 sec  (  0.1%)
Population analysis         ....       0.001 sec  (  0.1%)
Initial guess               ....       0.086 sec  (  4.3%)
Orbital Transformation      ....       0.000 sec  (  0.0%)
Orbital Orthonormalization  ....       0.000 sec  (  0.0%)
DIIS solution               ....       0.000 sec  (  0.0%)
SOSCF solution              ....       0.002 sec  (  0.1%)
Grid generation             ....       0.445 sec  ( 22.3%)

-------------------------   --------------------
FINAL SINGLE POINT ENERGY      -311.695960866509
-------------------------   --------------------


                            ***************************************
                            *     ORCA property calculations      *
                            ***************************************

                                    ---------------------
                                    Active property flags
                                    ---------------------
   (+) Dipole Moment


------------------------------------------------------------------------------
                       ORCA ELECTRIC PROPERTIES CALCULATION
------------------------------------------------------------------------------

Dipole Moment Calculation                       ... on
Quadrupole Moment Calculation                   ... off
Polarizability Calculation                      ... off
GBWName                                         ... Ar_pc-4_548.143956_.gbw
Electron density file                           ... Ar_pc-4_548.143956_.scfp
The origin for moment calculation is the CENTER OF MASS  = ( 0.000000,  0.000000  0.000000)

-------------
DIPOLE MOMENT
-------------
                                X             Y             Z
Electronic contribution:      0.00000       0.00000      -0.00000
Nuclear contribution   :      0.00000       0.00000       0.00000
                        -----------------------------------------
Total Dipole Moment    :      0.00000       0.00000      -0.00000
                        -----------------------------------------
Magnitude (a.u.)       :      0.00000
Magnitude (Debye)      :      0.00000



--------------------
Rotational spectrum 
--------------------
 
Rotational constants in cm-1:     0.000000     0.000000     0.000000 
Rotational constants in MHz :     0.000000     0.000000     0.000000 

 Dipole components along the rotational axes: 
x,y,z [a.u.] :     0.000000     0.000000    -0.000000 
x,y,z [Debye]:     0.000000     0.000000    -0.000000 

 

Timings for individual modules:

Sum of individual times         ...        3.445 sec (=   0.057 min)
GTO integral calculation        ...        0.814 sec (=   0.014 min)  23.6 %
Relativistic integrals          ...        0.375 sec (=   0.006 min)  10.9 %
SCF iterations                  ...        2.255 sec (=   0.038 min)  65.5 %
                             ****ORCA TERMINATED NORMALLY****
TOTAL RUN TIME: 0 days 0 hours 0 minutes 3 seconds 800 msec
