
                                 *****************
                                 * O   R   C   A *
                                 *****************

           --- An Ab Initio, DFT and Semiempirical electronic structure package ---

                  #######################################################
                  #                        -***-                        #
                  #          Department of theory and spectroscopy      #
                  #               Directorship: Frank Neese             #
                  #        Max Planck Institute fuer Kohlenforschung    #
                  #                Kaiser Wilhelm Platz 1               #
                  #                 D-45470 Muelheim/Ruhr               #
                  #                      Germany                        #
                  #                                                     #
                  #                  All rights reserved                #
                  #                        -***-                        #
                  #######################################################


                         Program Version 4.2.1 -  RELEASE  -


 With contributions from (in alphabetic order):
   Daniel Aravena         : Magnetic Suceptibility
   Michael Atanasov       : Ab Initio Ligand Field Theory (pilot matlab implementation)
   Alexander A. Auer      : GIAO ZORA, VPT2
   Ute Becker             : Parallelization
   Giovanni Bistoni       : ED, misc. LED, open-shell LED, HFLD
   Martin Brehm           : Molecular dynamics
   Dmytro Bykov           : SCF Hessian
   Vijay G. Chilkuri      : MRCI spin determinant printing, contributions to CSF-ICE
   Dipayan Datta          : RHF DLPNO-CCSD density
   Achintya Kumar Dutta   : EOM-CC, STEOM-CC
   Dmitry Ganyushin       : Spin-Orbit,Spin-Spin,Magnetic field MRCI
   Miquel Garcia          : C-PCM Hessian, Gaussian charge scheme
   Yang Guo               : DLPNO-NEVPT2, CIM, IAO-localization
   Andreas Hansen         : Spin unrestricted coupled pair/coupled cluster methods
   Benjamin Helmich-Paris : CASSCF linear response (MC-RPA)
   Lee Huntington         : MR-EOM, pCC
   Robert Izsak           : Overlap fitted RIJCOSX, COSX-SCS-MP3, EOM
   Christian Kollmar      : KDIIS, OOCD, Brueckner-CCSD(T), CCSD density
   Simone Kossmann        : Meta GGA functionals, TD-DFT gradient, OOMP2, MP2 Hessian
   Martin Krupicka        : AUTO-CI
   Lucas Lang             : DCDCAS
   Dagmar Lenk            : GEPOL surface, SMD
   Dimitrios Liakos       : Extrapolation schemes; Compound Job, initial MDCI parallelization
   Dimitrios Manganas     : Further ROCIS development; embedding schemes
   Dimitrios Pantazis     : SARC Basis sets
   Taras Petrenko         : DFT Hessian,TD-DFT gradient, ASA, ECA, R-Raman, ABS, FL, XAS/XES, NRVS
   Peter Pinski           : DLPNO-MP2, DLPNO-MP2 Gradient
   Christoph Reimann      : Effective Core Potentials
   Marius Retegan         : Local ZFS, SOC
   Christoph Riplinger    : Optimizer, TS searches, QM/MM, DLPNO-CCSD(T), (RO)-DLPNO pert. Triples
   Tobias Risthaus        : Range-separated hybrids, TD-DFT gradient, RPA, STAB
   Michael Roemelt        : Original ROCIS implementation
   Masaaki Saitow         : Open-shell DLPNO-CCSD energy and density
   Barbara Sandhoefer     : DKH picture change effects
   Avijit Sen             : IP-ROCIS
   Kantharuban Sivalingam : CASSCF convergence, NEVPT2, FIC-MRCI
   Bernardo de Souza      : ESD, SOC TD-DFT
   Georgi Stoychev        : AutoAux, RI-MP2 NMR
   Willem Van den Heuvel  : Paramagnetic NMR
   Boris Wezisla          : Elementary symmetry handling
   Frank Wennmohs         : Technical directorship


 We gratefully acknowledge several colleagues who have allowed us to
 interface, adapt or use parts of their codes:
   Stefan Grimme, W. Hujo, H. Kruse,             : VdW corrections, initial TS optimization,
                  C. Bannwarth                     DFT functionals, gCP, sTDA/sTD-DF
   Ed Valeev, F. Pavosevic, A. Kumar             : LibInt (2-el integral package), F12 methods
   Garnet Chan, S. Sharma, J. Yang, R. Olivares  : DMRG
   Ulf Ekstrom                                   : XCFun DFT Library
   Mihaly Kallay                                 : mrcc  (arbitrary order and MRCC methods)
   Andreas Klamt, Michael Diedenhofen            : otool_cosmo (COSMO solvation model)
   Jiri Pittner, Ondrej Demel                    : Mk-CCSD
   Frank Weinhold                                : gennbo (NPA and NBO analysis)
   Christopher J. Cramer and Donald G. Truhlar   : smd solvation model
   Lars Goerigk                                  : TD-DFT with DH, B97 family of functionals
   V. Asgeirsson, H. Jonsson                     : NEB implementation
   FAccTs GmbH                                   : IRC, NEB, NEB-TS, Multilevel, MM, QM/MM, CI optimization
   S Lehtola, MJT Oliveira, MAL Marques          : LibXC Library


 Your calculation uses the libint2 library for the computation of 2-el integrals
 For citations please refer to: http://libint.valeyev.net

 Your ORCA version has been built with support for libXC version: 4.2.3
 For citations please refer to: https://tddft.org/programs/libxc/

 This ORCA versions uses:
   CBLAS   interface :  Fast vector & matrix operations
   LAPACKE interface :  Fast linear algebra routines
   SCALAPACK package :  Parallel linear algebra routines


----- Orbital basis set information -----
Your calculation utilizes the basis: pc-3
   H, C-F              : F. Jensen, J. Chem. Phys. 115, 9113 (2001).
                         F. Jensen, J. Chem. Phys. 116, 7372 (2002).
                         F. Jensen, J. Chem. Phys. 117, 9234 (2002).
   Si-Cl               : F. Jensen, T. Helgaker, J. Chem. Phys. 121, 3463 (2004).
   He-B, Ne-Mg, Al, Ar : F. Jensen, J. Phys. Chem. A 111, 11198 (2007).
   K, Ca, Ga-Kr        : F. Jensen, J. Chem. Phys. 136, 094110 (2012).
   Sc-Zn               : F. Jensen, J. Chem. Phys. 138, 014107 (2013).

================================================================================
                                        WARNINGS
                       Please study these warnings very carefully!
================================================================================


INFO   : the flag for use of LIBINT has been found!

================================================================================
                                       INPUT FILE
================================================================================
NAME = Ar_pc-3_34.25899725_.inp
|  1> ! LDA pc-3 nori grid5 finalgrid6 verytightscf
|  2> %Pal NProcs 18 End
|  3> 
|  4> % REL
|  5>   Method ZORA
|  6>   ModelPot 1, 0, 0, 0
|  7>   velit 34.25899725
|  8> END
|  9> 
| 10> *xyz 16 1
| 11> Ar 0.0 0.0 0.0
| 12> **                         ****END OF INPUT****
================================================================================

                       ****************************
                       * Single Point Calculation *
                       ****************************

---------------------------------
CARTESIAN COORDINATES (ANGSTROEM)
---------------------------------
  Ar     0.000000    0.000000    0.000000

----------------------------
CARTESIAN COORDINATES (A.U.)
----------------------------
  NO LB      ZA    FRAG     MASS         X           Y           Z
   0 Ar   18.0000    0    39.948    0.000000    0.000000    0.000000

--------------------------------
INTERNAL COORDINATES (ANGSTROEM)
--------------------------------
 Ar     0   0   0     0.000000000000     0.00000000     0.00000000

---------------------------
INTERNAL COORDINATES (A.U.)
---------------------------
 Ar     0   0   0     0.000000000000     0.00000000     0.00000000

---------------------
BASIS SET INFORMATION
---------------------
There are 1 groups of distinct atoms

 Group   1 Type Ar  : 35s21p4d2f1g contracted to 6s5p4d2f1g pattern {121010111/99111/1111/11/1}

Atom   0Ar   basis set group =>   1


           ************************************************************
           *        Program running with 18 parallel MPI-processes    *
           *              working on a common directory               *
           ************************************************************
------------------------------------------------------------------------------
                           ORCA GTO INTEGRAL CALCULATION
------------------------------------------------------------------------------

                         BASIS SET STATISTICS AND STARTUP INFO

 # of primitive gaussian shells          ...   63
 # of primitive gaussian functions       ...  141
 # of contracted shells                  ...   18
 # of contracted basis functions         ...   64
 Highest angular momentum                ...    4
 Maximum contraction depth               ...   12
 Integral package used                   ... LIBINT
 Integral threshhold            Thresh   ...  1.000e-12
 Primitive cut-off              TCut     ...  1.000e-14


------------------------------ INTEGRAL EVALUATION ----------------------------


 * One electron integrals 
 Pre-screening matrix                    ... done
 Shell pair data                         ... done (   0.000 sec)



           ************************************************************
           *        Program running with 18 parallel MPI-processes    *
           *              working on a common directory               *
           ************************************************************
------------------------------------------------------------------------------
                          ORCA RELATIVISTIC HAMILTONIAN
------------------------------------------------------------------------------

Relativistic Method            ... ZORA(MP)
Treatment of potential         ... Van Wuellen
Nucleus model                  ... Point Nucleus
Speed of light used            ...  34.25899725000000


            *************************************************
            *         ZERO ORDER REGULAR APPROXIMATION      *
            *                     ZORA(MP)                  *
            *            Programmed by FN according to      *
            *                   C. van Wuellen              *
            *       J. Chem. Phys. (1998) vol 109, 392-399  *
            *************************************************

Terms included in model potential: +V(e,N)
Basis function cutoff value   ... 1.000000e-12
Loading the fitted atomic densities  (DKH4)  ... done
Calculating the cutoffs                      ... done
Number of fit functions                      ... 15
Setting up the integration grid ... done


           ************************************************************
           *        Program running with 18 parallel MPI-processes    *
           *              working on a common directory               *
           ************************************************************
-------------------------------------------------------------------------------
                                 ORCA SCF
-------------------------------------------------------------------------------

------------
SCF SETTINGS
------------
Hamiltonian:
 Density Functional     Method          .... DFT(GTOs)
 Exchange Functional    Exchange        .... Slater
   X-Alpha parameter    XAlpha          ....  0.666667
 Correlation Functional Correlation     .... VWN-5
 Gradients option       PostSCFGGA      .... off
   Density functional embedding theory  .... OFF

Relativistic Settings:
 Scalar relativistic method             .... ZORA
 Speed of light used       Velit        ....       34.2589973
Orbital energies will be scaled


General Settings:
 Integral files         IntName         .... Ar_pc-3_34.25899725_
 Hartree-Fock type      HFTyp           .... RHF
 Total Charge           Charge          ....   16
 Multiplicity           Mult            ....    1
 Number of Electrons    NEL             ....    2
 Basis Dimension        Dim             ....   64
 Nuclear Repulsion      ENuc            ....      0.0000000000 Eh

Convergence Acceleration:
 DIIS                   CNVDIIS         .... on
   Start iteration      DIISMaxIt       ....    12
   Startup error        DIISStart       ....  0.200000
   # of expansion vecs  DIISMaxEq       ....     5
   Bias factor          DIISBfac        ....   1.050
   Max. coefficient     DIISMaxC        ....  10.000
 Newton-Raphson         CNVNR           .... off
 SOSCF                  CNVSOSCF        .... on
   Start iteration      SOSCFMaxIt      ....   150
   Startup grad/error   SOSCFStart      ....  0.003300
 Level Shifting         CNVShift        .... on
   Level shift para.    LevelShift      ....    0.2500
   Turn off err/grad.   ShiftErr        ....    0.0010
 Zerner damping         CNVZerner       .... off
 Static damping         CNVDamp         .... on
   Fraction old density DampFac         ....    0.7000
   Max. Damping (<1)    DampMax         ....    0.9800
   Min. Damping (>=0)   DampMin         ....    0.0000
   Turn off err/grad.   DampErr         ....    0.1000
 Fernandez-Rico         CNVRico         .... off

SCF Procedure:
 Maximum # iterations   MaxIter         ....   125
 SCF integral mode      SCFMode         .... Direct
   Integral package                     .... LIBINT
 Reset frequency        DirectResetFreq ....    20
 Integral Threshold     Thresh          ....  1.000e-12 Eh
 Primitive CutOff       TCut            ....  1.000e-14 Eh

Convergence Tolerance:
 Convergence Check Mode ConvCheckMode   .... Total+1el-Energy
 Convergence forced     ConvForced      .... 0
 Energy Change          TolE            ....  1.000e-09 Eh
 1-El. energy change                    ....  1.000e-06 Eh
 Orbital Gradient       TolG            ....  2.000e-06
 Orbital Rotation angle TolX            ....  2.000e-06
 DIIS Error             TolErr          ....  1.000e-08


Diagonalization of the overlap matrix:
Smallest eigenvalue                        ... 4.993e-03
Time for diagonalization                   ...    0.002 sec
Threshold for overlap eigenvalues          ... 1.000e-08
Number of eigenvalues below threshold      ... 0
Time for construction of square roots      ...    0.001 sec
Total time needed                          ...    0.003 sec

-------------------
DFT GRID GENERATION
-------------------

General Integration Accuracy     IntAcc      ...  5.010
Radial Grid Type                 RadialGrid  ... Gauss-Chebyshev
Angular Grid (max. acc.)         AngularGrid ... Lebedev-434
Angular grid pruning method      GridPruning ... 3 (G Style)
Weight generation scheme         WeightScheme... Becke
Basis function cutoff            BFCut       ...    1.0000e-12
Integration weight cutoff        WCut        ...    1.0000e-14
Grids for H and He will be reduced by one unit

# of grid points (after initial pruning)     ...  11992 (   0.0 sec)
# of grid points (after weights+screening)   ...  11992 (   0.0 sec)
Grid point division into batches done        ...    0.1 sec
Reduced shell lists constructed in    0.1 sec

Total number of grid points                  ...    11992
Total number of batches                      ...      188
Average number of points per batch           ...       63
Average number of grid points per atom       ...    11992
Average number of shells per batch           ...     0.92 ( 5.09%)
Average number of basis functions per batch  ...     2.75 ( 4.30%)
Average number of large shells per batch     ...     0.92 (100.00%)
Average number of large basis fcns per batch ...     2.75 (100.00%)
Maximum spatial batch extension              ...  18.71, 18.71, 18.71 au
Average spatial batch extension              ...   0.97,  0.98,  0.97 au

Time for grid setup =    0.151 sec

------------------------------
INITIAL GUESS: MODEL POTENTIAL
------------------------------
Loading ZORA relativistic densities                ... done
Calculating cut-offs                               ... done
Setting up the integral package                    ... done
Initializing the effective Hamiltonian             ... done
Starting the Coulomb interaction                   ... done (   0.0 sec)
Reading the grid                                   ... done
Mapping shells                                     ... done
Starting the XC term evaluation                    ... done (   0.0 sec)
  promolecular density results
     # of electrons  =     18.000000116
     EX              =    -28.047870263
     EC              =     -1.433252902
     EX+EC           =    -29.481123164
Transforming the Hamiltonian                       ... done (   0.0 sec)
Diagonalizing the Hamiltonian                      ... done (   0.0 sec)
Back transforming the eigenvectors                 ... done (   0.0 sec)
Now organizing SCF variables                       ... done
                      ------------------
                      INITIAL GUESS DONE (   0.2 sec)
                      ------------------
--------------
SCF ITERATIONS
--------------
ITER       Energy         Delta-E        Max-DP      RMS-DP      [F,P]     Damp
               ***  Starting incremental Fock matrix formation  ***
  0   -347.2112737906   0.000000000000 0.03813012  0.00106448  1.0793639 0.7000
                      *** Initiating the SOSCF procedure ***
                      *** Re-Reading the Fockian *** 
                      *** Removing any level shift *** 
ITER      Energy       Delta-E        Grad      Rot      Max-DP    RMS-DP
  1   -347.21672794  -0.0054541495  0.001417  0.001417  0.089133  0.002488
               *** Restarting incremental Fock matrix formation ***
  2   -347.22943639  -0.0127084502  0.001455  0.000011  0.000056  0.000001
  3   -347.22943643  -0.0000000400  0.000005  0.000000  0.000000  0.000000
                 **** Energy Check signals convergence ****
              ***Rediagonalizing the Fockian in SOSCF/NRSCF***

               *****************************************************
               *                     SUCCESS                       *
               *           SCF CONVERGED AFTER   4 CYCLES          *
               *****************************************************

Setting up the final grid:

General Integration Accuracy     IntAcc      ...  5.340
Radial Grid Type                 RadialGrid  ... Gauss-Chebyshev
Angular Grid (max. acc.)         AngularGrid ... Lebedev-590
Angular grid pruning method      GridPruning ... 3 (G Style)
Weight generation scheme         WeightScheme... Becke
Basis function cutoff            BFCut       ...    1.0000e-12
Integration weight cutoff        WCut        ...    1.0000e-14
Grids for H and He will be reduced by one unit

# of grid points (after initial pruning)     ...  18110 (   0.0 sec)
# of grid points (after weights+screening)   ...  18110 (   0.0 sec)
Grid point division into batches done        ...    0.2 sec
Reduced shell lists constructed in    0.2 sec

Total number of grid points                  ...    18110
Total number of batches                      ...      283
Average number of points per batch           ...       63
Average number of grid points per atom       ...    18110
Average number of shells per batch           ...     0.00 ( 0.00%)
Average number of basis functions per batch  ...     0.00 ( 0.00%)
Average number of large shells per batch     ...     0.00 ( -nan%)
Average number of large basis fcns per batch ...     0.00 ( -nan%)
Maximum spatial batch extension              ...  19.03, 19.03, 19.03 au
Average spatial batch extension              ...   0.84,  0.84,  0.80 au

Final grid set up in    0.2 sec
Final integration                            ... done (   0.0 sec)
Change in XC energy                          ...     0.000000799
Integrated number of electrons               ...     2.000000011
Previous integrated no of electrons          ...     1.999999887

----------------
TOTAL SCF ENERGY
----------------

Total Energy       :         -347.22943563 Eh           -9448.59330 eV

Components:
Nuclear Repulsion  :            0.00000000 Eh               0.00000 eV
Electronic Energy  :         -347.22943563 Eh           -9448.59330 eV
One Electron Energy:         -359.73428960 Eh           -9788.86768 eV
Two Electron Energy:           12.50485397 Eh             340.27438 eV

Virial components:
Potential Energy   :         -632.24345562 Eh          -17204.21907 eV
Kinetic Energy     :          285.01401999 Eh            7755.62577 eV
Virial Ratio       :            2.21828897


DFT components:
N(Alpha)           :        1.000000005559 electrons
N(Beta)            :        1.000000005559 electrons
N(Total)           :        2.000000011118 electrons
E(X)               :       -9.581899778307 Eh       
E(C)               :       -0.237742185230 Eh       
E(XC)              :       -9.819641963537 Eh       
DFET-embed. en.    :        0.000000000000 Eh       

---------------
SCF CONVERGENCE
---------------

  Last Energy change         ...    1.1369e-13  Tolerance :   1.0000e-09
  Last MAX-Density change    ...    0.0000e+00  Tolerance :   1.0000e-08
  Last RMS-Density change    ...    0.0000e+00  Tolerance :   1.0000e-09
  Last Orbital Gradient      ...    3.1531e-11  Tolerance :   2.0000e-06
  Last Orbital Rotation      ...    0.0000e+00  Tolerance :   2.0000e-06

================================================================================
                                        WARNING
Number of found core electrons (2) does not match given number of chemical core electrons (10)
================================================================================
             **** THE GBW FILE WAS UPDATED (Ar_pc-3_34.25899725_.gbw) ****
             **** DENSITY FILE WAS UPDATED (Ar_pc-3_34.25899725_.scfp) ****
             **** ENERGY FILE WAS UPDATED (Ar_pc-3_34.25899725_.en.tmp) ****
             **** THE GBW FILE WAS UPDATED (Ar_pc-3_34.25899725_.gbw) ****
             **** DENSITY FILE WAS UPDATED (Ar_pc-3_34.25899725_.scfp) ****
----------------
ORBITAL ENERGIES
----------------

  NO   OCC          E(Eh)            E(eV) 
   0   2.0000    -164.059007     -4464.2725 
   1   0.0000     -35.864246      -975.9158 
   2   0.0000     -34.092667      -927.7086 
   3   0.0000     -34.092667      -927.7086 
   4   0.0000     -34.092667      -927.7086 
   5   0.0000     -14.563101      -396.2821 
   6   0.0000     -14.515163      -394.9777 
   7   0.0000     -14.515163      -394.9777 
   8   0.0000     -14.515163      -394.9777 
   9   0.0000     -14.515163      -394.9777 
  10   0.0000     -14.515163      -394.9777 
  11   0.0000     -13.953197      -379.6858 
  12   0.0000     -13.953197      -379.6858 
  13   0.0000     -13.953197      -379.6858 
  14   0.0000      -8.029790      -218.5017 
  15   0.0000      -8.029790      -218.5017 
  16   0.0000      -8.029790      -218.5017 
  17   0.0000      -8.029790      -218.5017 
  18   0.0000      -8.029790      -218.5017 
  19   0.0000      -7.894605      -214.8231 
  20   0.0000      -7.894605      -214.8231 
  21   0.0000      -7.894605      -214.8231 
  22   0.0000      -7.894605      -214.8231 
  23   0.0000      -7.894605      -214.8231 
  24   0.0000      -7.894605      -214.8231 
  25   0.0000      -7.894605      -214.8231 
  26   0.0000      -7.739870      -210.6126 
  27   0.0000      -7.526847      -204.8159 
  28   0.0000      -7.526847      -204.8159 
  29   0.0000      -7.526847      -204.8159 
  30   0.0000      -4.984323      -135.6303 
  31   0.0000      -4.984323      -135.6303 
  32   0.0000      -4.984323      -135.6303 
  33   0.0000      -4.984323      -135.6303 
  34   0.0000      -4.984323      -135.6303 
  35   0.0000      -4.953396      -134.7888 
  36   0.0000      -4.953396      -134.7888 
  37   0.0000      -4.953396      -134.7888 
  38   0.0000      -4.953396      -134.7888 
  39   0.0000      -4.953396      -134.7888 
  40   0.0000      -4.953396      -134.7888 
  41   0.0000      -4.953396      -134.7888 
  42   0.0000      -4.953396      -134.7888 
  43   0.0000      -4.953396      -134.7888 
  44   0.0000      -4.869951      -132.5181 
  45   0.0000      -4.869951      -132.5181 
  46   0.0000      -4.869951      -132.5181 
  47   0.0000      -4.869951      -132.5181 
  48   0.0000      -4.869951      -132.5181 
  49   0.0000      -4.869951      -132.5181 
  50   0.0000      -4.869951      -132.5181 
  51   0.0000      -4.685755      -127.5059 
  52   0.0000      -4.685755      -127.5059 
  53   0.0000      -4.685755      -127.5059 
  54   0.0000      -4.680669      -127.3675 
  55   0.0000      -3.077019       -83.7300 
  56   0.0000      -3.077019       -83.7300 
  57   0.0000      -3.077019       -83.7300 
  58   0.0000       1.524618        41.4870 
  59   0.0000       1.524618        41.4870 
  60   0.0000       1.524618        41.4870 
  61   0.0000       1.524618        41.4870 
  62   0.0000       1.524618        41.4870 
  63   0.0000       9.747216       265.2352 

                    ********************************
                    * MULLIKEN POPULATION ANALYSIS *
                    ********************************

-----------------------
MULLIKEN ATOMIC CHARGES
-----------------------
   0 Ar:   16.000000
Sum of atomic charges:   16.0000000

--------------------------------
MULLIKEN REDUCED ORBITAL CHARGES
--------------------------------
  0 Ars       :     2.000000  s :     2.000000
      pz      :     0.000000  p :     0.000000
      px      :     0.000000
      py      :     0.000000
      dz2     :     0.000000  d :     0.000000
      dxz     :     0.000000
      dyz     :     0.000000
      dx2y2   :     0.000000
      dxy     :     0.000000
      f0      :     0.000000  f :     0.000000
      f+1     :     0.000000
      f-1     :     0.000000
      f+2     :     0.000000
      f-2     :     0.000000
      f+3     :     0.000000
      f-3     :     0.000000
      g0      :     0.000000  g :     0.000000
      g+1     :     0.000000
      g-1     :     0.000000
      g+2     :     0.000000
      g-2     :     0.000000
      g+3     :     0.000000
      g-3     :     0.000000
      g+4     :     0.000000
      g-4     :     0.000000


                     *******************************
                     * LOEWDIN POPULATION ANALYSIS *
                     *******************************

----------------------
LOEWDIN ATOMIC CHARGES
----------------------
   0 Ar:   16.000000

-------------------------------
LOEWDIN REDUCED ORBITAL CHARGES
-------------------------------
  0 Ars       :     2.000000  s :     2.000000
      pz      :     0.000000  p :     0.000000
      px      :     0.000000
      py      :     0.000000
      dz2     :     0.000000  d :     0.000000
      dxz     :     0.000000
      dyz     :     0.000000
      dx2y2   :     0.000000
      dxy     :     0.000000
      f0      :     0.000000  f :     0.000000
      f+1     :     0.000000
      f-1     :     0.000000
      f+2     :     0.000000
      f-2     :     0.000000
      f+3     :     0.000000
      f-3     :     0.000000
      g0      :     0.000000  g :     0.000000
      g+1     :     0.000000
      g-1     :     0.000000
      g+2     :     0.000000
      g-2     :     0.000000
      g+3     :     0.000000
      g-3     :     0.000000
      g+4     :     0.000000
      g-4     :     0.000000


                      *****************************
                      * MAYER POPULATION ANALYSIS *
                      *****************************

  NA   - Mulliken gross atomic population
  ZA   - Total nuclear charge
  QA   - Mulliken gross atomic charge
  VA   - Mayer's total valence
  BVA  - Mayer's bonded valence
  FA   - Mayer's free valence

  ATOM       NA         ZA         QA         VA         BVA        FA
  0 Ar     2.0000    18.0000    16.0000     0.0000     0.0000     0.0000

  Mayer bond orders larger than 0.100000


--------------------------
ATOM BASIS FOR ELEMENT Ar
--------------------------
 NewGTO Ar
 S 35
    1    1702200.000000000000         0.000011464847
    2     254910.000000000000         0.000089123407
    3      58011.000000000000         0.000468618300
    4      16431.000000000000         0.001974238983
    5       5360.500000000000         0.007139859510
    6       1935.400000000000         0.022759914670
    7        755.090000000000         0.064064405577
    8        313.080000000000         0.153938916419
    9        135.880000000000         0.295177721388
   10         61.092000000000         0.376363558342
   11         28.024000000000         0.239437880999
   12         11.860000000000         0.038655860194
   13      16431.000000000000        -0.000001250592
   14       5360.500000000000        -0.000002080060
   15       1935.400000000000        -0.000051358856
   16        755.090000000000        -0.000233244369
   17        313.080000000000        -0.001730214375
   18        135.880000000000        -0.006835759880
   19         61.092000000000        -0.022582560188
   20         28.024000000000        -0.025821257166
   21         11.860000000000         0.045287727448
   22          5.511700000000         0.117785912530
   23       5360.500000000000         0.000001710333
   24       1935.400000000000         0.000014972909
   25        755.090000000000         0.000109752215
   26        313.080000000000         0.000653418814
   27        135.880000000000         0.003032790407
   28         61.092000000000         0.009494350728
   29         28.024000000000         0.013921384766
   30         11.860000000000        -0.027713302548
   31          5.511700000000        -0.127414458333
   32          2.482200000000        -0.159675946544
   33          0.917610000000         0.214403961968
   34          0.407030000000        -0.150235813756
   35          0.162380000000         0.045339564972
 S 35
    1    1702200.000000000000         0.000002375720
    2     254910.000000000000         0.000018467955
    3      58011.000000000000         0.000097106047
    4      16431.000000000000         0.000409097433
    5       5360.500000000000         0.001479505887
    6       1935.400000000000         0.004716259150
    7        755.090000000000         0.013275284349
    8        313.080000000000         0.031898881592
    9        135.880000000000         0.061166074195
   10         61.092000000000         0.077989223664
   11         28.024000000000         0.049615787823
   12         11.860000000000         0.008010181804
   13      16431.000000000000         0.000004722446
   14       5360.500000000000         0.000007854656
   15       1935.400000000000         0.000193939649
   16        755.090000000000         0.000880769841
   17        313.080000000000         0.006533579556
   18        135.880000000000         0.025812975343
   19         61.092000000000         0.085275533313
   20         28.024000000000         0.097505396078
   21         11.860000000000        -0.171014051484
   22          5.511700000000        -0.444779352917
   23       5360.500000000000         0.000004057407
   24       1935.400000000000         0.000035520102
   25        755.090000000000         0.000260364220
   26        313.080000000000         0.001550099744
   27        135.880000000000         0.007194662189
   28         61.092000000000         0.022523365290
   29         28.024000000000         0.033025579464
   30         11.860000000000        -0.065744025534
   31          5.511700000000        -0.302264206424
   32          2.482200000000        -0.378797853073
   33          0.917610000000         0.374400803056
   34          0.407030000000        -0.257762967328
   35          0.162380000000         0.076975986395
 S 35
    1    1702200.000000000000        -0.000000014756
    2     254910.000000000000        -0.000000114708
    3      58011.000000000000        -0.000000603144
    4      16431.000000000000        -0.000002540981
    5       5360.500000000000        -0.000009189489
    6       1935.400000000000        -0.000029293571
    7        755.090000000000        -0.000082455284
    8        313.080000000000        -0.000198129945
    9        135.880000000000        -0.000379913975
   10         61.092000000000        -0.000484405716
   11         28.024000000000        -0.000308172977
   12         11.860000000000        -0.000049752744
   13      16431.000000000000         0.000005110450
   14       5360.500000000000         0.000008500008
   15       1935.400000000000         0.000209874055
   16        755.090000000000         0.000953135364
   17        313.080000000000         0.007070389377
   18        135.880000000000         0.027933812559
   19         61.092000000000         0.092281913719
   20         28.024000000000         0.105516602458
   21         11.860000000000        -0.185064851907
   22          5.511700000000        -0.481323168270
   23       5360.500000000000         0.000002134691
   24       1935.400000000000         0.000018687907
   25        755.090000000000         0.000136983344
   26        313.080000000000         0.000815541576
   27        135.880000000000         0.003785270052
   28         61.092000000000         0.011850037966
   29         28.024000000000         0.017375483880
   30         11.860000000000        -0.034589378124
   31          5.511700000000        -0.159027848452
   32          2.482200000000        -0.199293883603
   33          0.917610000000         1.952422177474
   34          0.407030000000        -0.793814511817
   35          0.162380000000         0.214746154372
 S 35
    1    1702200.000000000000        -0.000000410130
    2     254910.000000000000        -0.000003188200
    3      58011.000000000000        -0.000016763820
    4      16431.000000000000        -0.000070624189
    5       5360.500000000000        -0.000255413245
    6       1935.400000000000        -0.000814187402
    7        755.090000000000        -0.002291767463
    8        313.080000000000        -0.005506836391
    9        135.880000000000        -0.010559353383
   10         61.092000000000        -0.013463603535
   11         28.024000000000        -0.008565379484
   12         11.860000000000        -0.001382830947
   13      16431.000000000000         0.000004133070
   14       5360.500000000000         0.000006874370
   15       1935.400000000000         0.000169735377
   16        755.090000000000         0.000770847019
   17        313.080000000000         0.005718168464
   18        135.880000000000         0.022591435568
   19         61.092000000000         0.074632880973
   20         28.024000000000         0.085336418748
   21         11.860000000000        -0.149670964852
   22          5.511700000000        -0.389269503411
   23       5360.500000000000         0.000000211880
   24       1935.400000000000         0.000001854877
   25        755.090000000000         0.000013596349
   26        313.080000000000         0.000080946978
   27        135.880000000000         0.000375708831
   28         61.092000000000         0.001176181315
   29         28.024000000000         0.001724612152
   30         11.860000000000        -0.003433185646
   31          5.511700000000        -0.015784386891
   32          2.482200000000        -0.019781011907
   33          0.917610000000         2.540460200768
   34          0.407030000000        -2.981153731529
   35          0.162380000000         0.414670380890
 S 35
    1    1702200.000000000000         0.000000388521
    2     254910.000000000000         0.000003020214
    3      58011.000000000000         0.000015880537
    4      16431.000000000000         0.000066903010
    5       5360.500000000000         0.000241955558
    6       1935.400000000000         0.000771287983
    7        755.090000000000         0.002171014562
    8        313.080000000000         0.005216681966
    9        135.880000000000         0.010002982559
   10         61.092000000000         0.012754208184
   11         28.024000000000         0.008114070860
   12         11.860000000000         0.001309969782
   13      16431.000000000000        -0.000002939881
   14       5360.500000000000        -0.000004889787
   15       1935.400000000000        -0.000120733954
   16        755.090000000000        -0.000548308848
   17        313.080000000000        -0.004067373015
   18        135.880000000000        -0.016069445308
   19         61.092000000000        -0.053086887522
   20         28.024000000000        -0.060700388415
   21         11.860000000000         0.106461998691
   22          5.511700000000         0.276890106264
   23       5360.500000000000         0.000000621546
   24       1935.400000000000         0.000005441253
   25        755.090000000000         0.000039884675
   26        313.080000000000         0.000237456683
   27        135.880000000000         0.001102135925
   28         61.092000000000         0.003450309325
   29         28.024000000000         0.005059122530
   30         11.860000000000        -0.010071195909
   31          5.511700000000        -0.046303249832
   32          2.482200000000        -0.058027286241
   33          0.917610000000        -1.862386433255
   34          0.407030000000         3.806836305965
   35          0.162380000000        -2.627158567057
 S 35
    1    1702200.000000000000        -0.000011203666
    2     254910.000000000000        -0.000087093083
    3      58011.000000000000        -0.000457942689
    4      16431.000000000000        -0.001929263770
    5       5360.500000000000        -0.006977206103
    6       1935.400000000000        -0.022241420200
    7        755.090000000000        -0.062604951949
    8        313.080000000000        -0.150432028184
    9        135.880000000000        -0.288453266635
   10         61.092000000000        -0.367789605988
   11         28.024000000000        -0.233983237642
   12         11.860000000000        -0.037775239591
   13      16431.000000000000         0.000062740376
   14       5360.500000000000         0.000104353571
   15       1935.400000000000         0.002576598570
   16        755.090000000000         0.011701528394
   17        313.080000000000         0.086802321284
   18        135.880000000000         0.342940062150
   19         61.092000000000         1.132933972363
   20         28.024000000000         1.295414656629
   21         11.860000000000        -2.272018961967
   22          5.511700000000        -5.909146733552
   23       5360.500000000000        -0.000056010193
   24       1935.400000000000        -0.000490334788
   25        755.090000000000        -0.003594179849
   26        313.080000000000        -0.021398244621
   27        135.880000000000        -0.099318216156
   28         61.092000000000        -0.310922237027
   29         28.024000000000        -0.455899325609
   30         11.860000000000         0.907558849535
   31          5.511700000000         4.172585314150
   32          2.482200000000         5.229088741483
   33          0.917610000000        -5.877896115401
   34          0.407030000000         4.072410461160
   35          0.162380000000        -1.241753874484
 P 21
    1       4415.500000000000         0.000127135470
    2       1046.300000000000         0.001119210284
    3        339.540000000000         0.006285750580
    4        128.100000000000         0.027046416639
    5         53.823000000000         0.084171040916
    6         24.307000000000         0.203662668932
    7         11.440000000000         0.347479647871
    8          5.513200000000         0.396729605627
    9          2.633100000000         0.231867646992
   10       1046.300000000000        -0.000003742474
   11        339.540000000000         0.000010695205
   12        128.100000000000         0.000017569989
   13         53.823000000000         0.000944754493
   14         24.307000000000         0.003344133795
   15         11.440000000000         0.015167294277
   16          5.513200000000         0.013087523464
   17          2.633100000000        -0.035708890451
   18          1.210900000000        -0.335982444812
   19          0.534110000000         0.269726866024
   20          0.223140000000        -0.138102589665
   21          0.088792000000         0.042626889227
 P 21
    1       4415.500000000000         0.000042547696
    2       1046.300000000000         0.000374559660
    3        339.540000000000         0.002103615943
    4        128.100000000000         0.009051468481
    5         53.823000000000         0.028169037476
    6         24.307000000000         0.068158612405
    7         11.440000000000         0.116289012424
    8          5.513200000000         0.132771212129
    9          2.633100000000         0.077597809964
   10       1046.300000000000        -0.000015865088
   11        339.540000000000         0.000045339091
   12        128.100000000000         0.000074482661
   13         53.823000000000         0.004005001345
   14         24.307000000000         0.014176445252
   15         11.440000000000         0.064297163374
   16          5.513200000000         0.055480603129
   17          2.633100000000        -0.151377056532
   18          1.210900000000        -1.424296103843
   19          0.534110000000         0.653881932229
   20          0.223140000000        -0.320338987988
   21          0.088792000000         0.096069779801
 P 21
    1       4415.500000000000        -0.000014888384
    2       1046.300000000000        -0.000131066743
    3        339.540000000000        -0.000736101935
    4        128.100000000000        -0.003167309836
    5         53.823000000000        -0.009856971788
    6         24.307000000000        -0.023850212141
    7         11.440000000000        -0.040692107984
    8          5.513200000000        -0.046459595696
    9          2.633100000000        -0.027153196992
   10       1046.300000000000         0.000015094990
   11        339.540000000000        -0.000043138314
   12        128.100000000000        -0.000070867244
   13         53.823000000000        -0.003810597003
   14         24.307000000000        -0.013488315019
   15         11.440000000000        -0.061176153754
   16          5.513200000000        -0.052787552814
   17          2.633100000000         0.144029154621
   18          1.210900000000         1.355160210312
   19          0.534110000000        -2.102363810988
   20          0.223140000000         0.400982669265
   21          0.088792000000        -0.121661444443
 P 21
    1       4415.500000000000        -0.000005813592
    2       1046.300000000000        -0.000051178729
    3        339.540000000000        -0.000287431888
    4        128.100000000000        -0.001236766001
    5         53.823000000000        -0.003848934337
    6         24.307000000000        -0.009312992105
    7         11.440000000000        -0.015889388244
    8          5.513200000000        -0.018141467479
    9          2.633100000000        -0.010602736266
   10       1046.300000000000         0.000010743408
   11        339.540000000000        -0.000030702404
   12        128.100000000000        -0.000050437640
   13         53.823000000000        -0.002712078370
   14         24.307000000000        -0.009599904525
   15         11.440000000000        -0.043540296505
   16          5.513200000000        -0.037569960847
   17          2.633100000000         0.102508440181
   18          1.210900000000         0.964494721359
   19          0.534110000000        -2.502347303220
   20          0.223140000000         2.278045032204
   21          0.088792000000        -0.223425405586
 P 21
    1       4415.500000000000         0.000002304166
    2       1046.300000000000         0.000020284240
    3        339.540000000000         0.000113921107
    4        128.100000000000         0.000490181351
    5         53.823000000000         0.001525491348
    6         24.307000000000         0.003691122694
    7         11.440000000000         0.006297619592
    8          5.513200000000         0.007190211433
    9          2.633100000000         0.004202301474
   10       1046.300000000000        -0.000005726588
   11        339.540000000000         0.000016365385
   12        128.100000000000         0.000026884911
   13         53.823000000000         0.001445626463
   14         24.307000000000         0.005117063052
   15         11.440000000000         0.023208401910
   16          5.513200000000         0.020026017759
   17          2.633100000000        -0.054640350889
   18          1.210900000000        -0.514107227780
   19          0.534110000000         1.660338098592
   20          0.223140000000        -2.575860815656
   21          0.088792000000         1.975148149710
 D 4
    1         10.860000000000         0.345757605128
    2          2.860000000000         0.755983695057
    3          0.840000000000         0.060761895598
    4          0.310000000000        -0.003019532961
 D 4
    1         10.860000000000         0.285783907569
    2          2.860000000000         0.351067444389
    3          0.840000000000        -1.080980070494
    4          0.310000000000         0.000575280775
 D 4
    1         10.860000000000         0.198723897357
    2          2.860000000000         0.108124390119
    3          0.840000000000        -0.936251629765
    4          0.310000000000         1.337454425268
 D 4
    1         10.860000000000         1.071774324884
    2          2.860000000000        -1.191820899027
    3          0.840000000000         0.882681876352
    4          0.310000000000        -0.428719765574
 F 2
    1          1.910000000000         0.799989787654
    2          0.630000000000         0.315059147815
 F 2
    1          1.910000000000         0.851673637652
    2          0.630000000000        -1.125197484355
 G 1
    1          0.930000000000         1.000000000000
 end
  // -----------------------------------------------
  // The basis set
  // -----------------------------------------------
  BAS[ATNO] = new BFNGauss[NSH];
  // Basis function   1 L = s
  InitBFNGauss(BAS[ATNO][  0]);
  BAS[ATNO][  0].l  = 0;
  BAS[ATNO][  0].ng = 35;
  BAS[ATNO][  0].a[  0] =   1702200.000000000000;     BAS[ATNO][  0].d[  0] =         0.000011464847;
  BAS[ATNO][  0].a[  1] =    254910.000000000000;     BAS[ATNO][  0].d[  1] =         0.000089123407;
  BAS[ATNO][  0].a[  2] =     58011.000000000000;     BAS[ATNO][  0].d[  2] =         0.000468618300;
  BAS[ATNO][  0].a[  3] =     16431.000000000000;     BAS[ATNO][  0].d[  3] =         0.001974238983;
  BAS[ATNO][  0].a[  4] =      5360.500000000000;     BAS[ATNO][  0].d[  4] =         0.007139859510;
  BAS[ATNO][  0].a[  5] =      1935.400000000000;     BAS[ATNO][  0].d[  5] =         0.022759914670;
  BAS[ATNO][  0].a[  6] =       755.090000000000;     BAS[ATNO][  0].d[  6] =         0.064064405577;
  BAS[ATNO][  0].a[  7] =       313.080000000000;     BAS[ATNO][  0].d[  7] =         0.153938916419;
  BAS[ATNO][  0].a[  8] =       135.880000000000;     BAS[ATNO][  0].d[  8] =         0.295177721388;
  BAS[ATNO][  0].a[  9] =        61.092000000000;     BAS[ATNO][  0].d[  9] =         0.376363558342;
  BAS[ATNO][  0].a[ 10] =        28.024000000000;     BAS[ATNO][  0].d[ 10] =         0.239437880999;
  BAS[ATNO][  0].a[ 11] =        11.860000000000;     BAS[ATNO][  0].d[ 11] =         0.038655860194;
  BAS[ATNO][  0].a[ 12] =     16431.000000000000;     BAS[ATNO][  0].d[ 12] =        -0.000001250592;
  BAS[ATNO][  0].a[ 13] =      5360.500000000000;     BAS[ATNO][  0].d[ 13] =        -0.000002080060;
  BAS[ATNO][  0].a[ 14] =      1935.400000000000;     BAS[ATNO][  0].d[ 14] =        -0.000051358856;
  BAS[ATNO][  0].a[ 15] =       755.090000000000;     BAS[ATNO][  0].d[ 15] =        -0.000233244369;
  BAS[ATNO][  0].a[ 16] =       313.080000000000;     BAS[ATNO][  0].d[ 16] =        -0.001730214375;
  BAS[ATNO][  0].a[ 17] =       135.880000000000;     BAS[ATNO][  0].d[ 17] =        -0.006835759880;
  BAS[ATNO][  0].a[ 18] =        61.092000000000;     BAS[ATNO][  0].d[ 18] =        -0.022582560188;
  BAS[ATNO][  0].a[ 19] =        28.024000000000;     BAS[ATNO][  0].d[ 19] =        -0.025821257166;
  BAS[ATNO][  0].a[ 20] =        11.860000000000;     BAS[ATNO][  0].d[ 20] =         0.045287727448;
  BAS[ATNO][  0].a[ 21] =         5.511700000000;     BAS[ATNO][  0].d[ 21] =         0.117785912530;
  BAS[ATNO][  0].a[ 22] =      5360.500000000000;     BAS[ATNO][  0].d[ 22] =         0.000001710333;
  BAS[ATNO][  0].a[ 23] =      1935.400000000000;     BAS[ATNO][  0].d[ 23] =         0.000014972909;
  BAS[ATNO][  0].a[ 24] =       755.090000000000;     BAS[ATNO][  0].d[ 24] =         0.000109752215;
  BAS[ATNO][  0].a[ 25] =       313.080000000000;     BAS[ATNO][  0].d[ 25] =         0.000653418814;
  BAS[ATNO][  0].a[ 26] =       135.880000000000;     BAS[ATNO][  0].d[ 26] =         0.003032790407;
  BAS[ATNO][  0].a[ 27] =        61.092000000000;     BAS[ATNO][  0].d[ 27] =         0.009494350728;
  BAS[ATNO][  0].a[ 28] =        28.024000000000;     BAS[ATNO][  0].d[ 28] =         0.013921384766;
  BAS[ATNO][  0].a[ 29] =        11.860000000000;     BAS[ATNO][  0].d[ 29] =        -0.027713302548;
  BAS[ATNO][  0].a[ 30] =         5.511700000000;     BAS[ATNO][  0].d[ 30] =        -0.127414458333;
  BAS[ATNO][  0].a[ 31] =         2.482200000000;     BAS[ATNO][  0].d[ 31] =        -0.159675946544;
  BAS[ATNO][  0].a[ 32] =         0.917610000000;     BAS[ATNO][  0].d[ 32] =         0.214403961968;
  BAS[ATNO][  0].a[ 33] =         0.407030000000;     BAS[ATNO][  0].d[ 33] =        -0.150235813756;
  BAS[ATNO][  0].a[ 34] =         0.162380000000;     BAS[ATNO][  0].d[ 34] =         0.045339564972;

  // Basis function   2 L = s
  InitBFNGauss(BAS[ATNO][  1]);
  BAS[ATNO][  1].l  = 0;
  BAS[ATNO][  1].ng = 35;
  BAS[ATNO][  1].a[  0] =   1702200.000000000000;     BAS[ATNO][  1].d[  0] =        -0.000002375720;
  BAS[ATNO][  1].a[  1] =    254910.000000000000;     BAS[ATNO][  1].d[  1] =        -0.000018467955;
  BAS[ATNO][  1].a[  2] =     58011.000000000000;     BAS[ATNO][  1].d[  2] =        -0.000097106047;
  BAS[ATNO][  1].a[  3] =     16431.000000000000;     BAS[ATNO][  1].d[  3] =        -0.000409097433;
  BAS[ATNO][  1].a[  4] =      5360.500000000000;     BAS[ATNO][  1].d[  4] =        -0.001479505887;
  BAS[ATNO][  1].a[  5] =      1935.400000000000;     BAS[ATNO][  1].d[  5] =        -0.004716259150;
  BAS[ATNO][  1].a[  6] =       755.090000000000;     BAS[ATNO][  1].d[  6] =        -0.013275284349;
  BAS[ATNO][  1].a[  7] =       313.080000000000;     BAS[ATNO][  1].d[  7] =        -0.031898881592;
  BAS[ATNO][  1].a[  8] =       135.880000000000;     BAS[ATNO][  1].d[  8] =        -0.061166074195;
  BAS[ATNO][  1].a[  9] =        61.092000000000;     BAS[ATNO][  1].d[  9] =        -0.077989223664;
  BAS[ATNO][  1].a[ 10] =        28.024000000000;     BAS[ATNO][  1].d[ 10] =        -0.049615787823;
  BAS[ATNO][  1].a[ 11] =        11.860000000000;     BAS[ATNO][  1].d[ 11] =        -0.008010181804;
  BAS[ATNO][  1].a[ 12] =     16431.000000000000;     BAS[ATNO][  1].d[ 12] =        -0.000004722446;
  BAS[ATNO][  1].a[ 13] =      5360.500000000000;     BAS[ATNO][  1].d[ 13] =        -0.000007854656;
  BAS[ATNO][  1].a[ 14] =      1935.400000000000;     BAS[ATNO][  1].d[ 14] =        -0.000193939649;
  BAS[ATNO][  1].a[ 15] =       755.090000000000;     BAS[ATNO][  1].d[ 15] =        -0.000880769841;
  BAS[ATNO][  1].a[ 16] =       313.080000000000;     BAS[ATNO][  1].d[ 16] =        -0.006533579556;
  BAS[ATNO][  1].a[ 17] =       135.880000000000;     BAS[ATNO][  1].d[ 17] =        -0.025812975343;
  BAS[ATNO][  1].a[ 18] =        61.092000000000;     BAS[ATNO][  1].d[ 18] =        -0.085275533313;
  BAS[ATNO][  1].a[ 19] =        28.024000000000;     BAS[ATNO][  1].d[ 19] =        -0.097505396078;
  BAS[ATNO][  1].a[ 20] =        11.860000000000;     BAS[ATNO][  1].d[ 20] =         0.171014051484;
  BAS[ATNO][  1].a[ 21] =         5.511700000000;     BAS[ATNO][  1].d[ 21] =         0.444779352917;
  BAS[ATNO][  1].a[ 22] =      5360.500000000000;     BAS[ATNO][  1].d[ 22] =        -0.000004057407;
  BAS[ATNO][  1].a[ 23] =      1935.400000000000;     BAS[ATNO][  1].d[ 23] =        -0.000035520102;
  BAS[ATNO][  1].a[ 24] =       755.090000000000;     BAS[ATNO][  1].d[ 24] =        -0.000260364220;
  BAS[ATNO][  1].a[ 25] =       313.080000000000;     BAS[ATNO][  1].d[ 25] =        -0.001550099744;
  BAS[ATNO][  1].a[ 26] =       135.880000000000;     BAS[ATNO][  1].d[ 26] =        -0.007194662189;
  BAS[ATNO][  1].a[ 27] =        61.092000000000;     BAS[ATNO][  1].d[ 27] =        -0.022523365290;
  BAS[ATNO][  1].a[ 28] =        28.024000000000;     BAS[ATNO][  1].d[ 28] =        -0.033025579464;
  BAS[ATNO][  1].a[ 29] =        11.860000000000;     BAS[ATNO][  1].d[ 29] =         0.065744025534;
  BAS[ATNO][  1].a[ 30] =         5.511700000000;     BAS[ATNO][  1].d[ 30] =         0.302264206424;
  BAS[ATNO][  1].a[ 31] =         2.482200000000;     BAS[ATNO][  1].d[ 31] =         0.378797853073;
  BAS[ATNO][  1].a[ 32] =         0.917610000000;     BAS[ATNO][  1].d[ 32] =        -0.374400803056;
  BAS[ATNO][  1].a[ 33] =         0.407030000000;     BAS[ATNO][  1].d[ 33] =         0.257762967328;
  BAS[ATNO][  1].a[ 34] =         0.162380000000;     BAS[ATNO][  1].d[ 34] =        -0.076975986395;

  // Basis function   3 L = s
  InitBFNGauss(BAS[ATNO][  2]);
  BAS[ATNO][  2].l  = 0;
  BAS[ATNO][  2].ng = 35;
  BAS[ATNO][  2].a[  0] =   1702200.000000000000;     BAS[ATNO][  2].d[  0] =        -0.000000014756;
  BAS[ATNO][  2].a[  1] =    254910.000000000000;     BAS[ATNO][  2].d[  1] =        -0.000000114708;
  BAS[ATNO][  2].a[  2] =     58011.000000000000;     BAS[ATNO][  2].d[  2] =        -0.000000603144;
  BAS[ATNO][  2].a[  3] =     16431.000000000000;     BAS[ATNO][  2].d[  3] =        -0.000002540981;
  BAS[ATNO][  2].a[  4] =      5360.500000000000;     BAS[ATNO][  2].d[  4] =        -0.000009189489;
  BAS[ATNO][  2].a[  5] =      1935.400000000000;     BAS[ATNO][  2].d[  5] =        -0.000029293571;
  BAS[ATNO][  2].a[  6] =       755.090000000000;     BAS[ATNO][  2].d[  6] =        -0.000082455284;
  BAS[ATNO][  2].a[  7] =       313.080000000000;     BAS[ATNO][  2].d[  7] =        -0.000198129945;
  BAS[ATNO][  2].a[  8] =       135.880000000000;     BAS[ATNO][  2].d[  8] =        -0.000379913975;
  BAS[ATNO][  2].a[  9] =        61.092000000000;     BAS[ATNO][  2].d[  9] =        -0.000484405716;
  BAS[ATNO][  2].a[ 10] =        28.024000000000;     BAS[ATNO][  2].d[ 10] =        -0.000308172977;
  BAS[ATNO][  2].a[ 11] =        11.860000000000;     BAS[ATNO][  2].d[ 11] =        -0.000049752744;
  BAS[ATNO][  2].a[ 12] =     16431.000000000000;     BAS[ATNO][  2].d[ 12] =         0.000005110450;
  BAS[ATNO][  2].a[ 13] =      5360.500000000000;     BAS[ATNO][  2].d[ 13] =         0.000008500008;
  BAS[ATNO][  2].a[ 14] =      1935.400000000000;     BAS[ATNO][  2].d[ 14] =         0.000209874055;
  BAS[ATNO][  2].a[ 15] =       755.090000000000;     BAS[ATNO][  2].d[ 15] =         0.000953135364;
  BAS[ATNO][  2].a[ 16] =       313.080000000000;     BAS[ATNO][  2].d[ 16] =         0.007070389377;
  BAS[ATNO][  2].a[ 17] =       135.880000000000;     BAS[ATNO][  2].d[ 17] =         0.027933812559;
  BAS[ATNO][  2].a[ 18] =        61.092000000000;     BAS[ATNO][  2].d[ 18] =         0.092281913719;
  BAS[ATNO][  2].a[ 19] =        28.024000000000;     BAS[ATNO][  2].d[ 19] =         0.105516602458;
  BAS[ATNO][  2].a[ 20] =        11.860000000000;     BAS[ATNO][  2].d[ 20] =        -0.185064851907;
  BAS[ATNO][  2].a[ 21] =         5.511700000000;     BAS[ATNO][  2].d[ 21] =        -0.481323168270;
  BAS[ATNO][  2].a[ 22] =      5360.500000000000;     BAS[ATNO][  2].d[ 22] =         0.000002134691;
  BAS[ATNO][  2].a[ 23] =      1935.400000000000;     BAS[ATNO][  2].d[ 23] =         0.000018687907;
  BAS[ATNO][  2].a[ 24] =       755.090000000000;     BAS[ATNO][  2].d[ 24] =         0.000136983344;
  BAS[ATNO][  2].a[ 25] =       313.080000000000;     BAS[ATNO][  2].d[ 25] =         0.000815541576;
  BAS[ATNO][  2].a[ 26] =       135.880000000000;     BAS[ATNO][  2].d[ 26] =         0.003785270052;
  BAS[ATNO][  2].a[ 27] =        61.092000000000;     BAS[ATNO][  2].d[ 27] =         0.011850037966;
  BAS[ATNO][  2].a[ 28] =        28.024000000000;     BAS[ATNO][  2].d[ 28] =         0.017375483880;
  BAS[ATNO][  2].a[ 29] =        11.860000000000;     BAS[ATNO][  2].d[ 29] =        -0.034589378124;
  BAS[ATNO][  2].a[ 30] =         5.511700000000;     BAS[ATNO][  2].d[ 30] =        -0.159027848452;
  BAS[ATNO][  2].a[ 31] =         2.482200000000;     BAS[ATNO][  2].d[ 31] =        -0.199293883603;
  BAS[ATNO][  2].a[ 32] =         0.917610000000;     BAS[ATNO][  2].d[ 32] =         1.952422177474;
  BAS[ATNO][  2].a[ 33] =         0.407030000000;     BAS[ATNO][  2].d[ 33] =        -0.793814511817;
  BAS[ATNO][  2].a[ 34] =         0.162380000000;     BAS[ATNO][  2].d[ 34] =         0.214746154372;

  // Basis function   4 L = s
  InitBFNGauss(BAS[ATNO][  3]);
  BAS[ATNO][  3].l  = 0;
  BAS[ATNO][  3].ng = 35;
  BAS[ATNO][  3].a[  0] =   1702200.000000000000;     BAS[ATNO][  3].d[  0] =         0.000000410130;
  BAS[ATNO][  3].a[  1] =    254910.000000000000;     BAS[ATNO][  3].d[  1] =         0.000003188200;
  BAS[ATNO][  3].a[  2] =     58011.000000000000;     BAS[ATNO][  3].d[  2] =         0.000016763820;
  BAS[ATNO][  3].a[  3] =     16431.000000000000;     BAS[ATNO][  3].d[  3] =         0.000070624189;
  BAS[ATNO][  3].a[  4] =      5360.500000000000;     BAS[ATNO][  3].d[  4] =         0.000255413245;
  BAS[ATNO][  3].a[  5] =      1935.400000000000;     BAS[ATNO][  3].d[  5] =         0.000814187402;
  BAS[ATNO][  3].a[  6] =       755.090000000000;     BAS[ATNO][  3].d[  6] =         0.002291767463;
  BAS[ATNO][  3].a[  7] =       313.080000000000;     BAS[ATNO][  3].d[  7] =         0.005506836391;
  BAS[ATNO][  3].a[  8] =       135.880000000000;     BAS[ATNO][  3].d[  8] =         0.010559353383;
  BAS[ATNO][  3].a[  9] =        61.092000000000;     BAS[ATNO][  3].d[  9] =         0.013463603535;
  BAS[ATNO][  3].a[ 10] =        28.024000000000;     BAS[ATNO][  3].d[ 10] =         0.008565379484;
  BAS[ATNO][  3].a[ 11] =        11.860000000000;     BAS[ATNO][  3].d[ 11] =         0.001382830947;
  BAS[ATNO][  3].a[ 12] =     16431.000000000000;     BAS[ATNO][  3].d[ 12] =        -0.000004133070;
  BAS[ATNO][  3].a[ 13] =      5360.500000000000;     BAS[ATNO][  3].d[ 13] =        -0.000006874370;
  BAS[ATNO][  3].a[ 14] =      1935.400000000000;     BAS[ATNO][  3].d[ 14] =        -0.000169735377;
  BAS[ATNO][  3].a[ 15] =       755.090000000000;     BAS[ATNO][  3].d[ 15] =        -0.000770847019;
  BAS[ATNO][  3].a[ 16] =       313.080000000000;     BAS[ATNO][  3].d[ 16] =        -0.005718168464;
  BAS[ATNO][  3].a[ 17] =       135.880000000000;     BAS[ATNO][  3].d[ 17] =        -0.022591435568;
  BAS[ATNO][  3].a[ 18] =        61.092000000000;     BAS[ATNO][  3].d[ 18] =        -0.074632880973;
  BAS[ATNO][  3].a[ 19] =        28.024000000000;     BAS[ATNO][  3].d[ 19] =        -0.085336418748;
  BAS[ATNO][  3].a[ 20] =        11.860000000000;     BAS[ATNO][  3].d[ 20] =         0.149670964852;
  BAS[ATNO][  3].a[ 21] =         5.511700000000;     BAS[ATNO][  3].d[ 21] =         0.389269503411;
  BAS[ATNO][  3].a[ 22] =      5360.500000000000;     BAS[ATNO][  3].d[ 22] =        -0.000000211880;
  BAS[ATNO][  3].a[ 23] =      1935.400000000000;     BAS[ATNO][  3].d[ 23] =        -0.000001854877;
  BAS[ATNO][  3].a[ 24] =       755.090000000000;     BAS[ATNO][  3].d[ 24] =        -0.000013596349;
  BAS[ATNO][  3].a[ 25] =       313.080000000000;     BAS[ATNO][  3].d[ 25] =        -0.000080946978;
  BAS[ATNO][  3].a[ 26] =       135.880000000000;     BAS[ATNO][  3].d[ 26] =        -0.000375708831;
  BAS[ATNO][  3].a[ 27] =        61.092000000000;     BAS[ATNO][  3].d[ 27] =        -0.001176181315;
  BAS[ATNO][  3].a[ 28] =        28.024000000000;     BAS[ATNO][  3].d[ 28] =        -0.001724612152;
  BAS[ATNO][  3].a[ 29] =        11.860000000000;     BAS[ATNO][  3].d[ 29] =         0.003433185646;
  BAS[ATNO][  3].a[ 30] =         5.511700000000;     BAS[ATNO][  3].d[ 30] =         0.015784386891;
  BAS[ATNO][  3].a[ 31] =         2.482200000000;     BAS[ATNO][  3].d[ 31] =         0.019781011907;
  BAS[ATNO][  3].a[ 32] =         0.917610000000;     BAS[ATNO][  3].d[ 32] =        -2.540460200768;
  BAS[ATNO][  3].a[ 33] =         0.407030000000;     BAS[ATNO][  3].d[ 33] =         2.981153731529;
  BAS[ATNO][  3].a[ 34] =         0.162380000000;     BAS[ATNO][  3].d[ 34] =        -0.414670380890;

  // Basis function   5 L = s
  InitBFNGauss(BAS[ATNO][  4]);
  BAS[ATNO][  4].l  = 0;
  BAS[ATNO][  4].ng = 35;
  BAS[ATNO][  4].a[  0] =   1702200.000000000000;     BAS[ATNO][  4].d[  0] =         0.000000388521;
  BAS[ATNO][  4].a[  1] =    254910.000000000000;     BAS[ATNO][  4].d[  1] =         0.000003020214;
  BAS[ATNO][  4].a[  2] =     58011.000000000000;     BAS[ATNO][  4].d[  2] =         0.000015880537;
  BAS[ATNO][  4].a[  3] =     16431.000000000000;     BAS[ATNO][  4].d[  3] =         0.000066903010;
  BAS[ATNO][  4].a[  4] =      5360.500000000000;     BAS[ATNO][  4].d[  4] =         0.000241955558;
  BAS[ATNO][  4].a[  5] =      1935.400000000000;     BAS[ATNO][  4].d[  5] =         0.000771287983;
  BAS[ATNO][  4].a[  6] =       755.090000000000;     BAS[ATNO][  4].d[  6] =         0.002171014562;
  BAS[ATNO][  4].a[  7] =       313.080000000000;     BAS[ATNO][  4].d[  7] =         0.005216681966;
  BAS[ATNO][  4].a[  8] =       135.880000000000;     BAS[ATNO][  4].d[  8] =         0.010002982559;
  BAS[ATNO][  4].a[  9] =        61.092000000000;     BAS[ATNO][  4].d[  9] =         0.012754208184;
  BAS[ATNO][  4].a[ 10] =        28.024000000000;     BAS[ATNO][  4].d[ 10] =         0.008114070860;
  BAS[ATNO][  4].a[ 11] =        11.860000000000;     BAS[ATNO][  4].d[ 11] =         0.001309969782;
  BAS[ATNO][  4].a[ 12] =     16431.000000000000;     BAS[ATNO][  4].d[ 12] =        -0.000002939881;
  BAS[ATNO][  4].a[ 13] =      5360.500000000000;     BAS[ATNO][  4].d[ 13] =        -0.000004889787;
  BAS[ATNO][  4].a[ 14] =      1935.400000000000;     BAS[ATNO][  4].d[ 14] =        -0.000120733954;
  BAS[ATNO][  4].a[ 15] =       755.090000000000;     BAS[ATNO][  4].d[ 15] =        -0.000548308848;
  BAS[ATNO][  4].a[ 16] =       313.080000000000;     BAS[ATNO][  4].d[ 16] =        -0.004067373015;
  BAS[ATNO][  4].a[ 17] =       135.880000000000;     BAS[ATNO][  4].d[ 17] =        -0.016069445308;
  BAS[ATNO][  4].a[ 18] =        61.092000000000;     BAS[ATNO][  4].d[ 18] =        -0.053086887522;
  BAS[ATNO][  4].a[ 19] =        28.024000000000;     BAS[ATNO][  4].d[ 19] =        -0.060700388415;
  BAS[ATNO][  4].a[ 20] =        11.860000000000;     BAS[ATNO][  4].d[ 20] =         0.106461998691;
  BAS[ATNO][  4].a[ 21] =         5.511700000000;     BAS[ATNO][  4].d[ 21] =         0.276890106264;
  BAS[ATNO][  4].a[ 22] =      5360.500000000000;     BAS[ATNO][  4].d[ 22] =         0.000000621546;
  BAS[ATNO][  4].a[ 23] =      1935.400000000000;     BAS[ATNO][  4].d[ 23] =         0.000005441253;
  BAS[ATNO][  4].a[ 24] =       755.090000000000;     BAS[ATNO][  4].d[ 24] =         0.000039884675;
  BAS[ATNO][  4].a[ 25] =       313.080000000000;     BAS[ATNO][  4].d[ 25] =         0.000237456683;
  BAS[ATNO][  4].a[ 26] =       135.880000000000;     BAS[ATNO][  4].d[ 26] =         0.001102135925;
  BAS[ATNO][  4].a[ 27] =        61.092000000000;     BAS[ATNO][  4].d[ 27] =         0.003450309325;
  BAS[ATNO][  4].a[ 28] =        28.024000000000;     BAS[ATNO][  4].d[ 28] =         0.005059122530;
  BAS[ATNO][  4].a[ 29] =        11.860000000000;     BAS[ATNO][  4].d[ 29] =        -0.010071195909;
  BAS[ATNO][  4].a[ 30] =         5.511700000000;     BAS[ATNO][  4].d[ 30] =        -0.046303249832;
  BAS[ATNO][  4].a[ 31] =         2.482200000000;     BAS[ATNO][  4].d[ 31] =        -0.058027286241;
  BAS[ATNO][  4].a[ 32] =         0.917610000000;     BAS[ATNO][  4].d[ 32] =        -1.862386433255;
  BAS[ATNO][  4].a[ 33] =         0.407030000000;     BAS[ATNO][  4].d[ 33] =         3.806836305965;
  BAS[ATNO][  4].a[ 34] =         0.162380000000;     BAS[ATNO][  4].d[ 34] =        -2.627158567057;

  // Basis function   6 L = s
  InitBFNGauss(BAS[ATNO][  5]);
  BAS[ATNO][  5].l  = 0;
  BAS[ATNO][  5].ng = 35;
  BAS[ATNO][  5].a[  0] =   1702200.000000000000;     BAS[ATNO][  5].d[  0] =         0.000011203666;
  BAS[ATNO][  5].a[  1] =    254910.000000000000;     BAS[ATNO][  5].d[  1] =         0.000087093083;
  BAS[ATNO][  5].a[  2] =     58011.000000000000;     BAS[ATNO][  5].d[  2] =         0.000457942689;
  BAS[ATNO][  5].a[  3] =     16431.000000000000;     BAS[ATNO][  5].d[  3] =         0.001929263770;
  BAS[ATNO][  5].a[  4] =      5360.500000000000;     BAS[ATNO][  5].d[  4] =         0.006977206103;
  BAS[ATNO][  5].a[  5] =      1935.400000000000;     BAS[ATNO][  5].d[  5] =         0.022241420200;
  BAS[ATNO][  5].a[  6] =       755.090000000000;     BAS[ATNO][  5].d[  6] =         0.062604951949;
  BAS[ATNO][  5].a[  7] =       313.080000000000;     BAS[ATNO][  5].d[  7] =         0.150432028184;
  BAS[ATNO][  5].a[  8] =       135.880000000000;     BAS[ATNO][  5].d[  8] =         0.288453266635;
  BAS[ATNO][  5].a[  9] =        61.092000000000;     BAS[ATNO][  5].d[  9] =         0.367789605988;
  BAS[ATNO][  5].a[ 10] =        28.024000000000;     BAS[ATNO][  5].d[ 10] =         0.233983237642;
  BAS[ATNO][  5].a[ 11] =        11.860000000000;     BAS[ATNO][  5].d[ 11] =         0.037775239591;
  BAS[ATNO][  5].a[ 12] =     16431.000000000000;     BAS[ATNO][  5].d[ 12] =        -0.000062740376;
  BAS[ATNO][  5].a[ 13] =      5360.500000000000;     BAS[ATNO][  5].d[ 13] =        -0.000104353571;
  BAS[ATNO][  5].a[ 14] =      1935.400000000000;     BAS[ATNO][  5].d[ 14] =        -0.002576598570;
  BAS[ATNO][  5].a[ 15] =       755.090000000000;     BAS[ATNO][  5].d[ 15] =        -0.011701528394;
  BAS[ATNO][  5].a[ 16] =       313.080000000000;     BAS[ATNO][  5].d[ 16] =        -0.086802321284;
  BAS[ATNO][  5].a[ 17] =       135.880000000000;     BAS[ATNO][  5].d[ 17] =        -0.342940062150;
  BAS[ATNO][  5].a[ 18] =        61.092000000000;     BAS[ATNO][  5].d[ 18] =        -1.132933972363;
  BAS[ATNO][  5].a[ 19] =        28.024000000000;     BAS[ATNO][  5].d[ 19] =        -1.295414656629;
  BAS[ATNO][  5].a[ 20] =        11.860000000000;     BAS[ATNO][  5].d[ 20] =         2.272018961967;
  BAS[ATNO][  5].a[ 21] =         5.511700000000;     BAS[ATNO][  5].d[ 21] =         5.909146733552;
  BAS[ATNO][  5].a[ 22] =      5360.500000000000;     BAS[ATNO][  5].d[ 22] =         0.000056010193;
  BAS[ATNO][  5].a[ 23] =      1935.400000000000;     BAS[ATNO][  5].d[ 23] =         0.000490334788;
  BAS[ATNO][  5].a[ 24] =       755.090000000000;     BAS[ATNO][  5].d[ 24] =         0.003594179849;
  BAS[ATNO][  5].a[ 25] =       313.080000000000;     BAS[ATNO][  5].d[ 25] =         0.021398244621;
  BAS[ATNO][  5].a[ 26] =       135.880000000000;     BAS[ATNO][  5].d[ 26] =         0.099318216156;
  BAS[ATNO][  5].a[ 27] =        61.092000000000;     BAS[ATNO][  5].d[ 27] =         0.310922237027;
  BAS[ATNO][  5].a[ 28] =        28.024000000000;     BAS[ATNO][  5].d[ 28] =         0.455899325609;
  BAS[ATNO][  5].a[ 29] =        11.860000000000;     BAS[ATNO][  5].d[ 29] =        -0.907558849535;
  BAS[ATNO][  5].a[ 30] =         5.511700000000;     BAS[ATNO][  5].d[ 30] =        -4.172585314150;
  BAS[ATNO][  5].a[ 31] =         2.482200000000;     BAS[ATNO][  5].d[ 31] =        -5.229088741483;
  BAS[ATNO][  5].a[ 32] =         0.917610000000;     BAS[ATNO][  5].d[ 32] =         5.877896115401;
  BAS[ATNO][  5].a[ 33] =         0.407030000000;     BAS[ATNO][  5].d[ 33] =        -4.072410461160;
  BAS[ATNO][  5].a[ 34] =         0.162380000000;     BAS[ATNO][  5].d[ 34] =         1.241753874484;

  // Basis function   7 L = p
  InitBFNGauss(BAS[ATNO][  6]);
  BAS[ATNO][  6].l  = 1;
  BAS[ATNO][  6].ng = 21;
  BAS[ATNO][  6].a[  0] =      4415.500000000000;     BAS[ATNO][  6].d[  0] =         0.000127135470;
  BAS[ATNO][  6].a[  1] =      1046.300000000000;     BAS[ATNO][  6].d[  1] =         0.001119210284;
  BAS[ATNO][  6].a[  2] =       339.540000000000;     BAS[ATNO][  6].d[  2] =         0.006285750580;
  BAS[ATNO][  6].a[  3] =       128.100000000000;     BAS[ATNO][  6].d[  3] =         0.027046416639;
  BAS[ATNO][  6].a[  4] =        53.823000000000;     BAS[ATNO][  6].d[  4] =         0.084171040916;
  BAS[ATNO][  6].a[  5] =        24.307000000000;     BAS[ATNO][  6].d[  5] =         0.203662668932;
  BAS[ATNO][  6].a[  6] =        11.440000000000;     BAS[ATNO][  6].d[  6] =         0.347479647871;
  BAS[ATNO][  6].a[  7] =         5.513200000000;     BAS[ATNO][  6].d[  7] =         0.396729605627;
  BAS[ATNO][  6].a[  8] =         2.633100000000;     BAS[ATNO][  6].d[  8] =         0.231867646992;
  BAS[ATNO][  6].a[  9] =      1046.300000000000;     BAS[ATNO][  6].d[  9] =        -0.000003742474;
  BAS[ATNO][  6].a[ 10] =       339.540000000000;     BAS[ATNO][  6].d[ 10] =         0.000010695205;
  BAS[ATNO][  6].a[ 11] =       128.100000000000;     BAS[ATNO][  6].d[ 11] =         0.000017569989;
  BAS[ATNO][  6].a[ 12] =        53.823000000000;     BAS[ATNO][  6].d[ 12] =         0.000944754493;
  BAS[ATNO][  6].a[ 13] =        24.307000000000;     BAS[ATNO][  6].d[ 13] =         0.003344133795;
  BAS[ATNO][  6].a[ 14] =        11.440000000000;     BAS[ATNO][  6].d[ 14] =         0.015167294277;
  BAS[ATNO][  6].a[ 15] =         5.513200000000;     BAS[ATNO][  6].d[ 15] =         0.013087523464;
  BAS[ATNO][  6].a[ 16] =         2.633100000000;     BAS[ATNO][  6].d[ 16] =        -0.035708890451;
  BAS[ATNO][  6].a[ 17] =         1.210900000000;     BAS[ATNO][  6].d[ 17] =        -0.335982444812;
  BAS[ATNO][  6].a[ 18] =         0.534110000000;     BAS[ATNO][  6].d[ 18] =         0.269726866024;
  BAS[ATNO][  6].a[ 19] =         0.223140000000;     BAS[ATNO][  6].d[ 19] =        -0.138102589665;
  BAS[ATNO][  6].a[ 20] =         0.088792000000;     BAS[ATNO][  6].d[ 20] =         0.042626889227;

  // Basis function   8 L = p
  InitBFNGauss(BAS[ATNO][  7]);
  BAS[ATNO][  7].l  = 1;
  BAS[ATNO][  7].ng = 21;
  BAS[ATNO][  7].a[  0] =      4415.500000000000;     BAS[ATNO][  7].d[  0] =        -0.000042547696;
  BAS[ATNO][  7].a[  1] =      1046.300000000000;     BAS[ATNO][  7].d[  1] =        -0.000374559660;
  BAS[ATNO][  7].a[  2] =       339.540000000000;     BAS[ATNO][  7].d[  2] =        -0.002103615943;
  BAS[ATNO][  7].a[  3] =       128.100000000000;     BAS[ATNO][  7].d[  3] =        -0.009051468481;
  BAS[ATNO][  7].a[  4] =        53.823000000000;     BAS[ATNO][  7].d[  4] =        -0.028169037476;
  BAS[ATNO][  7].a[  5] =        24.307000000000;     BAS[ATNO][  7].d[  5] =        -0.068158612405;
  BAS[ATNO][  7].a[  6] =        11.440000000000;     BAS[ATNO][  7].d[  6] =        -0.116289012424;
  BAS[ATNO][  7].a[  7] =         5.513200000000;     BAS[ATNO][  7].d[  7] =        -0.132771212129;
  BAS[ATNO][  7].a[  8] =         2.633100000000;     BAS[ATNO][  7].d[  8] =        -0.077597809964;
  BAS[ATNO][  7].a[  9] =      1046.300000000000;     BAS[ATNO][  7].d[  9] =         0.000015865088;
  BAS[ATNO][  7].a[ 10] =       339.540000000000;     BAS[ATNO][  7].d[ 10] =        -0.000045339091;
  BAS[ATNO][  7].a[ 11] =       128.100000000000;     BAS[ATNO][  7].d[ 11] =        -0.000074482661;
  BAS[ATNO][  7].a[ 12] =        53.823000000000;     BAS[ATNO][  7].d[ 12] =        -0.004005001345;
  BAS[ATNO][  7].a[ 13] =        24.307000000000;     BAS[ATNO][  7].d[ 13] =        -0.014176445252;
  BAS[ATNO][  7].a[ 14] =        11.440000000000;     BAS[ATNO][  7].d[ 14] =        -0.064297163374;
  BAS[ATNO][  7].a[ 15] =         5.513200000000;     BAS[ATNO][  7].d[ 15] =        -0.055480603129;
  BAS[ATNO][  7].a[ 16] =         2.633100000000;     BAS[ATNO][  7].d[ 16] =         0.151377056532;
  BAS[ATNO][  7].a[ 17] =         1.210900000000;     BAS[ATNO][  7].d[ 17] =         1.424296103843;
  BAS[ATNO][  7].a[ 18] =         0.534110000000;     BAS[ATNO][  7].d[ 18] =        -0.653881932229;
  BAS[ATNO][  7].a[ 19] =         0.223140000000;     BAS[ATNO][  7].d[ 19] =         0.320338987988;
  BAS[ATNO][  7].a[ 20] =         0.088792000000;     BAS[ATNO][  7].d[ 20] =        -0.096069779801;

  // Basis function   9 L = p
  InitBFNGauss(BAS[ATNO][  8]);
  BAS[ATNO][  8].l  = 1;
  BAS[ATNO][  8].ng = 21;
  BAS[ATNO][  8].a[  0] =      4415.500000000000;     BAS[ATNO][  8].d[  0] =         0.000014888384;
  BAS[ATNO][  8].a[  1] =      1046.300000000000;     BAS[ATNO][  8].d[  1] =         0.000131066743;
  BAS[ATNO][  8].a[  2] =       339.540000000000;     BAS[ATNO][  8].d[  2] =         0.000736101935;
  BAS[ATNO][  8].a[  3] =       128.100000000000;     BAS[ATNO][  8].d[  3] =         0.003167309836;
  BAS[ATNO][  8].a[  4] =        53.823000000000;     BAS[ATNO][  8].d[  4] =         0.009856971788;
  BAS[ATNO][  8].a[  5] =        24.307000000000;     BAS[ATNO][  8].d[  5] =         0.023850212141;
  BAS[ATNO][  8].a[  6] =        11.440000000000;     BAS[ATNO][  8].d[  6] =         0.040692107984;
  BAS[ATNO][  8].a[  7] =         5.513200000000;     BAS[ATNO][  8].d[  7] =         0.046459595696;
  BAS[ATNO][  8].a[  8] =         2.633100000000;     BAS[ATNO][  8].d[  8] =         0.027153196992;
  BAS[ATNO][  8].a[  9] =      1046.300000000000;     BAS[ATNO][  8].d[  9] =        -0.000015094990;
  BAS[ATNO][  8].a[ 10] =       339.540000000000;     BAS[ATNO][  8].d[ 10] =         0.000043138314;
  BAS[ATNO][  8].a[ 11] =       128.100000000000;     BAS[ATNO][  8].d[ 11] =         0.000070867244;
  BAS[ATNO][  8].a[ 12] =        53.823000000000;     BAS[ATNO][  8].d[ 12] =         0.003810597003;
  BAS[ATNO][  8].a[ 13] =        24.307000000000;     BAS[ATNO][  8].d[ 13] =         0.013488315019;
  BAS[ATNO][  8].a[ 14] =        11.440000000000;     BAS[ATNO][  8].d[ 14] =         0.061176153754;
  BAS[ATNO][  8].a[ 15] =         5.513200000000;     BAS[ATNO][  8].d[ 15] =         0.052787552814;
  BAS[ATNO][  8].a[ 16] =         2.633100000000;     BAS[ATNO][  8].d[ 16] =        -0.144029154621;
  BAS[ATNO][  8].a[ 17] =         1.210900000000;     BAS[ATNO][  8].d[ 17] =        -1.355160210312;
  BAS[ATNO][  8].a[ 18] =         0.534110000000;     BAS[ATNO][  8].d[ 18] =         2.102363810988;
  BAS[ATNO][  8].a[ 19] =         0.223140000000;     BAS[ATNO][  8].d[ 19] =        -0.400982669265;
  BAS[ATNO][  8].a[ 20] =         0.088792000000;     BAS[ATNO][  8].d[ 20] =         0.121661444443;

  // Basis function  10 L = p
  InitBFNGauss(BAS[ATNO][  9]);
  BAS[ATNO][  9].l  = 1;
  BAS[ATNO][  9].ng = 21;
  BAS[ATNO][  9].a[  0] =      4415.500000000000;     BAS[ATNO][  9].d[  0] =         0.000005813592;
  BAS[ATNO][  9].a[  1] =      1046.300000000000;     BAS[ATNO][  9].d[  1] =         0.000051178729;
  BAS[ATNO][  9].a[  2] =       339.540000000000;     BAS[ATNO][  9].d[  2] =         0.000287431888;
  BAS[ATNO][  9].a[  3] =       128.100000000000;     BAS[ATNO][  9].d[  3] =         0.001236766001;
  BAS[ATNO][  9].a[  4] =        53.823000000000;     BAS[ATNO][  9].d[  4] =         0.003848934337;
  BAS[ATNO][  9].a[  5] =        24.307000000000;     BAS[ATNO][  9].d[  5] =         0.009312992105;
  BAS[ATNO][  9].a[  6] =        11.440000000000;     BAS[ATNO][  9].d[  6] =         0.015889388244;
  BAS[ATNO][  9].a[  7] =         5.513200000000;     BAS[ATNO][  9].d[  7] =         0.018141467479;
  BAS[ATNO][  9].a[  8] =         2.633100000000;     BAS[ATNO][  9].d[  8] =         0.010602736266;
  BAS[ATNO][  9].a[  9] =      1046.300000000000;     BAS[ATNO][  9].d[  9] =        -0.000010743408;
  BAS[ATNO][  9].a[ 10] =       339.540000000000;     BAS[ATNO][  9].d[ 10] =         0.000030702404;
  BAS[ATNO][  9].a[ 11] =       128.100000000000;     BAS[ATNO][  9].d[ 11] =         0.000050437640;
  BAS[ATNO][  9].a[ 12] =        53.823000000000;     BAS[ATNO][  9].d[ 12] =         0.002712078370;
  BAS[ATNO][  9].a[ 13] =        24.307000000000;     BAS[ATNO][  9].d[ 13] =         0.009599904525;
  BAS[ATNO][  9].a[ 14] =        11.440000000000;     BAS[ATNO][  9].d[ 14] =         0.043540296505;
  BAS[ATNO][  9].a[ 15] =         5.513200000000;     BAS[ATNO][  9].d[ 15] =         0.037569960847;
  BAS[ATNO][  9].a[ 16] =         2.633100000000;     BAS[ATNO][  9].d[ 16] =        -0.102508440181;
  BAS[ATNO][  9].a[ 17] =         1.210900000000;     BAS[ATNO][  9].d[ 17] =        -0.964494721359;
  BAS[ATNO][  9].a[ 18] =         0.534110000000;     BAS[ATNO][  9].d[ 18] =         2.502347303220;
  BAS[ATNO][  9].a[ 19] =         0.223140000000;     BAS[ATNO][  9].d[ 19] =        -2.278045032204;
  BAS[ATNO][  9].a[ 20] =         0.088792000000;     BAS[ATNO][  9].d[ 20] =         0.223425405586;

  // Basis function  11 L = p
  InitBFNGauss(BAS[ATNO][ 10]);
  BAS[ATNO][ 10].l  = 1;
  BAS[ATNO][ 10].ng = 21;
  BAS[ATNO][ 10].a[  0] =      4415.500000000000;     BAS[ATNO][ 10].d[  0] =        -0.000002304166;
  BAS[ATNO][ 10].a[  1] =      1046.300000000000;     BAS[ATNO][ 10].d[  1] =        -0.000020284240;
  BAS[ATNO][ 10].a[  2] =       339.540000000000;     BAS[ATNO][ 10].d[  2] =        -0.000113921107;
  BAS[ATNO][ 10].a[  3] =       128.100000000000;     BAS[ATNO][ 10].d[  3] =        -0.000490181351;
  BAS[ATNO][ 10].a[  4] =        53.823000000000;     BAS[ATNO][ 10].d[  4] =        -0.001525491348;
  BAS[ATNO][ 10].a[  5] =        24.307000000000;     BAS[ATNO][ 10].d[  5] =        -0.003691122694;
  BAS[ATNO][ 10].a[  6] =        11.440000000000;     BAS[ATNO][ 10].d[  6] =        -0.006297619592;
  BAS[ATNO][ 10].a[  7] =         5.513200000000;     BAS[ATNO][ 10].d[  7] =        -0.007190211433;
  BAS[ATNO][ 10].a[  8] =         2.633100000000;     BAS[ATNO][ 10].d[  8] =        -0.004202301474;
  BAS[ATNO][ 10].a[  9] =      1046.300000000000;     BAS[ATNO][ 10].d[  9] =         0.000005726588;
  BAS[ATNO][ 10].a[ 10] =       339.540000000000;     BAS[ATNO][ 10].d[ 10] =        -0.000016365385;
  BAS[ATNO][ 10].a[ 11] =       128.100000000000;     BAS[ATNO][ 10].d[ 11] =        -0.000026884911;
  BAS[ATNO][ 10].a[ 12] =        53.823000000000;     BAS[ATNO][ 10].d[ 12] =        -0.001445626463;
  BAS[ATNO][ 10].a[ 13] =        24.307000000000;     BAS[ATNO][ 10].d[ 13] =        -0.005117063052;
  BAS[ATNO][ 10].a[ 14] =        11.440000000000;     BAS[ATNO][ 10].d[ 14] =        -0.023208401910;
  BAS[ATNO][ 10].a[ 15] =         5.513200000000;     BAS[ATNO][ 10].d[ 15] =        -0.020026017759;
  BAS[ATNO][ 10].a[ 16] =         2.633100000000;     BAS[ATNO][ 10].d[ 16] =         0.054640350889;
  BAS[ATNO][ 10].a[ 17] =         1.210900000000;     BAS[ATNO][ 10].d[ 17] =         0.514107227780;
  BAS[ATNO][ 10].a[ 18] =         0.534110000000;     BAS[ATNO][ 10].d[ 18] =        -1.660338098592;
  BAS[ATNO][ 10].a[ 19] =         0.223140000000;     BAS[ATNO][ 10].d[ 19] =         2.575860815656;
  BAS[ATNO][ 10].a[ 20] =         0.088792000000;     BAS[ATNO][ 10].d[ 20] =        -1.975148149710;

  // Basis function  12 L = d
  InitBFNGauss(BAS[ATNO][ 11]);
  BAS[ATNO][ 11].l  = 2;
  BAS[ATNO][ 11].ng = 4;
  BAS[ATNO][ 11].a[  0] =        10.860000000000;     BAS[ATNO][ 11].d[  0] =         0.345757605128;
  BAS[ATNO][ 11].a[  1] =         2.860000000000;     BAS[ATNO][ 11].d[  1] =         0.755983695057;
  BAS[ATNO][ 11].a[  2] =         0.840000000000;     BAS[ATNO][ 11].d[  2] =         0.060761895598;
  BAS[ATNO][ 11].a[  3] =         0.310000000000;     BAS[ATNO][ 11].d[  3] =        -0.003019532961;

  // Basis function  13 L = d
  InitBFNGauss(BAS[ATNO][ 12]);
  BAS[ATNO][ 12].l  = 2;
  BAS[ATNO][ 12].ng = 4;
  BAS[ATNO][ 12].a[  0] =        10.860000000000;     BAS[ATNO][ 12].d[  0] =        -0.285783907569;
  BAS[ATNO][ 12].a[  1] =         2.860000000000;     BAS[ATNO][ 12].d[  1] =        -0.351067444389;
  BAS[ATNO][ 12].a[  2] =         0.840000000000;     BAS[ATNO][ 12].d[  2] =         1.080980070494;
  BAS[ATNO][ 12].a[  3] =         0.310000000000;     BAS[ATNO][ 12].d[  3] =        -0.000575280775;

  // Basis function  14 L = d
  InitBFNGauss(BAS[ATNO][ 13]);
  BAS[ATNO][ 13].l  = 2;
  BAS[ATNO][ 13].ng = 4;
  BAS[ATNO][ 13].a[  0] =        10.860000000000;     BAS[ATNO][ 13].d[  0] =         0.198723897357;
  BAS[ATNO][ 13].a[  1] =         2.860000000000;     BAS[ATNO][ 13].d[  1] =         0.108124390119;
  BAS[ATNO][ 13].a[  2] =         0.840000000000;     BAS[ATNO][ 13].d[  2] =        -0.936251629765;
  BAS[ATNO][ 13].a[  3] =         0.310000000000;     BAS[ATNO][ 13].d[  3] =         1.337454425268;

  // Basis function  15 L = d
  InitBFNGauss(BAS[ATNO][ 14]);
  BAS[ATNO][ 14].l  = 2;
  BAS[ATNO][ 14].ng = 4;
  BAS[ATNO][ 14].a[  0] =        10.860000000000;     BAS[ATNO][ 14].d[  0] =        -1.071774324884;
  BAS[ATNO][ 14].a[  1] =         2.860000000000;     BAS[ATNO][ 14].d[  1] =         1.191820899027;
  BAS[ATNO][ 14].a[  2] =         0.840000000000;     BAS[ATNO][ 14].d[  2] =        -0.882681876352;
  BAS[ATNO][ 14].a[  3] =         0.310000000000;     BAS[ATNO][ 14].d[  3] =         0.428719765574;

  // Basis function  16 L = f
  InitBFNGauss(BAS[ATNO][ 15]);
  BAS[ATNO][ 15].l  = 3;
  BAS[ATNO][ 15].ng = 2;
  BAS[ATNO][ 15].a[  0] =         1.910000000000;     BAS[ATNO][ 15].d[  0] =         0.799989787654;
  BAS[ATNO][ 15].a[  1] =         0.630000000000;     BAS[ATNO][ 15].d[  1] =         0.315059147815;

  // Basis function  17 L = f
  InitBFNGauss(BAS[ATNO][ 16]);
  BAS[ATNO][ 16].l  = 3;
  BAS[ATNO][ 16].ng = 2;
  BAS[ATNO][ 16].a[  0] =         1.910000000000;     BAS[ATNO][ 16].d[  0] =        -0.851673637652;
  BAS[ATNO][ 16].a[  1] =         0.630000000000;     BAS[ATNO][ 16].d[  1] =         1.125197484355;

  // Basis function  18 L = g
  InitBFNGauss(BAS[ATNO][ 17]);
  BAS[ATNO][ 17].l  = 4;
  BAS[ATNO][ 17].ng = 1;
  BAS[ATNO][ 17].a[  0] =         0.930000000000;     BAS[ATNO][ 17].d[  0] =         1.000000000000;

-------
TIMINGS
-------

Total SCF time: 0 days 0 hours 0 min 1 sec 

Total time                  ....       1.503 sec
Sum of individual times     ....       1.311 sec  ( 87.2%)

Fock matrix formation       ....       0.847 sec  ( 56.3%)
  XC integration            ....       0.019 sec  (  2.2% of F)
    Basis function eval.    ....       0.004 sec  ( 20.9% of XC)
    Density eval.           ....       0.001 sec  (  7.1% of XC)
    XC-Functional eval.     ....       0.001 sec  (  7.0% of XC)
    XC-Potential eval.      ....       0.002 sec  ( 11.0% of XC)
Diagonalization             ....       0.001 sec  (  0.1%)
Density matrix formation    ....       0.001 sec  (  0.0%)
Population analysis         ....       0.001 sec  (  0.1%)
Initial guess               ....       0.086 sec  (  5.8%)
Orbital Transformation      ....       0.000 sec  (  0.0%)
Orbital Orthonormalization  ....       0.000 sec  (  0.0%)
DIIS solution               ....       0.000 sec  (  0.0%)
SOSCF solution              ....       0.001 sec  (  0.1%)
Grid generation             ....       0.375 sec  ( 25.0%)

-------------------------   --------------------
FINAL SINGLE POINT ENERGY      -347.229435631600
-------------------------   --------------------


                            ***************************************
                            *     ORCA property calculations      *
                            ***************************************

                                    ---------------------
                                    Active property flags
                                    ---------------------
   (+) Dipole Moment


------------------------------------------------------------------------------
                       ORCA ELECTRIC PROPERTIES CALCULATION
------------------------------------------------------------------------------

Dipole Moment Calculation                       ... on
Quadrupole Moment Calculation                   ... off
Polarizability Calculation                      ... off
GBWName                                         ... Ar_pc-3_34.25899725_.gbw
Electron density file                           ... Ar_pc-3_34.25899725_.scfp
The origin for moment calculation is the CENTER OF MASS  = ( 0.000000,  0.000000  0.000000)

-------------
DIPOLE MOMENT
-------------
                                X             Y             Z
Electronic contribution:     -0.00000       0.00000      -0.00000
Nuclear contribution   :      0.00000       0.00000       0.00000
                        -----------------------------------------
Total Dipole Moment    :     -0.00000       0.00000      -0.00000
                        -----------------------------------------
Magnitude (a.u.)       :      0.00000
Magnitude (Debye)      :      0.00000



--------------------
Rotational spectrum 
--------------------
 
Rotational constants in cm-1:     0.000000     0.000000     0.000000 
Rotational constants in MHz :     0.000000     0.000000     0.000000 

 Dipole components along the rotational axes: 
x,y,z [a.u.] :    -0.000000     0.000000    -0.000000 
x,y,z [Debye]:    -0.000000     0.000000    -0.000000 

 

Timings for individual modules:

Sum of individual times         ...        2.768 sec (=   0.046 min)
GTO integral calculation        ...        0.589 sec (=   0.010 min)  21.3 %
Relativistic integrals          ...        0.405 sec (=   0.007 min)  14.6 %
SCF iterations                  ...        1.773 sec (=   0.030 min)  64.1 %
                             ****ORCA TERMINATED NORMALLY****
TOTAL RUN TIME: 0 days 0 hours 0 minutes 3 seconds 104 msec
