
                                 *****************
                                 * O   R   C   A *
                                 *****************

           --- An Ab Initio, DFT and Semiempirical electronic structure package ---

                  #######################################################
                  #                        -***-                        #
                  #          Department of theory and spectroscopy      #
                  #               Directorship: Frank Neese             #
                  #        Max Planck Institute fuer Kohlenforschung    #
                  #                Kaiser Wilhelm Platz 1               #
                  #                 D-45470 Muelheim/Ruhr               #
                  #                      Germany                        #
                  #                                                     #
                  #                  All rights reserved                #
                  #                        -***-                        #
                  #######################################################


                         Program Version 4.2.1 -  RELEASE  -


 With contributions from (in alphabetic order):
   Daniel Aravena         : Magnetic Suceptibility
   Michael Atanasov       : Ab Initio Ligand Field Theory (pilot matlab implementation)
   Alexander A. Auer      : GIAO ZORA, VPT2
   Ute Becker             : Parallelization
   Giovanni Bistoni       : ED, misc. LED, open-shell LED, HFLD
   Martin Brehm           : Molecular dynamics
   Dmytro Bykov           : SCF Hessian
   Vijay G. Chilkuri      : MRCI spin determinant printing, contributions to CSF-ICE
   Dipayan Datta          : RHF DLPNO-CCSD density
   Achintya Kumar Dutta   : EOM-CC, STEOM-CC
   Dmitry Ganyushin       : Spin-Orbit,Spin-Spin,Magnetic field MRCI
   Miquel Garcia          : C-PCM Hessian, Gaussian charge scheme
   Yang Guo               : DLPNO-NEVPT2, CIM, IAO-localization
   Andreas Hansen         : Spin unrestricted coupled pair/coupled cluster methods
   Benjamin Helmich-Paris : CASSCF linear response (MC-RPA)
   Lee Huntington         : MR-EOM, pCC
   Robert Izsak           : Overlap fitted RIJCOSX, COSX-SCS-MP3, EOM
   Christian Kollmar      : KDIIS, OOCD, Brueckner-CCSD(T), CCSD density
   Simone Kossmann        : Meta GGA functionals, TD-DFT gradient, OOMP2, MP2 Hessian
   Martin Krupicka        : AUTO-CI
   Lucas Lang             : DCDCAS
   Dagmar Lenk            : GEPOL surface, SMD
   Dimitrios Liakos       : Extrapolation schemes; Compound Job, initial MDCI parallelization
   Dimitrios Manganas     : Further ROCIS development; embedding schemes
   Dimitrios Pantazis     : SARC Basis sets
   Taras Petrenko         : DFT Hessian,TD-DFT gradient, ASA, ECA, R-Raman, ABS, FL, XAS/XES, NRVS
   Peter Pinski           : DLPNO-MP2, DLPNO-MP2 Gradient
   Christoph Reimann      : Effective Core Potentials
   Marius Retegan         : Local ZFS, SOC
   Christoph Riplinger    : Optimizer, TS searches, QM/MM, DLPNO-CCSD(T), (RO)-DLPNO pert. Triples
   Tobias Risthaus        : Range-separated hybrids, TD-DFT gradient, RPA, STAB
   Michael Roemelt        : Original ROCIS implementation
   Masaaki Saitow         : Open-shell DLPNO-CCSD energy and density
   Barbara Sandhoefer     : DKH picture change effects
   Avijit Sen             : IP-ROCIS
   Kantharuban Sivalingam : CASSCF convergence, NEVPT2, FIC-MRCI
   Bernardo de Souza      : ESD, SOC TD-DFT
   Georgi Stoychev        : AutoAux, RI-MP2 NMR
   Willem Van den Heuvel  : Paramagnetic NMR
   Boris Wezisla          : Elementary symmetry handling
   Frank Wennmohs         : Technical directorship


 We gratefully acknowledge several colleagues who have allowed us to
 interface, adapt or use parts of their codes:
   Stefan Grimme, W. Hujo, H. Kruse,             : VdW corrections, initial TS optimization,
                  C. Bannwarth                     DFT functionals, gCP, sTDA/sTD-DF
   Ed Valeev, F. Pavosevic, A. Kumar             : LibInt (2-el integral package), F12 methods
   Garnet Chan, S. Sharma, J. Yang, R. Olivares  : DMRG
   Ulf Ekstrom                                   : XCFun DFT Library
   Mihaly Kallay                                 : mrcc  (arbitrary order and MRCC methods)
   Andreas Klamt, Michael Diedenhofen            : otool_cosmo (COSMO solvation model)
   Jiri Pittner, Ondrej Demel                    : Mk-CCSD
   Frank Weinhold                                : gennbo (NPA and NBO analysis)
   Christopher J. Cramer and Donald G. Truhlar   : smd solvation model
   Lars Goerigk                                  : TD-DFT with DH, B97 family of functionals
   V. Asgeirsson, H. Jonsson                     : NEB implementation
   FAccTs GmbH                                   : IRC, NEB, NEB-TS, Multilevel, MM, QM/MM, CI optimization
   S Lehtola, MJT Oliveira, MAL Marques          : LibXC Library


 Your calculation uses the libint2 library for the computation of 2-el integrals
 For citations please refer to: http://libint.valeyev.net

 Your ORCA version has been built with support for libXC version: 4.2.3
 For citations please refer to: https://tddft.org/programs/libxc/

 This ORCA versions uses:
   CBLAS   interface :  Fast vector & matrix operations
   LAPACKE interface :  Fast linear algebra routines
   SCALAPACK package :  Parallel linear algebra routines


----- Orbital basis set information -----
Your calculation utilizes the basis: pc-3
   H, C-F              : F. Jensen, J. Chem. Phys. 115, 9113 (2001).
                         F. Jensen, J. Chem. Phys. 116, 7372 (2002).
                         F. Jensen, J. Chem. Phys. 117, 9234 (2002).
   Si-Cl               : F. Jensen, T. Helgaker, J. Chem. Phys. 121, 3463 (2004).
   He-B, Ne-Mg, Al, Ar : F. Jensen, J. Phys. Chem. A 111, 11198 (2007).
   K, Ca, Ga-Kr        : F. Jensen, J. Chem. Phys. 136, 094110 (2012).
   Sc-Zn               : F. Jensen, J. Chem. Phys. 138, 014107 (2013).

================================================================================
                                        WARNINGS
                       Please study these warnings very carefully!
================================================================================


INFO   : the flag for use of LIBINT has been found!

================================================================================
                                       INPUT FILE
================================================================================
NAME = Ar_pc-3_2192.575824_.inp
|  1> ! LDA pc-3 nori grid5 finalgrid6 verytightscf
|  2> %Pal NProcs 18 End
|  3> 
|  4> % REL
|  5>   Method ZORA
|  6>   ModelPot 1, 0, 0, 0
|  7>   velit 2192.575824
|  8> END
|  9> 
| 10> *xyz 16 1
| 11> Ar 0.0 0.0 0.0
| 12> **                         ****END OF INPUT****
================================================================================

                       ****************************
                       * Single Point Calculation *
                       ****************************

---------------------------------
CARTESIAN COORDINATES (ANGSTROEM)
---------------------------------
  Ar     0.000000    0.000000    0.000000

----------------------------
CARTESIAN COORDINATES (A.U.)
----------------------------
  NO LB      ZA    FRAG     MASS         X           Y           Z
   0 Ar   18.0000    0    39.948    0.000000    0.000000    0.000000

--------------------------------
INTERNAL COORDINATES (ANGSTROEM)
--------------------------------
 Ar     0   0   0     0.000000000000     0.00000000     0.00000000

---------------------------
INTERNAL COORDINATES (A.U.)
---------------------------
 Ar     0   0   0     0.000000000000     0.00000000     0.00000000

---------------------
BASIS SET INFORMATION
---------------------
There are 1 groups of distinct atoms

 Group   1 Type Ar  : 35s21p4d2f1g contracted to 6s5p4d2f1g pattern {121010111/99111/1111/11/1}

Atom   0Ar   basis set group =>   1


           ************************************************************
           *        Program running with 18 parallel MPI-processes    *
           *              working on a common directory               *
           ************************************************************
------------------------------------------------------------------------------
                           ORCA GTO INTEGRAL CALCULATION
------------------------------------------------------------------------------

                         BASIS SET STATISTICS AND STARTUP INFO

 # of primitive gaussian shells          ...   63
 # of primitive gaussian functions       ...  141
 # of contracted shells                  ...   18
 # of contracted basis functions         ...   64
 Highest angular momentum                ...    4
 Maximum contraction depth               ...   12
 Integral package used                   ... LIBINT
 Integral threshhold            Thresh   ...  1.000e-12
 Primitive cut-off              TCut     ...  1.000e-14


------------------------------ INTEGRAL EVALUATION ----------------------------


 * One electron integrals 
 Pre-screening matrix                    ... done
 Shell pair data                         ... done (   0.000 sec)



           ************************************************************
           *        Program running with 18 parallel MPI-processes    *
           *              working on a common directory               *
           ************************************************************
------------------------------------------------------------------------------
                          ORCA RELATIVISTIC HAMILTONIAN
------------------------------------------------------------------------------

Relativistic Method            ... ZORA(MP)
Treatment of potential         ... Van Wuellen
Nucleus model                  ... Point Nucleus
Speed of light used            ... 2192.57582400000001


            *************************************************
            *         ZERO ORDER REGULAR APPROXIMATION      *
            *                     ZORA(MP)                  *
            *            Programmed by FN according to      *
            *                   C. van Wuellen              *
            *       J. Chem. Phys. (1998) vol 109, 392-399  *
            *************************************************

Terms included in model potential: +V(e,N)
Basis function cutoff value   ... 1.000000e-12
Loading the fitted atomic densities  (DKH4)  ... done
Calculating the cutoffs                      ... done
Number of fit functions                      ... 15
Setting up the integration grid ... done


           ************************************************************
           *        Program running with 18 parallel MPI-processes    *
           *              working on a common directory               *
           ************************************************************
-------------------------------------------------------------------------------
                                 ORCA SCF
-------------------------------------------------------------------------------

------------
SCF SETTINGS
------------
Hamiltonian:
 Density Functional     Method          .... DFT(GTOs)
 Exchange Functional    Exchange        .... Slater
   X-Alpha parameter    XAlpha          ....  0.666667
 Correlation Functional Correlation     .... VWN-5
 Gradients option       PostSCFGGA      .... off
   Density functional embedding theory  .... OFF

Relativistic Settings:
 Scalar relativistic method             .... ZORA
 Speed of light used       Velit        ....       2192.57582
Orbital energies will be scaled


General Settings:
 Integral files         IntName         .... Ar_pc-3_2192.575824_
 Hartree-Fock type      HFTyp           .... RHF
 Total Charge           Charge          ....   16
 Multiplicity           Mult            ....    1
 Number of Electrons    NEL             ....    2
 Basis Dimension        Dim             ....   64
 Nuclear Repulsion      ENuc            ....      0.0000000000 Eh

Convergence Acceleration:
 DIIS                   CNVDIIS         .... on
   Start iteration      DIISMaxIt       ....    12
   Startup error        DIISStart       ....  0.200000
   # of expansion vecs  DIISMaxEq       ....     5
   Bias factor          DIISBfac        ....   1.050
   Max. coefficient     DIISMaxC        ....  10.000
 Newton-Raphson         CNVNR           .... off
 SOSCF                  CNVSOSCF        .... on
   Start iteration      SOSCFMaxIt      ....   150
   Startup grad/error   SOSCFStart      ....  0.003300
 Level Shifting         CNVShift        .... on
   Level shift para.    LevelShift      ....    0.2500
   Turn off err/grad.   ShiftErr        ....    0.0010
 Zerner damping         CNVZerner       .... off
 Static damping         CNVDamp         .... on
   Fraction old density DampFac         ....    0.7000
   Max. Damping (<1)    DampMax         ....    0.9800
   Min. Damping (>=0)   DampMin         ....    0.0000
   Turn off err/grad.   DampErr         ....    0.1000
 Fernandez-Rico         CNVRico         .... off

SCF Procedure:
 Maximum # iterations   MaxIter         ....   125
 SCF integral mode      SCFMode         .... Direct
   Integral package                     .... LIBINT
 Reset frequency        DirectResetFreq ....    20
 Integral Threshold     Thresh          ....  1.000e-12 Eh
 Primitive CutOff       TCut            ....  1.000e-14 Eh

Convergence Tolerance:
 Convergence Check Mode ConvCheckMode   .... Total+1el-Energy
 Convergence forced     ConvForced      .... 0
 Energy Change          TolE            ....  1.000e-09 Eh
 1-El. energy change                    ....  1.000e-06 Eh
 Orbital Gradient       TolG            ....  2.000e-06
 Orbital Rotation angle TolX            ....  2.000e-06
 DIIS Error             TolErr          ....  1.000e-08


Diagonalization of the overlap matrix:
Smallest eigenvalue                        ... 4.993e-03
Time for diagonalization                   ...    0.001 sec
Threshold for overlap eigenvalues          ... 1.000e-08
Number of eigenvalues below threshold      ... 0
Time for construction of square roots      ...    0.001 sec
Total time needed                          ...    0.003 sec

-------------------
DFT GRID GENERATION
-------------------

General Integration Accuracy     IntAcc      ...  5.010
Radial Grid Type                 RadialGrid  ... Gauss-Chebyshev
Angular Grid (max. acc.)         AngularGrid ... Lebedev-434
Angular grid pruning method      GridPruning ... 3 (G Style)
Weight generation scheme         WeightScheme... Becke
Basis function cutoff            BFCut       ...    1.0000e-12
Integration weight cutoff        WCut        ...    1.0000e-14
Grids for H and He will be reduced by one unit

# of grid points (after initial pruning)     ...  11992 (   0.0 sec)
# of grid points (after weights+screening)   ...  11992 (   0.0 sec)
Grid point division into batches done        ...    0.1 sec
Reduced shell lists constructed in    0.1 sec

Total number of grid points                  ...    11992
Total number of batches                      ...      188
Average number of points per batch           ...       63
Average number of grid points per atom       ...    11992
Average number of shells per batch           ...     0.92 ( 5.09%)
Average number of basis functions per batch  ...     2.75 ( 4.30%)
Average number of large shells per batch     ...     0.92 (100.00%)
Average number of large basis fcns per batch ...     2.75 (100.00%)
Maximum spatial batch extension              ...  18.71, 18.71, 18.71 au
Average spatial batch extension              ...   0.97,  0.98,  0.97 au

Time for grid setup =    0.153 sec

------------------------------
INITIAL GUESS: MODEL POTENTIAL
------------------------------
Loading ZORA relativistic densities                ... done
Calculating cut-offs                               ... done
Setting up the integral package                    ... done
Initializing the effective Hamiltonian             ... done
Starting the Coulomb interaction                   ... done (   0.0 sec)
Reading the grid                                   ... done
Mapping shells                                     ... done
Starting the XC term evaluation                    ... done (   0.0 sec)
  promolecular density results
     # of electrons  =     18.000000116
     EX              =    -28.047870263
     EC              =     -1.433252902
     EX+EC           =    -29.481123164
Transforming the Hamiltonian                       ... done (   0.0 sec)
Diagonalizing the Hamiltonian                      ... done (   0.0 sec)
Back transforming the eigenvectors                 ... done (   0.0 sec)
Now organizing SCF variables                       ... done
                      ------------------
                      INITIAL GUESS DONE (   0.2 sec)
                      ------------------
--------------
SCF ITERATIONS
--------------
ITER       Energy         Delta-E        Max-DP      RMS-DP      [F,P]     Damp
               ***  Starting incremental Fock matrix formation  ***
  0   -311.5179597631   0.000000000000 0.01367716  0.00025699  2.1106665 0.7000
                      *** Initiating the SOSCF procedure ***
                      *** Re-Reading the Fockian *** 
                      *** Removing any level shift *** 
ITER      Energy       Delta-E        Grad      Rot      Max-DP    RMS-DP
  1   -311.52486449  -0.0069047252  0.000547  0.000547  0.031958  0.000601
               *** Restarting incremental Fock matrix formation ***
  2   -311.54086607  -0.0160015809  0.005132  0.000046  0.000112  0.000003
  3   -311.54086660  -0.0000005305  0.000035  0.000000  0.000001  0.000000
                 **** Energy Check signals convergence ****
              ***Rediagonalizing the Fockian in SOSCF/NRSCF***

               *****************************************************
               *                     SUCCESS                       *
               *           SCF CONVERGED AFTER   4 CYCLES          *
               *****************************************************

Setting up the final grid:

General Integration Accuracy     IntAcc      ...  5.340
Radial Grid Type                 RadialGrid  ... Gauss-Chebyshev
Angular Grid (max. acc.)         AngularGrid ... Lebedev-590
Angular grid pruning method      GridPruning ... 3 (G Style)
Weight generation scheme         WeightScheme... Becke
Basis function cutoff            BFCut       ...    1.0000e-12
Integration weight cutoff        WCut        ...    1.0000e-14
Grids for H and He will be reduced by one unit

# of grid points (after initial pruning)     ...  18110 (   0.0 sec)
# of grid points (after weights+screening)   ...  18110 (   0.0 sec)
Grid point division into batches done        ...    0.2 sec
Reduced shell lists constructed in    0.2 sec

Total number of grid points                  ...    18110
Total number of batches                      ...      283
Average number of points per batch           ...       63
Average number of grid points per atom       ...    18110
Average number of shells per batch           ...     0.00 ( 0.00%)
Average number of basis functions per batch  ...     0.00 ( 0.00%)
Average number of large shells per batch     ...     0.00 ( -nan%)
Average number of large basis fcns per batch ...     0.00 ( -nan%)
Maximum spatial batch extension              ...  19.03, 19.03, 19.03 au
Average spatial batch extension              ...   0.84,  0.84,  0.80 au

Final grid set up in    0.2 sec
Final integration                            ... done (   0.0 sec)
Change in XC energy                          ...    -0.000000958
Integrated number of electrons               ...     2.000000011
Previous integrated no of electrons          ...     1.999999894

----------------
TOTAL SCF ENERGY
----------------

Total Energy       :         -311.54086756 Eh           -8477.45799 eV

Components:
Nuclear Repulsion  :            0.00000000 Eh               0.00000 eV
Electronic Energy  :         -311.54086756 Eh           -8477.45799 eV
One Electron Energy:         -323.81943396 Eh           -8811.57477 eV
Two Electron Energy:           12.27856641 Eh             334.11678 eV

Virial components:
Potential Energy   :         -621.24252461 Eh          -16904.86852 eV
Kinetic Energy     :          309.70165705 Eh            8427.41053 eV
Virial Ratio       :            2.00593865


DFT components:
N(Alpha)           :        1.000000005425 electrons
N(Beta)            :        1.000000005425 electrons
N(Total)           :        2.000000010851 electrons
E(X)               :       -9.405900630739 Eh       
E(C)               :       -0.236736697129 Eh       
E(XC)              :       -9.642637327868 Eh       
DFET-embed. en.    :        0.000000000000 Eh       

---------------
SCF CONVERGENCE
---------------

  Last Energy change         ...   -2.4272e-11  Tolerance :   1.0000e-09
  Last MAX-Density change    ...    0.0000e+00  Tolerance :   1.0000e-08
  Last RMS-Density change    ...    0.0000e+00  Tolerance :   1.0000e-09
  Last Orbital Gradient      ...    1.1358e-10  Tolerance :   2.0000e-06
  Last Orbital Rotation      ...    0.0000e+00  Tolerance :   2.0000e-06

================================================================================
                                        WARNING
Number of found core electrons (2) does not match given number of chemical core electrons (10)
================================================================================
             **** THE GBW FILE WAS UPDATED (Ar_pc-3_2192.575824_.gbw) ****
             **** DENSITY FILE WAS UPDATED (Ar_pc-3_2192.575824_.scfp) ****
             **** ENERGY FILE WAS UPDATED (Ar_pc-3_2192.575824_.en.tmp) ****
             **** THE GBW FILE WAS UPDATED (Ar_pc-3_2192.575824_.gbw) ****
             **** DENSITY FILE WAS UPDATED (Ar_pc-3_2192.575824_.scfp) ****
----------------
ORBITAL ENERGIES
----------------

  NO   OCC          E(Eh)            E(eV) 
   0   2.0000    -146.387031     -3983.3936 
   1   0.0000     -33.907746      -922.6767 
   2   0.0000     -32.827746      -893.2884 
   3   0.0000     -32.827746      -893.2884 
   4   0.0000     -32.827746      -893.2884 
   5   0.0000     -14.231909      -387.2699 
   6   0.0000     -14.207740      -386.6123 
   7   0.0000     -14.207740      -386.6123 
   8   0.0000     -14.207740      -386.6123 
   9   0.0000     -14.207740      -386.6123 
  10   0.0000     -14.207740      -386.6123 
  11   0.0000     -13.687098      -372.4449 
  12   0.0000     -13.687098      -372.4449 
  13   0.0000     -13.687098      -372.4449 
  14   0.0000      -7.886188      -214.5941 
  15   0.0000      -7.886188      -214.5941 
  16   0.0000      -7.886188      -214.5941 
  17   0.0000      -7.886188      -214.5941 
  18   0.0000      -7.886188      -214.5941 
  19   0.0000      -7.787665      -211.9131 
  20   0.0000      -7.787665      -211.9131 
  21   0.0000      -7.787665      -211.9131 
  22   0.0000      -7.787665      -211.9131 
  23   0.0000      -7.787665      -211.9131 
  24   0.0000      -7.787665      -211.9131 
  25   0.0000      -7.787665      -211.9131 
  26   0.0000      -7.641916      -207.9471 
  27   0.0000      -7.442913      -202.5320 
  28   0.0000      -7.442913      -202.5320 
  29   0.0000      -7.442913      -202.5320 
  30   0.0000      -4.922984      -133.9612 
  31   0.0000      -4.922984      -133.9612 
  32   0.0000      -4.922984      -133.9612 
  33   0.0000      -4.922984      -133.9612 
  34   0.0000      -4.922984      -133.9612 
  35   0.0000      -4.893944      -133.1710 
  36   0.0000      -4.893944      -133.1710 
  37   0.0000      -4.893944      -133.1710 
  38   0.0000      -4.893944      -133.1710 
  39   0.0000      -4.893944      -133.1710 
  40   0.0000      -4.893944      -133.1710 
  41   0.0000      -4.893944      -133.1710 
  42   0.0000      -4.893944      -133.1710 
  43   0.0000      -4.893944      -133.1710 
  44   0.0000      -4.796612      -130.5225 
  45   0.0000      -4.796612      -130.5225 
  46   0.0000      -4.796612      -130.5225 
  47   0.0000      -4.796612      -130.5225 
  48   0.0000      -4.796612      -130.5225 
  49   0.0000      -4.796612      -130.5225 
  50   0.0000      -4.796612      -130.5225 
  51   0.0000      -4.653055      -126.6161 
  52   0.0000      -4.653055      -126.6161 
  53   0.0000      -4.653055      -126.6161 
  54   0.0000      -4.646068      -126.4260 
  55   0.0000      -3.064688       -83.3944 
  56   0.0000      -3.064688       -83.3944 
  57   0.0000      -3.064688       -83.3944 
  58   0.0000       2.308616        62.8206 
  59   0.0000       2.308616        62.8206 
  60   0.0000       2.308616        62.8206 
  61   0.0000       2.308616        62.8206 
  62   0.0000       2.308616        62.8206 
  63   0.0000      14.517681       395.0462 

                    ********************************
                    * MULLIKEN POPULATION ANALYSIS *
                    ********************************

-----------------------
MULLIKEN ATOMIC CHARGES
-----------------------
   0 Ar:   16.000000
Sum of atomic charges:   16.0000000

--------------------------------
MULLIKEN REDUCED ORBITAL CHARGES
--------------------------------
  0 Ars       :     2.000000  s :     2.000000
      pz      :     0.000000  p :     0.000000
      px      :     0.000000
      py      :     0.000000
      dz2     :     0.000000  d :     0.000000
      dxz     :     0.000000
      dyz     :     0.000000
      dx2y2   :     0.000000
      dxy     :     0.000000
      f0      :     0.000000  f :     0.000000
      f+1     :     0.000000
      f-1     :     0.000000
      f+2     :     0.000000
      f-2     :     0.000000
      f+3     :     0.000000
      f-3     :     0.000000
      g0      :     0.000000  g :     0.000000
      g+1     :     0.000000
      g-1     :     0.000000
      g+2     :     0.000000
      g-2     :     0.000000
      g+3     :     0.000000
      g-3     :     0.000000
      g+4     :     0.000000
      g-4     :     0.000000


                     *******************************
                     * LOEWDIN POPULATION ANALYSIS *
                     *******************************

----------------------
LOEWDIN ATOMIC CHARGES
----------------------
   0 Ar:   16.000000

-------------------------------
LOEWDIN REDUCED ORBITAL CHARGES
-------------------------------
  0 Ars       :     2.000000  s :     2.000000
      pz      :     0.000000  p :     0.000000
      px      :     0.000000
      py      :     0.000000
      dz2     :     0.000000  d :     0.000000
      dxz     :     0.000000
      dyz     :     0.000000
      dx2y2   :     0.000000
      dxy     :     0.000000
      f0      :     0.000000  f :     0.000000
      f+1     :     0.000000
      f-1     :     0.000000
      f+2     :     0.000000
      f-2     :     0.000000
      f+3     :     0.000000
      f-3     :     0.000000
      g0      :     0.000000  g :     0.000000
      g+1     :     0.000000
      g-1     :     0.000000
      g+2     :     0.000000
      g-2     :     0.000000
      g+3     :     0.000000
      g-3     :     0.000000
      g+4     :     0.000000
      g-4     :     0.000000


                      *****************************
                      * MAYER POPULATION ANALYSIS *
                      *****************************

  NA   - Mulliken gross atomic population
  ZA   - Total nuclear charge
  QA   - Mulliken gross atomic charge
  VA   - Mayer's total valence
  BVA  - Mayer's bonded valence
  FA   - Mayer's free valence

  ATOM       NA         ZA         QA         VA         BVA        FA
  0 Ar     2.0000    18.0000    16.0000     0.0000     0.0000     0.0000

  Mayer bond orders larger than 0.100000


--------------------------
ATOM BASIS FOR ELEMENT Ar
--------------------------
 NewGTO Ar
 S 35
    1    1702200.000000000000         0.000011012800
    2     254910.000000000000         0.000085609368
    3      58011.000000000000         0.000450141194
    4      16431.000000000000         0.001896396905
    5       5360.500000000000         0.006858342680
    6       1935.400000000000         0.021862516195
    7        755.090000000000         0.061538416324
    8        313.080000000000         0.147869273768
    9        135.880000000000         0.283539187552
   10         61.092000000000         0.361523955990
   11         28.024000000000         0.229997107940
   12         11.860000000000         0.037131702020
   13      16431.000000000000         0.000000262214
   14       5360.500000000000         0.000000436129
   15       1935.400000000000         0.000010768487
   16        755.090000000000         0.000048904693
   17        313.080000000000         0.000362776615
   18        135.880000000000         0.001433263915
   19         61.092000000000         0.004734918895
   20         28.024000000000         0.005413981295
   21         11.860000000000        -0.009495544997
   22          5.511700000000        -0.024696347013
   23       5360.500000000000        -0.000000124279
   24       1935.400000000000        -0.000001087990
   25        755.090000000000        -0.000007975022
   26        313.080000000000        -0.000047479947
   27        135.880000000000        -0.000220374322
   28         61.092000000000        -0.000689896373
   29         28.024000000000        -0.001011581848
   30         11.860000000000         0.002013756123
   31          5.511700000000         0.009258429060
   32          2.482200000000         0.011602674006
   33          0.917610000000        -0.006163698518
   34          0.407030000000         0.003111173273
   35          0.162380000000        -0.000792797913
 S 35
    1    1702200.000000000000         0.000002629389
    2     254910.000000000000         0.000020439881
    3      58011.000000000000         0.000107474600
    4      16431.000000000000         0.000452779043
    5       5360.500000000000         0.001637480965
    6       1935.400000000000         0.005219840388
    7        755.090000000000         0.014692760344
    8        313.080000000000         0.035304902717
    9        135.880000000000         0.067697116364
   10         61.092000000000         0.086316567133
   11         28.024000000000         0.054913541631
   12         11.860000000000         0.008865473496
   13      16431.000000000000         0.000005998983
   14       5360.500000000000         0.000009977869
   15       1935.400000000000         0.000246364006
   16        755.090000000000         0.001118853145
   17        313.080000000000         0.008299689312
   18        135.880000000000         0.032790551295
   19         61.092000000000         0.108326595911
   20         28.024000000000         0.123862346324
   21         11.860000000000        -0.217241327385
   22          5.511700000000        -0.565008876071
   23       5360.500000000000         0.000002677044
   24       1935.400000000000         0.000023435874
   25        755.090000000000         0.000171786192
   26        313.080000000000         0.001022743187
   27        135.880000000000         0.004746979516
   28         61.092000000000         0.014860732979
   29         28.024000000000         0.021790008357
   30         11.860000000000        -0.043377372602
   31          5.511700000000        -0.199431461638
   32          2.482200000000        -0.249927738377
   33          0.917610000000         0.148905040638
   34          0.407030000000        -0.101434972830
   35          0.162380000000         0.030190547222
 S 35
    1    1702200.000000000000         0.000000194059
    2     254910.000000000000         0.000001508538
    3      58011.000000000000         0.000007932020
    4      16431.000000000000         0.000033416757
    5       5360.500000000000         0.000120852112
    6       1935.400000000000         0.000385243401
    7        755.090000000000         0.001084379703
    8        313.080000000000         0.002605631551
    9        135.880000000000         0.004996295945
   10         61.092000000000         0.006370479830
   11         28.024000000000         0.004052821156
   12         11.860000000000         0.000654304521
   13      16431.000000000000         0.000005251831
   14       5360.500000000000         0.000008735162
   15       1935.400000000000         0.000215680272
   16        755.090000000000         0.000979504086
   17        313.080000000000         0.007265993427
   18        135.880000000000         0.028706608310
   19         61.092000000000         0.094834915412
   20         28.024000000000         0.108435745049
   21         11.860000000000        -0.190184716257
   22          5.511700000000        -0.494639091334
   23       5360.500000000000         0.000002180824
   24       1935.400000000000         0.000019091776
   25        755.090000000000         0.000139943727
   26        313.080000000000         0.000833166461
   27        135.880000000000         0.003867074525
   28         61.092000000000         0.012106132274
   29         28.024000000000         0.017750990062
   30         11.860000000000        -0.035336898331
   31          5.511700000000        -0.162464641385
   32          2.482200000000        -0.203600876481
   33          0.917610000000         1.895525109226
   34          0.407030000000        -0.717120847912
   35          0.162380000000         0.192545776713
 S 35
    1    1702200.000000000000        -0.000000246466
    2     254910.000000000000        -0.000001915931
    3      58011.000000000000        -0.000010074125
    4      16431.000000000000        -0.000042441215
    5       5360.500000000000        -0.000153489176
    6       1935.400000000000        -0.000489281413
    7        755.090000000000        -0.001377224973
    8        313.080000000000        -0.003309302852
    9        135.880000000000        -0.006345584975
   10         61.092000000000        -0.008090878030
   11         28.024000000000        -0.005147317396
   12         11.860000000000        -0.000831004605
   13      16431.000000000000         0.000003745304
   14       5360.500000000000         0.000006229416
   15       1935.400000000000         0.000153810781
   16        755.090000000000         0.000698526049
   17        313.080000000000         0.005181689137
   18        135.880000000000         0.020471904072
   19         61.092000000000         0.067630814133
   20         28.024000000000         0.077330144567
   21         11.860000000000        -0.135628814980
   22          5.511700000000        -0.352748186715
   23       5360.500000000000         0.000000737151
   24       1935.400000000000         0.000006453307
   25        755.090000000000         0.000047303080
   26        313.080000000000         0.000281622770
   27        135.880000000000         0.001307129238
   28         61.092000000000         0.004092054435
   29         28.024000000000         0.006000101102
   30         11.860000000000        -0.011944402081
   31          5.511700000000        -0.054915487557
   32          2.482200000000        -0.068820152518
   33          0.917610000000         2.603075988082
   34          0.407030000000        -2.982426173914
   35          0.162380000000         0.396530249507
 S 35
    1    1702200.000000000000         0.000000265953
    2     254910.000000000000         0.000002067420
    3      58011.000000000000         0.000010870668
    4      16431.000000000000         0.000045796967
    5       5360.500000000000         0.000165625293
    6       1935.400000000000         0.000527968026
    7        755.090000000000         0.001486119708
    8        313.080000000000         0.003570963556
    9        135.880000000000         0.006847319120
   10         61.092000000000         0.008730609400
   11         28.024000000000         0.005554306649
   12         11.860000000000         0.000896710664
   13      16431.000000000000        -0.000002463504
   14       5360.500000000000        -0.000004097449
   15       1935.400000000000        -0.000101170291
   16        755.090000000000        -0.000459461185
   17        313.080000000000        -0.003408298134
   18        135.880000000000        -0.013465561252
   19         61.092000000000        -0.044484717544
   20         28.024000000000        -0.050864530951
   21         11.860000000000         0.089210955133
   22          5.511700000000         0.232022986140
   23       5360.500000000000         0.000000081711
   24       1935.400000000000         0.000000715330
   25        755.090000000000         0.000005243409
   26        313.080000000000         0.000031217065
   27        135.880000000000         0.000144891476
   28         61.092000000000         0.000453592339
   29         28.024000000000         0.000665093765
   30         11.860000000000        -0.001324002249
   31          5.511700000000        -0.006087222160
   32          2.482200000000        -0.007628513851
   33          0.917610000000        -1.959287751732
   34          0.407030000000         3.885255351950
   35          0.162380000000        -2.644685402865
 S 35
    1    1702200.000000000000        -0.000011600158
    2     254910.000000000000        -0.000090175263
    3      58011.000000000000        -0.000474149050
    4      16431.000000000000        -0.001997539444
    5       5360.500000000000        -0.007224125915
    6       1935.400000000000        -0.023028532866
    7        755.090000000000        -0.064820509688
    8        313.080000000000        -0.155755741948
    9        135.880000000000        -0.298661482559
   10         61.092000000000        -0.380805495032
   11         28.024000000000        -0.242263786656
   12         11.860000000000        -0.039112086308
   13      16431.000000000000         0.000062676372
   14       5360.500000000000         0.000104247117
   15       1935.400000000000         0.002573970098
   16        755.090000000000         0.011689591286
   17        313.080000000000         0.086713771427
   18        135.880000000000         0.342590217896
   19         61.092000000000         1.131778229758
   20         28.024000000000         1.294093162221
   21         11.860000000000        -2.269701201906
   22          5.511700000000        -5.903118621760
   23       5360.500000000000        -0.000056116215
   24       1935.400000000000        -0.000491262943
   25        755.090000000000        -0.003600983272
   26        313.080000000000        -0.021438749361
   27        135.880000000000        -0.099506215620
   28         61.092000000000        -0.311510781770
   29         28.024000000000        -0.456762297501
   30         11.860000000000         0.909276767798
   31          5.511700000000         4.180483601425
   32          2.482200000000         5.238986884232
   33          0.917610000000        -5.851507681393
   34          0.407030000000         4.020985593794
   35          0.162380000000        -1.216708733755
 P 21
    1       4415.500000000000         0.000126016984
    2       1046.300000000000         0.001109363925
    3        339.540000000000         0.006230451089
    4        128.100000000000         0.026808473209
    5         53.823000000000         0.083430538157
    6         24.307000000000         0.201870927179
    7         11.440000000000         0.344422662530
    8          5.513200000000         0.393239339085
    9          2.633100000000         0.229827769255
   10       1046.300000000000        -0.000003233615
   11        339.540000000000         0.000009240992
   12        128.100000000000         0.000015181021
   13         53.823000000000         0.000816297496
   14         24.307000000000         0.002889436424
   15         11.440000000000         0.013105017688
   16          5.513200000000         0.011308030513
   17          2.633100000000        -0.030853600678
   18          1.210900000000        -0.290299363996
   19          0.534110000000         0.229214424472
   20          0.223140000000        -0.116825496888
   21          0.088792000000         0.036005785076
 P 21
    1       4415.500000000000         0.000045091451
    2       1046.300000000000         0.000396953072
    3        339.540000000000         0.002229382664
    4        128.100000000000         0.009592619308
    5         53.823000000000         0.029853150717
    6         24.307000000000         0.072233541190
    7         11.440000000000         0.123241463882
    8          5.513200000000         0.140709067890
    9          2.633100000000         0.082237070335
   10       1046.300000000000        -0.000015638932
   11        339.540000000000         0.000044692785
   12        128.100000000000         0.000073420915
   13         53.823000000000         0.003947910247
   14         24.307000000000         0.013974360720
   15         11.440000000000         0.063380610464
   16          5.513200000000         0.054689729852
   17          2.633100000000        -0.149219184015
   18          1.210900000000        -1.403992832734
   19          0.534110000000         0.610584718229
   20          0.223140000000        -0.300355312051
   21          0.088792000000         0.090067128535
 P 21
    1       4415.500000000000        -0.000016433540
    2       1046.300000000000        -0.000144669199
    3        339.540000000000        -0.000812496554
    4        128.100000000000        -0.003496021682
    5         53.823000000000        -0.010879954560
    6         24.307000000000        -0.026325450647
    7         11.440000000000        -0.044915243274
    8          5.513200000000        -0.051281296213
    9          2.633100000000        -0.029971228058
   10       1046.300000000000         0.000015230807
   11        339.540000000000        -0.000043526450
   12        128.100000000000        -0.000071504870
   13         53.823000000000        -0.003844882781
   14         24.307000000000        -0.013609675893
   15         11.440000000000        -0.061726585106
   16          5.513200000000        -0.053262507879
   17          2.633100000000         0.145325054370
   18          1.210900000000         1.367353240125
   19          0.534110000000        -2.081658809681
   20          0.223140000000         0.374297723175
   21          0.088792000000        -0.115254105595
 P 21
    1       4415.500000000000        -0.000006622199
    2       1046.300000000000        -0.000058297130
    3        339.540000000000        -0.000327410516
    4        128.100000000000        -0.001408786606
    5         53.823000000000        -0.004384278946
    6         24.307000000000        -0.010608327302
    7         11.440000000000        -0.018099428112
    8          5.513200000000        -0.020664746903
    9          2.633100000000        -0.012077460749
   10       1046.300000000000         0.000010969720
   11        339.540000000000        -0.000031349157
   12        128.100000000000        -0.000051500120
   13         53.823000000000        -0.002769208906
   14         24.307000000000        -0.009802128657
   15         11.440000000000        -0.044457482568
   16          5.513200000000        -0.038361380456
   17          2.633100000000         0.104667803349
   18          1.210900000000         0.984812017905
   19          0.534110000000        -2.519975783868
   20          0.223140000000         2.269766225241
   21          0.088792000000        -0.214201737496
 P 21
    1       4415.500000000000         0.000002659191
    2       1046.300000000000         0.000023409627
    3        339.540000000000         0.000131474024
    4        128.100000000000         0.000565708292
    5         53.823000000000         0.001760538428
    6         24.307000000000         0.004259849362
    7         11.440000000000         0.007267954230
    8          5.513200000000         0.008298076256
    9          2.633100000000         0.004849790358
   10       1046.300000000000        -0.000005868200
   11        339.540000000000         0.000016770084
   12        128.100000000000         0.000027549747
   13         53.823000000000         0.001481375309
   14         24.307000000000         0.005243602727
   15         11.440000000000         0.023782321676
   16          5.513200000000         0.020521240458
   17          2.633100000000        -0.055991550232
   18          1.210900000000        -0.526820567596
   19          0.534110000000         1.682194424894
   20          0.223140000000        -2.590603325657
   21          0.088792000000         1.976968054649
 D 4
    1         10.860000000000         0.320819442780
    2          2.860000000000         0.766325121472
    3          0.840000000000         0.077177154609
    4          0.310000000000        -0.006583612769
 D 4
    1         10.860000000000         0.264631378496
    2          2.860000000000         0.390664340134
    3          0.840000000000        -1.077532005557
    4          0.310000000000        -0.019929613178
 D 4
    1         10.860000000000         0.183425101775
    2          2.860000000000         0.148485843746
    3          0.840000000000        -0.978644012478
    4          0.310000000000         1.346398797652
 D 4
    1         10.860000000000         1.087571838951
    2          2.860000000000        -1.168317924433
    3          0.840000000000         0.838527692141
    4          0.310000000000        -0.399204421111
 F 2
    1          1.910000000000         0.786501599901
    2          0.630000000000         0.332709651263
 F 2
    1          1.910000000000         0.864145172280
    2          0.630000000000        -1.120105322449
 G 1
    1          0.930000000000         1.000000000000
 end
  // -----------------------------------------------
  // The basis set
  // -----------------------------------------------
  BAS[ATNO] = new BFNGauss[NSH];
  // Basis function   1 L = s
  InitBFNGauss(BAS[ATNO][  0]);
  BAS[ATNO][  0].l  = 0;
  BAS[ATNO][  0].ng = 35;
  BAS[ATNO][  0].a[  0] =   1702200.000000000000;     BAS[ATNO][  0].d[  0] =         0.000011012800;
  BAS[ATNO][  0].a[  1] =    254910.000000000000;     BAS[ATNO][  0].d[  1] =         0.000085609368;
  BAS[ATNO][  0].a[  2] =     58011.000000000000;     BAS[ATNO][  0].d[  2] =         0.000450141194;
  BAS[ATNO][  0].a[  3] =     16431.000000000000;     BAS[ATNO][  0].d[  3] =         0.001896396905;
  BAS[ATNO][  0].a[  4] =      5360.500000000000;     BAS[ATNO][  0].d[  4] =         0.006858342680;
  BAS[ATNO][  0].a[  5] =      1935.400000000000;     BAS[ATNO][  0].d[  5] =         0.021862516195;
  BAS[ATNO][  0].a[  6] =       755.090000000000;     BAS[ATNO][  0].d[  6] =         0.061538416324;
  BAS[ATNO][  0].a[  7] =       313.080000000000;     BAS[ATNO][  0].d[  7] =         0.147869273768;
  BAS[ATNO][  0].a[  8] =       135.880000000000;     BAS[ATNO][  0].d[  8] =         0.283539187552;
  BAS[ATNO][  0].a[  9] =        61.092000000000;     BAS[ATNO][  0].d[  9] =         0.361523955990;
  BAS[ATNO][  0].a[ 10] =        28.024000000000;     BAS[ATNO][  0].d[ 10] =         0.229997107940;
  BAS[ATNO][  0].a[ 11] =        11.860000000000;     BAS[ATNO][  0].d[ 11] =         0.037131702020;
  BAS[ATNO][  0].a[ 12] =     16431.000000000000;     BAS[ATNO][  0].d[ 12] =         0.000000262214;
  BAS[ATNO][  0].a[ 13] =      5360.500000000000;     BAS[ATNO][  0].d[ 13] =         0.000000436129;
  BAS[ATNO][  0].a[ 14] =      1935.400000000000;     BAS[ATNO][  0].d[ 14] =         0.000010768487;
  BAS[ATNO][  0].a[ 15] =       755.090000000000;     BAS[ATNO][  0].d[ 15] =         0.000048904693;
  BAS[ATNO][  0].a[ 16] =       313.080000000000;     BAS[ATNO][  0].d[ 16] =         0.000362776615;
  BAS[ATNO][  0].a[ 17] =       135.880000000000;     BAS[ATNO][  0].d[ 17] =         0.001433263915;
  BAS[ATNO][  0].a[ 18] =        61.092000000000;     BAS[ATNO][  0].d[ 18] =         0.004734918895;
  BAS[ATNO][  0].a[ 19] =        28.024000000000;     BAS[ATNO][  0].d[ 19] =         0.005413981295;
  BAS[ATNO][  0].a[ 20] =        11.860000000000;     BAS[ATNO][  0].d[ 20] =        -0.009495544997;
  BAS[ATNO][  0].a[ 21] =         5.511700000000;     BAS[ATNO][  0].d[ 21] =        -0.024696347013;
  BAS[ATNO][  0].a[ 22] =      5360.500000000000;     BAS[ATNO][  0].d[ 22] =        -0.000000124279;
  BAS[ATNO][  0].a[ 23] =      1935.400000000000;     BAS[ATNO][  0].d[ 23] =        -0.000001087990;
  BAS[ATNO][  0].a[ 24] =       755.090000000000;     BAS[ATNO][  0].d[ 24] =        -0.000007975022;
  BAS[ATNO][  0].a[ 25] =       313.080000000000;     BAS[ATNO][  0].d[ 25] =        -0.000047479947;
  BAS[ATNO][  0].a[ 26] =       135.880000000000;     BAS[ATNO][  0].d[ 26] =        -0.000220374322;
  BAS[ATNO][  0].a[ 27] =        61.092000000000;     BAS[ATNO][  0].d[ 27] =        -0.000689896373;
  BAS[ATNO][  0].a[ 28] =        28.024000000000;     BAS[ATNO][  0].d[ 28] =        -0.001011581848;
  BAS[ATNO][  0].a[ 29] =        11.860000000000;     BAS[ATNO][  0].d[ 29] =         0.002013756123;
  BAS[ATNO][  0].a[ 30] =         5.511700000000;     BAS[ATNO][  0].d[ 30] =         0.009258429060;
  BAS[ATNO][  0].a[ 31] =         2.482200000000;     BAS[ATNO][  0].d[ 31] =         0.011602674006;
  BAS[ATNO][  0].a[ 32] =         0.917610000000;     BAS[ATNO][  0].d[ 32] =        -0.006163698518;
  BAS[ATNO][  0].a[ 33] =         0.407030000000;     BAS[ATNO][  0].d[ 33] =         0.003111173273;
  BAS[ATNO][  0].a[ 34] =         0.162380000000;     BAS[ATNO][  0].d[ 34] =        -0.000792797913;

  // Basis function   2 L = s
  InitBFNGauss(BAS[ATNO][  1]);
  BAS[ATNO][  1].l  = 0;
  BAS[ATNO][  1].ng = 35;
  BAS[ATNO][  1].a[  0] =   1702200.000000000000;     BAS[ATNO][  1].d[  0] =        -0.000002629389;
  BAS[ATNO][  1].a[  1] =    254910.000000000000;     BAS[ATNO][  1].d[  1] =        -0.000020439881;
  BAS[ATNO][  1].a[  2] =     58011.000000000000;     BAS[ATNO][  1].d[  2] =        -0.000107474600;
  BAS[ATNO][  1].a[  3] =     16431.000000000000;     BAS[ATNO][  1].d[  3] =        -0.000452779043;
  BAS[ATNO][  1].a[  4] =      5360.500000000000;     BAS[ATNO][  1].d[  4] =        -0.001637480965;
  BAS[ATNO][  1].a[  5] =      1935.400000000000;     BAS[ATNO][  1].d[  5] =        -0.005219840388;
  BAS[ATNO][  1].a[  6] =       755.090000000000;     BAS[ATNO][  1].d[  6] =        -0.014692760344;
  BAS[ATNO][  1].a[  7] =       313.080000000000;     BAS[ATNO][  1].d[  7] =        -0.035304902717;
  BAS[ATNO][  1].a[  8] =       135.880000000000;     BAS[ATNO][  1].d[  8] =        -0.067697116364;
  BAS[ATNO][  1].a[  9] =        61.092000000000;     BAS[ATNO][  1].d[  9] =        -0.086316567133;
  BAS[ATNO][  1].a[ 10] =        28.024000000000;     BAS[ATNO][  1].d[ 10] =        -0.054913541631;
  BAS[ATNO][  1].a[ 11] =        11.860000000000;     BAS[ATNO][  1].d[ 11] =        -0.008865473496;
  BAS[ATNO][  1].a[ 12] =     16431.000000000000;     BAS[ATNO][  1].d[ 12] =        -0.000005998983;
  BAS[ATNO][  1].a[ 13] =      5360.500000000000;     BAS[ATNO][  1].d[ 13] =        -0.000009977869;
  BAS[ATNO][  1].a[ 14] =      1935.400000000000;     BAS[ATNO][  1].d[ 14] =        -0.000246364006;
  BAS[ATNO][  1].a[ 15] =       755.090000000000;     BAS[ATNO][  1].d[ 15] =        -0.001118853145;
  BAS[ATNO][  1].a[ 16] =       313.080000000000;     BAS[ATNO][  1].d[ 16] =        -0.008299689312;
  BAS[ATNO][  1].a[ 17] =       135.880000000000;     BAS[ATNO][  1].d[ 17] =        -0.032790551295;
  BAS[ATNO][  1].a[ 18] =        61.092000000000;     BAS[ATNO][  1].d[ 18] =        -0.108326595911;
  BAS[ATNO][  1].a[ 19] =        28.024000000000;     BAS[ATNO][  1].d[ 19] =        -0.123862346324;
  BAS[ATNO][  1].a[ 20] =        11.860000000000;     BAS[ATNO][  1].d[ 20] =         0.217241327385;
  BAS[ATNO][  1].a[ 21] =         5.511700000000;     BAS[ATNO][  1].d[ 21] =         0.565008876071;
  BAS[ATNO][  1].a[ 22] =      5360.500000000000;     BAS[ATNO][  1].d[ 22] =        -0.000002677044;
  BAS[ATNO][  1].a[ 23] =      1935.400000000000;     BAS[ATNO][  1].d[ 23] =        -0.000023435874;
  BAS[ATNO][  1].a[ 24] =       755.090000000000;     BAS[ATNO][  1].d[ 24] =        -0.000171786192;
  BAS[ATNO][  1].a[ 25] =       313.080000000000;     BAS[ATNO][  1].d[ 25] =        -0.001022743187;
  BAS[ATNO][  1].a[ 26] =       135.880000000000;     BAS[ATNO][  1].d[ 26] =        -0.004746979516;
  BAS[ATNO][  1].a[ 27] =        61.092000000000;     BAS[ATNO][  1].d[ 27] =        -0.014860732979;
  BAS[ATNO][  1].a[ 28] =        28.024000000000;     BAS[ATNO][  1].d[ 28] =        -0.021790008357;
  BAS[ATNO][  1].a[ 29] =        11.860000000000;     BAS[ATNO][  1].d[ 29] =         0.043377372602;
  BAS[ATNO][  1].a[ 30] =         5.511700000000;     BAS[ATNO][  1].d[ 30] =         0.199431461638;
  BAS[ATNO][  1].a[ 31] =         2.482200000000;     BAS[ATNO][  1].d[ 31] =         0.249927738377;
  BAS[ATNO][  1].a[ 32] =         0.917610000000;     BAS[ATNO][  1].d[ 32] =        -0.148905040638;
  BAS[ATNO][  1].a[ 33] =         0.407030000000;     BAS[ATNO][  1].d[ 33] =         0.101434972830;
  BAS[ATNO][  1].a[ 34] =         0.162380000000;     BAS[ATNO][  1].d[ 34] =        -0.030190547222;

  // Basis function   3 L = s
  InitBFNGauss(BAS[ATNO][  2]);
  BAS[ATNO][  2].l  = 0;
  BAS[ATNO][  2].ng = 35;
  BAS[ATNO][  2].a[  0] =   1702200.000000000000;     BAS[ATNO][  2].d[  0] =         0.000000194059;
  BAS[ATNO][  2].a[  1] =    254910.000000000000;     BAS[ATNO][  2].d[  1] =         0.000001508538;
  BAS[ATNO][  2].a[  2] =     58011.000000000000;     BAS[ATNO][  2].d[  2] =         0.000007932020;
  BAS[ATNO][  2].a[  3] =     16431.000000000000;     BAS[ATNO][  2].d[  3] =         0.000033416757;
  BAS[ATNO][  2].a[  4] =      5360.500000000000;     BAS[ATNO][  2].d[  4] =         0.000120852112;
  BAS[ATNO][  2].a[  5] =      1935.400000000000;     BAS[ATNO][  2].d[  5] =         0.000385243401;
  BAS[ATNO][  2].a[  6] =       755.090000000000;     BAS[ATNO][  2].d[  6] =         0.001084379703;
  BAS[ATNO][  2].a[  7] =       313.080000000000;     BAS[ATNO][  2].d[  7] =         0.002605631551;
  BAS[ATNO][  2].a[  8] =       135.880000000000;     BAS[ATNO][  2].d[  8] =         0.004996295945;
  BAS[ATNO][  2].a[  9] =        61.092000000000;     BAS[ATNO][  2].d[  9] =         0.006370479830;
  BAS[ATNO][  2].a[ 10] =        28.024000000000;     BAS[ATNO][  2].d[ 10] =         0.004052821156;
  BAS[ATNO][  2].a[ 11] =        11.860000000000;     BAS[ATNO][  2].d[ 11] =         0.000654304521;
  BAS[ATNO][  2].a[ 12] =     16431.000000000000;     BAS[ATNO][  2].d[ 12] =         0.000005251831;
  BAS[ATNO][  2].a[ 13] =      5360.500000000000;     BAS[ATNO][  2].d[ 13] =         0.000008735162;
  BAS[ATNO][  2].a[ 14] =      1935.400000000000;     BAS[ATNO][  2].d[ 14] =         0.000215680272;
  BAS[ATNO][  2].a[ 15] =       755.090000000000;     BAS[ATNO][  2].d[ 15] =         0.000979504086;
  BAS[ATNO][  2].a[ 16] =       313.080000000000;     BAS[ATNO][  2].d[ 16] =         0.007265993427;
  BAS[ATNO][  2].a[ 17] =       135.880000000000;     BAS[ATNO][  2].d[ 17] =         0.028706608310;
  BAS[ATNO][  2].a[ 18] =        61.092000000000;     BAS[ATNO][  2].d[ 18] =         0.094834915412;
  BAS[ATNO][  2].a[ 19] =        28.024000000000;     BAS[ATNO][  2].d[ 19] =         0.108435745049;
  BAS[ATNO][  2].a[ 20] =        11.860000000000;     BAS[ATNO][  2].d[ 20] =        -0.190184716257;
  BAS[ATNO][  2].a[ 21] =         5.511700000000;     BAS[ATNO][  2].d[ 21] =        -0.494639091334;
  BAS[ATNO][  2].a[ 22] =      5360.500000000000;     BAS[ATNO][  2].d[ 22] =         0.000002180824;
  BAS[ATNO][  2].a[ 23] =      1935.400000000000;     BAS[ATNO][  2].d[ 23] =         0.000019091776;
  BAS[ATNO][  2].a[ 24] =       755.090000000000;     BAS[ATNO][  2].d[ 24] =         0.000139943727;
  BAS[ATNO][  2].a[ 25] =       313.080000000000;     BAS[ATNO][  2].d[ 25] =         0.000833166461;
  BAS[ATNO][  2].a[ 26] =       135.880000000000;     BAS[ATNO][  2].d[ 26] =         0.003867074525;
  BAS[ATNO][  2].a[ 27] =        61.092000000000;     BAS[ATNO][  2].d[ 27] =         0.012106132274;
  BAS[ATNO][  2].a[ 28] =        28.024000000000;     BAS[ATNO][  2].d[ 28] =         0.017750990062;
  BAS[ATNO][  2].a[ 29] =        11.860000000000;     BAS[ATNO][  2].d[ 29] =        -0.035336898331;
  BAS[ATNO][  2].a[ 30] =         5.511700000000;     BAS[ATNO][  2].d[ 30] =        -0.162464641385;
  BAS[ATNO][  2].a[ 31] =         2.482200000000;     BAS[ATNO][  2].d[ 31] =        -0.203600876481;
  BAS[ATNO][  2].a[ 32] =         0.917610000000;     BAS[ATNO][  2].d[ 32] =         1.895525109226;
  BAS[ATNO][  2].a[ 33] =         0.407030000000;     BAS[ATNO][  2].d[ 33] =        -0.717120847912;
  BAS[ATNO][  2].a[ 34] =         0.162380000000;     BAS[ATNO][  2].d[ 34] =         0.192545776713;

  // Basis function   4 L = s
  InitBFNGauss(BAS[ATNO][  3]);
  BAS[ATNO][  3].l  = 0;
  BAS[ATNO][  3].ng = 35;
  BAS[ATNO][  3].a[  0] =   1702200.000000000000;     BAS[ATNO][  3].d[  0] =         0.000000246466;
  BAS[ATNO][  3].a[  1] =    254910.000000000000;     BAS[ATNO][  3].d[  1] =         0.000001915931;
  BAS[ATNO][  3].a[  2] =     58011.000000000000;     BAS[ATNO][  3].d[  2] =         0.000010074125;
  BAS[ATNO][  3].a[  3] =     16431.000000000000;     BAS[ATNO][  3].d[  3] =         0.000042441215;
  BAS[ATNO][  3].a[  4] =      5360.500000000000;     BAS[ATNO][  3].d[  4] =         0.000153489176;
  BAS[ATNO][  3].a[  5] =      1935.400000000000;     BAS[ATNO][  3].d[  5] =         0.000489281413;
  BAS[ATNO][  3].a[  6] =       755.090000000000;     BAS[ATNO][  3].d[  6] =         0.001377224973;
  BAS[ATNO][  3].a[  7] =       313.080000000000;     BAS[ATNO][  3].d[  7] =         0.003309302852;
  BAS[ATNO][  3].a[  8] =       135.880000000000;     BAS[ATNO][  3].d[  8] =         0.006345584975;
  BAS[ATNO][  3].a[  9] =        61.092000000000;     BAS[ATNO][  3].d[  9] =         0.008090878030;
  BAS[ATNO][  3].a[ 10] =        28.024000000000;     BAS[ATNO][  3].d[ 10] =         0.005147317396;
  BAS[ATNO][  3].a[ 11] =        11.860000000000;     BAS[ATNO][  3].d[ 11] =         0.000831004605;
  BAS[ATNO][  3].a[ 12] =     16431.000000000000;     BAS[ATNO][  3].d[ 12] =        -0.000003745304;
  BAS[ATNO][  3].a[ 13] =      5360.500000000000;     BAS[ATNO][  3].d[ 13] =        -0.000006229416;
  BAS[ATNO][  3].a[ 14] =      1935.400000000000;     BAS[ATNO][  3].d[ 14] =        -0.000153810781;
  BAS[ATNO][  3].a[ 15] =       755.090000000000;     BAS[ATNO][  3].d[ 15] =        -0.000698526049;
  BAS[ATNO][  3].a[ 16] =       313.080000000000;     BAS[ATNO][  3].d[ 16] =        -0.005181689137;
  BAS[ATNO][  3].a[ 17] =       135.880000000000;     BAS[ATNO][  3].d[ 17] =        -0.020471904072;
  BAS[ATNO][  3].a[ 18] =        61.092000000000;     BAS[ATNO][  3].d[ 18] =        -0.067630814133;
  BAS[ATNO][  3].a[ 19] =        28.024000000000;     BAS[ATNO][  3].d[ 19] =        -0.077330144567;
  BAS[ATNO][  3].a[ 20] =        11.860000000000;     BAS[ATNO][  3].d[ 20] =         0.135628814980;
  BAS[ATNO][  3].a[ 21] =         5.511700000000;     BAS[ATNO][  3].d[ 21] =         0.352748186715;
  BAS[ATNO][  3].a[ 22] =      5360.500000000000;     BAS[ATNO][  3].d[ 22] =        -0.000000737151;
  BAS[ATNO][  3].a[ 23] =      1935.400000000000;     BAS[ATNO][  3].d[ 23] =        -0.000006453307;
  BAS[ATNO][  3].a[ 24] =       755.090000000000;     BAS[ATNO][  3].d[ 24] =        -0.000047303080;
  BAS[ATNO][  3].a[ 25] =       313.080000000000;     BAS[ATNO][  3].d[ 25] =        -0.000281622770;
  BAS[ATNO][  3].a[ 26] =       135.880000000000;     BAS[ATNO][  3].d[ 26] =        -0.001307129238;
  BAS[ATNO][  3].a[ 27] =        61.092000000000;     BAS[ATNO][  3].d[ 27] =        -0.004092054435;
  BAS[ATNO][  3].a[ 28] =        28.024000000000;     BAS[ATNO][  3].d[ 28] =        -0.006000101102;
  BAS[ATNO][  3].a[ 29] =        11.860000000000;     BAS[ATNO][  3].d[ 29] =         0.011944402081;
  BAS[ATNO][  3].a[ 30] =         5.511700000000;     BAS[ATNO][  3].d[ 30] =         0.054915487557;
  BAS[ATNO][  3].a[ 31] =         2.482200000000;     BAS[ATNO][  3].d[ 31] =         0.068820152518;
  BAS[ATNO][  3].a[ 32] =         0.917610000000;     BAS[ATNO][  3].d[ 32] =        -2.603075988082;
  BAS[ATNO][  3].a[ 33] =         0.407030000000;     BAS[ATNO][  3].d[ 33] =         2.982426173914;
  BAS[ATNO][  3].a[ 34] =         0.162380000000;     BAS[ATNO][  3].d[ 34] =        -0.396530249507;

  // Basis function   5 L = s
  InitBFNGauss(BAS[ATNO][  4]);
  BAS[ATNO][  4].l  = 0;
  BAS[ATNO][  4].ng = 35;
  BAS[ATNO][  4].a[  0] =   1702200.000000000000;     BAS[ATNO][  4].d[  0] =         0.000000265953;
  BAS[ATNO][  4].a[  1] =    254910.000000000000;     BAS[ATNO][  4].d[  1] =         0.000002067420;
  BAS[ATNO][  4].a[  2] =     58011.000000000000;     BAS[ATNO][  4].d[  2] =         0.000010870668;
  BAS[ATNO][  4].a[  3] =     16431.000000000000;     BAS[ATNO][  4].d[  3] =         0.000045796967;
  BAS[ATNO][  4].a[  4] =      5360.500000000000;     BAS[ATNO][  4].d[  4] =         0.000165625293;
  BAS[ATNO][  4].a[  5] =      1935.400000000000;     BAS[ATNO][  4].d[  5] =         0.000527968026;
  BAS[ATNO][  4].a[  6] =       755.090000000000;     BAS[ATNO][  4].d[  6] =         0.001486119708;
  BAS[ATNO][  4].a[  7] =       313.080000000000;     BAS[ATNO][  4].d[  7] =         0.003570963556;
  BAS[ATNO][  4].a[  8] =       135.880000000000;     BAS[ATNO][  4].d[  8] =         0.006847319120;
  BAS[ATNO][  4].a[  9] =        61.092000000000;     BAS[ATNO][  4].d[  9] =         0.008730609400;
  BAS[ATNO][  4].a[ 10] =        28.024000000000;     BAS[ATNO][  4].d[ 10] =         0.005554306649;
  BAS[ATNO][  4].a[ 11] =        11.860000000000;     BAS[ATNO][  4].d[ 11] =         0.000896710664;
  BAS[ATNO][  4].a[ 12] =     16431.000000000000;     BAS[ATNO][  4].d[ 12] =        -0.000002463504;
  BAS[ATNO][  4].a[ 13] =      5360.500000000000;     BAS[ATNO][  4].d[ 13] =        -0.000004097449;
  BAS[ATNO][  4].a[ 14] =      1935.400000000000;     BAS[ATNO][  4].d[ 14] =        -0.000101170291;
  BAS[ATNO][  4].a[ 15] =       755.090000000000;     BAS[ATNO][  4].d[ 15] =        -0.000459461185;
  BAS[ATNO][  4].a[ 16] =       313.080000000000;     BAS[ATNO][  4].d[ 16] =        -0.003408298134;
  BAS[ATNO][  4].a[ 17] =       135.880000000000;     BAS[ATNO][  4].d[ 17] =        -0.013465561252;
  BAS[ATNO][  4].a[ 18] =        61.092000000000;     BAS[ATNO][  4].d[ 18] =        -0.044484717544;
  BAS[ATNO][  4].a[ 19] =        28.024000000000;     BAS[ATNO][  4].d[ 19] =        -0.050864530951;
  BAS[ATNO][  4].a[ 20] =        11.860000000000;     BAS[ATNO][  4].d[ 20] =         0.089210955133;
  BAS[ATNO][  4].a[ 21] =         5.511700000000;     BAS[ATNO][  4].d[ 21] =         0.232022986140;
  BAS[ATNO][  4].a[ 22] =      5360.500000000000;     BAS[ATNO][  4].d[ 22] =         0.000000081711;
  BAS[ATNO][  4].a[ 23] =      1935.400000000000;     BAS[ATNO][  4].d[ 23] =         0.000000715330;
  BAS[ATNO][  4].a[ 24] =       755.090000000000;     BAS[ATNO][  4].d[ 24] =         0.000005243409;
  BAS[ATNO][  4].a[ 25] =       313.080000000000;     BAS[ATNO][  4].d[ 25] =         0.000031217065;
  BAS[ATNO][  4].a[ 26] =       135.880000000000;     BAS[ATNO][  4].d[ 26] =         0.000144891476;
  BAS[ATNO][  4].a[ 27] =        61.092000000000;     BAS[ATNO][  4].d[ 27] =         0.000453592339;
  BAS[ATNO][  4].a[ 28] =        28.024000000000;     BAS[ATNO][  4].d[ 28] =         0.000665093765;
  BAS[ATNO][  4].a[ 29] =        11.860000000000;     BAS[ATNO][  4].d[ 29] =        -0.001324002249;
  BAS[ATNO][  4].a[ 30] =         5.511700000000;     BAS[ATNO][  4].d[ 30] =        -0.006087222160;
  BAS[ATNO][  4].a[ 31] =         2.482200000000;     BAS[ATNO][  4].d[ 31] =        -0.007628513851;
  BAS[ATNO][  4].a[ 32] =         0.917610000000;     BAS[ATNO][  4].d[ 32] =        -1.959287751732;
  BAS[ATNO][  4].a[ 33] =         0.407030000000;     BAS[ATNO][  4].d[ 33] =         3.885255351950;
  BAS[ATNO][  4].a[ 34] =         0.162380000000;     BAS[ATNO][  4].d[ 34] =        -2.644685402865;

  // Basis function   6 L = s
  InitBFNGauss(BAS[ATNO][  5]);
  BAS[ATNO][  5].l  = 0;
  BAS[ATNO][  5].ng = 35;
  BAS[ATNO][  5].a[  0] =   1702200.000000000000;     BAS[ATNO][  5].d[  0] =         0.000011600158;
  BAS[ATNO][  5].a[  1] =    254910.000000000000;     BAS[ATNO][  5].d[  1] =         0.000090175263;
  BAS[ATNO][  5].a[  2] =     58011.000000000000;     BAS[ATNO][  5].d[  2] =         0.000474149050;
  BAS[ATNO][  5].a[  3] =     16431.000000000000;     BAS[ATNO][  5].d[  3] =         0.001997539444;
  BAS[ATNO][  5].a[  4] =      5360.500000000000;     BAS[ATNO][  5].d[  4] =         0.007224125915;
  BAS[ATNO][  5].a[  5] =      1935.400000000000;     BAS[ATNO][  5].d[  5] =         0.023028532866;
  BAS[ATNO][  5].a[  6] =       755.090000000000;     BAS[ATNO][  5].d[  6] =         0.064820509688;
  BAS[ATNO][  5].a[  7] =       313.080000000000;     BAS[ATNO][  5].d[  7] =         0.155755741948;
  BAS[ATNO][  5].a[  8] =       135.880000000000;     BAS[ATNO][  5].d[  8] =         0.298661482559;
  BAS[ATNO][  5].a[  9] =        61.092000000000;     BAS[ATNO][  5].d[  9] =         0.380805495032;
  BAS[ATNO][  5].a[ 10] =        28.024000000000;     BAS[ATNO][  5].d[ 10] =         0.242263786656;
  BAS[ATNO][  5].a[ 11] =        11.860000000000;     BAS[ATNO][  5].d[ 11] =         0.039112086308;
  BAS[ATNO][  5].a[ 12] =     16431.000000000000;     BAS[ATNO][  5].d[ 12] =        -0.000062676372;
  BAS[ATNO][  5].a[ 13] =      5360.500000000000;     BAS[ATNO][  5].d[ 13] =        -0.000104247117;
  BAS[ATNO][  5].a[ 14] =      1935.400000000000;     BAS[ATNO][  5].d[ 14] =        -0.002573970098;
  BAS[ATNO][  5].a[ 15] =       755.090000000000;     BAS[ATNO][  5].d[ 15] =        -0.011689591286;
  BAS[ATNO][  5].a[ 16] =       313.080000000000;     BAS[ATNO][  5].d[ 16] =        -0.086713771427;
  BAS[ATNO][  5].a[ 17] =       135.880000000000;     BAS[ATNO][  5].d[ 17] =        -0.342590217896;
  BAS[ATNO][  5].a[ 18] =        61.092000000000;     BAS[ATNO][  5].d[ 18] =        -1.131778229758;
  BAS[ATNO][  5].a[ 19] =        28.024000000000;     BAS[ATNO][  5].d[ 19] =        -1.294093162221;
  BAS[ATNO][  5].a[ 20] =        11.860000000000;     BAS[ATNO][  5].d[ 20] =         2.269701201906;
  BAS[ATNO][  5].a[ 21] =         5.511700000000;     BAS[ATNO][  5].d[ 21] =         5.903118621760;
  BAS[ATNO][  5].a[ 22] =      5360.500000000000;     BAS[ATNO][  5].d[ 22] =         0.000056116215;
  BAS[ATNO][  5].a[ 23] =      1935.400000000000;     BAS[ATNO][  5].d[ 23] =         0.000491262943;
  BAS[ATNO][  5].a[ 24] =       755.090000000000;     BAS[ATNO][  5].d[ 24] =         0.003600983272;
  BAS[ATNO][  5].a[ 25] =       313.080000000000;     BAS[ATNO][  5].d[ 25] =         0.021438749361;
  BAS[ATNO][  5].a[ 26] =       135.880000000000;     BAS[ATNO][  5].d[ 26] =         0.099506215620;
  BAS[ATNO][  5].a[ 27] =        61.092000000000;     BAS[ATNO][  5].d[ 27] =         0.311510781770;
  BAS[ATNO][  5].a[ 28] =        28.024000000000;     BAS[ATNO][  5].d[ 28] =         0.456762297501;
  BAS[ATNO][  5].a[ 29] =        11.860000000000;     BAS[ATNO][  5].d[ 29] =        -0.909276767798;
  BAS[ATNO][  5].a[ 30] =         5.511700000000;     BAS[ATNO][  5].d[ 30] =        -4.180483601425;
  BAS[ATNO][  5].a[ 31] =         2.482200000000;     BAS[ATNO][  5].d[ 31] =        -5.238986884232;
  BAS[ATNO][  5].a[ 32] =         0.917610000000;     BAS[ATNO][  5].d[ 32] =         5.851507681393;
  BAS[ATNO][  5].a[ 33] =         0.407030000000;     BAS[ATNO][  5].d[ 33] =        -4.020985593794;
  BAS[ATNO][  5].a[ 34] =         0.162380000000;     BAS[ATNO][  5].d[ 34] =         1.216708733755;

  // Basis function   7 L = p
  InitBFNGauss(BAS[ATNO][  6]);
  BAS[ATNO][  6].l  = 1;
  BAS[ATNO][  6].ng = 21;
  BAS[ATNO][  6].a[  0] =      4415.500000000000;     BAS[ATNO][  6].d[  0] =         0.000126016984;
  BAS[ATNO][  6].a[  1] =      1046.300000000000;     BAS[ATNO][  6].d[  1] =         0.001109363925;
  BAS[ATNO][  6].a[  2] =       339.540000000000;     BAS[ATNO][  6].d[  2] =         0.006230451089;
  BAS[ATNO][  6].a[  3] =       128.100000000000;     BAS[ATNO][  6].d[  3] =         0.026808473209;
  BAS[ATNO][  6].a[  4] =        53.823000000000;     BAS[ATNO][  6].d[  4] =         0.083430538157;
  BAS[ATNO][  6].a[  5] =        24.307000000000;     BAS[ATNO][  6].d[  5] =         0.201870927179;
  BAS[ATNO][  6].a[  6] =        11.440000000000;     BAS[ATNO][  6].d[  6] =         0.344422662530;
  BAS[ATNO][  6].a[  7] =         5.513200000000;     BAS[ATNO][  6].d[  7] =         0.393239339085;
  BAS[ATNO][  6].a[  8] =         2.633100000000;     BAS[ATNO][  6].d[  8] =         0.229827769255;
  BAS[ATNO][  6].a[  9] =      1046.300000000000;     BAS[ATNO][  6].d[  9] =        -0.000003233615;
  BAS[ATNO][  6].a[ 10] =       339.540000000000;     BAS[ATNO][  6].d[ 10] =         0.000009240992;
  BAS[ATNO][  6].a[ 11] =       128.100000000000;     BAS[ATNO][  6].d[ 11] =         0.000015181021;
  BAS[ATNO][  6].a[ 12] =        53.823000000000;     BAS[ATNO][  6].d[ 12] =         0.000816297496;
  BAS[ATNO][  6].a[ 13] =        24.307000000000;     BAS[ATNO][  6].d[ 13] =         0.002889436424;
  BAS[ATNO][  6].a[ 14] =        11.440000000000;     BAS[ATNO][  6].d[ 14] =         0.013105017688;
  BAS[ATNO][  6].a[ 15] =         5.513200000000;     BAS[ATNO][  6].d[ 15] =         0.011308030513;
  BAS[ATNO][  6].a[ 16] =         2.633100000000;     BAS[ATNO][  6].d[ 16] =        -0.030853600678;
  BAS[ATNO][  6].a[ 17] =         1.210900000000;     BAS[ATNO][  6].d[ 17] =        -0.290299363996;
  BAS[ATNO][  6].a[ 18] =         0.534110000000;     BAS[ATNO][  6].d[ 18] =         0.229214424472;
  BAS[ATNO][  6].a[ 19] =         0.223140000000;     BAS[ATNO][  6].d[ 19] =        -0.116825496888;
  BAS[ATNO][  6].a[ 20] =         0.088792000000;     BAS[ATNO][  6].d[ 20] =         0.036005785076;

  // Basis function   8 L = p
  InitBFNGauss(BAS[ATNO][  7]);
  BAS[ATNO][  7].l  = 1;
  BAS[ATNO][  7].ng = 21;
  BAS[ATNO][  7].a[  0] =      4415.500000000000;     BAS[ATNO][  7].d[  0] =        -0.000045091451;
  BAS[ATNO][  7].a[  1] =      1046.300000000000;     BAS[ATNO][  7].d[  1] =        -0.000396953072;
  BAS[ATNO][  7].a[  2] =       339.540000000000;     BAS[ATNO][  7].d[  2] =        -0.002229382664;
  BAS[ATNO][  7].a[  3] =       128.100000000000;     BAS[ATNO][  7].d[  3] =        -0.009592619308;
  BAS[ATNO][  7].a[  4] =        53.823000000000;     BAS[ATNO][  7].d[  4] =        -0.029853150717;
  BAS[ATNO][  7].a[  5] =        24.307000000000;     BAS[ATNO][  7].d[  5] =        -0.072233541190;
  BAS[ATNO][  7].a[  6] =        11.440000000000;     BAS[ATNO][  7].d[  6] =        -0.123241463882;
  BAS[ATNO][  7].a[  7] =         5.513200000000;     BAS[ATNO][  7].d[  7] =        -0.140709067890;
  BAS[ATNO][  7].a[  8] =         2.633100000000;     BAS[ATNO][  7].d[  8] =        -0.082237070335;
  BAS[ATNO][  7].a[  9] =      1046.300000000000;     BAS[ATNO][  7].d[  9] =         0.000015638932;
  BAS[ATNO][  7].a[ 10] =       339.540000000000;     BAS[ATNO][  7].d[ 10] =        -0.000044692785;
  BAS[ATNO][  7].a[ 11] =       128.100000000000;     BAS[ATNO][  7].d[ 11] =        -0.000073420915;
  BAS[ATNO][  7].a[ 12] =        53.823000000000;     BAS[ATNO][  7].d[ 12] =        -0.003947910247;
  BAS[ATNO][  7].a[ 13] =        24.307000000000;     BAS[ATNO][  7].d[ 13] =        -0.013974360720;
  BAS[ATNO][  7].a[ 14] =        11.440000000000;     BAS[ATNO][  7].d[ 14] =        -0.063380610464;
  BAS[ATNO][  7].a[ 15] =         5.513200000000;     BAS[ATNO][  7].d[ 15] =        -0.054689729852;
  BAS[ATNO][  7].a[ 16] =         2.633100000000;     BAS[ATNO][  7].d[ 16] =         0.149219184015;
  BAS[ATNO][  7].a[ 17] =         1.210900000000;     BAS[ATNO][  7].d[ 17] =         1.403992832734;
  BAS[ATNO][  7].a[ 18] =         0.534110000000;     BAS[ATNO][  7].d[ 18] =        -0.610584718229;
  BAS[ATNO][  7].a[ 19] =         0.223140000000;     BAS[ATNO][  7].d[ 19] =         0.300355312051;
  BAS[ATNO][  7].a[ 20] =         0.088792000000;     BAS[ATNO][  7].d[ 20] =        -0.090067128535;

  // Basis function   9 L = p
  InitBFNGauss(BAS[ATNO][  8]);
  BAS[ATNO][  8].l  = 1;
  BAS[ATNO][  8].ng = 21;
  BAS[ATNO][  8].a[  0] =      4415.500000000000;     BAS[ATNO][  8].d[  0] =         0.000016433540;
  BAS[ATNO][  8].a[  1] =      1046.300000000000;     BAS[ATNO][  8].d[  1] =         0.000144669199;
  BAS[ATNO][  8].a[  2] =       339.540000000000;     BAS[ATNO][  8].d[  2] =         0.000812496554;
  BAS[ATNO][  8].a[  3] =       128.100000000000;     BAS[ATNO][  8].d[  3] =         0.003496021682;
  BAS[ATNO][  8].a[  4] =        53.823000000000;     BAS[ATNO][  8].d[  4] =         0.010879954560;
  BAS[ATNO][  8].a[  5] =        24.307000000000;     BAS[ATNO][  8].d[  5] =         0.026325450647;
  BAS[ATNO][  8].a[  6] =        11.440000000000;     BAS[ATNO][  8].d[  6] =         0.044915243274;
  BAS[ATNO][  8].a[  7] =         5.513200000000;     BAS[ATNO][  8].d[  7] =         0.051281296213;
  BAS[ATNO][  8].a[  8] =         2.633100000000;     BAS[ATNO][  8].d[  8] =         0.029971228058;
  BAS[ATNO][  8].a[  9] =      1046.300000000000;     BAS[ATNO][  8].d[  9] =        -0.000015230807;
  BAS[ATNO][  8].a[ 10] =       339.540000000000;     BAS[ATNO][  8].d[ 10] =         0.000043526450;
  BAS[ATNO][  8].a[ 11] =       128.100000000000;     BAS[ATNO][  8].d[ 11] =         0.000071504870;
  BAS[ATNO][  8].a[ 12] =        53.823000000000;     BAS[ATNO][  8].d[ 12] =         0.003844882781;
  BAS[ATNO][  8].a[ 13] =        24.307000000000;     BAS[ATNO][  8].d[ 13] =         0.013609675893;
  BAS[ATNO][  8].a[ 14] =        11.440000000000;     BAS[ATNO][  8].d[ 14] =         0.061726585106;
  BAS[ATNO][  8].a[ 15] =         5.513200000000;     BAS[ATNO][  8].d[ 15] =         0.053262507879;
  BAS[ATNO][  8].a[ 16] =         2.633100000000;     BAS[ATNO][  8].d[ 16] =        -0.145325054370;
  BAS[ATNO][  8].a[ 17] =         1.210900000000;     BAS[ATNO][  8].d[ 17] =        -1.367353240125;
  BAS[ATNO][  8].a[ 18] =         0.534110000000;     BAS[ATNO][  8].d[ 18] =         2.081658809681;
  BAS[ATNO][  8].a[ 19] =         0.223140000000;     BAS[ATNO][  8].d[ 19] =        -0.374297723175;
  BAS[ATNO][  8].a[ 20] =         0.088792000000;     BAS[ATNO][  8].d[ 20] =         0.115254105595;

  // Basis function  10 L = p
  InitBFNGauss(BAS[ATNO][  9]);
  BAS[ATNO][  9].l  = 1;
  BAS[ATNO][  9].ng = 21;
  BAS[ATNO][  9].a[  0] =      4415.500000000000;     BAS[ATNO][  9].d[  0] =         0.000006622199;
  BAS[ATNO][  9].a[  1] =      1046.300000000000;     BAS[ATNO][  9].d[  1] =         0.000058297130;
  BAS[ATNO][  9].a[  2] =       339.540000000000;     BAS[ATNO][  9].d[  2] =         0.000327410516;
  BAS[ATNO][  9].a[  3] =       128.100000000000;     BAS[ATNO][  9].d[  3] =         0.001408786606;
  BAS[ATNO][  9].a[  4] =        53.823000000000;     BAS[ATNO][  9].d[  4] =         0.004384278946;
  BAS[ATNO][  9].a[  5] =        24.307000000000;     BAS[ATNO][  9].d[  5] =         0.010608327302;
  BAS[ATNO][  9].a[  6] =        11.440000000000;     BAS[ATNO][  9].d[  6] =         0.018099428112;
  BAS[ATNO][  9].a[  7] =         5.513200000000;     BAS[ATNO][  9].d[  7] =         0.020664746903;
  BAS[ATNO][  9].a[  8] =         2.633100000000;     BAS[ATNO][  9].d[  8] =         0.012077460749;
  BAS[ATNO][  9].a[  9] =      1046.300000000000;     BAS[ATNO][  9].d[  9] =        -0.000010969720;
  BAS[ATNO][  9].a[ 10] =       339.540000000000;     BAS[ATNO][  9].d[ 10] =         0.000031349157;
  BAS[ATNO][  9].a[ 11] =       128.100000000000;     BAS[ATNO][  9].d[ 11] =         0.000051500120;
  BAS[ATNO][  9].a[ 12] =        53.823000000000;     BAS[ATNO][  9].d[ 12] =         0.002769208906;
  BAS[ATNO][  9].a[ 13] =        24.307000000000;     BAS[ATNO][  9].d[ 13] =         0.009802128657;
  BAS[ATNO][  9].a[ 14] =        11.440000000000;     BAS[ATNO][  9].d[ 14] =         0.044457482568;
  BAS[ATNO][  9].a[ 15] =         5.513200000000;     BAS[ATNO][  9].d[ 15] =         0.038361380456;
  BAS[ATNO][  9].a[ 16] =         2.633100000000;     BAS[ATNO][  9].d[ 16] =        -0.104667803349;
  BAS[ATNO][  9].a[ 17] =         1.210900000000;     BAS[ATNO][  9].d[ 17] =        -0.984812017905;
  BAS[ATNO][  9].a[ 18] =         0.534110000000;     BAS[ATNO][  9].d[ 18] =         2.519975783868;
  BAS[ATNO][  9].a[ 19] =         0.223140000000;     BAS[ATNO][  9].d[ 19] =        -2.269766225241;
  BAS[ATNO][  9].a[ 20] =         0.088792000000;     BAS[ATNO][  9].d[ 20] =         0.214201737496;

  // Basis function  11 L = p
  InitBFNGauss(BAS[ATNO][ 10]);
  BAS[ATNO][ 10].l  = 1;
  BAS[ATNO][ 10].ng = 21;
  BAS[ATNO][ 10].a[  0] =      4415.500000000000;     BAS[ATNO][ 10].d[  0] =        -0.000002659191;
  BAS[ATNO][ 10].a[  1] =      1046.300000000000;     BAS[ATNO][ 10].d[  1] =        -0.000023409627;
  BAS[ATNO][ 10].a[  2] =       339.540000000000;     BAS[ATNO][ 10].d[  2] =        -0.000131474024;
  BAS[ATNO][ 10].a[  3] =       128.100000000000;     BAS[ATNO][ 10].d[  3] =        -0.000565708292;
  BAS[ATNO][ 10].a[  4] =        53.823000000000;     BAS[ATNO][ 10].d[  4] =        -0.001760538428;
  BAS[ATNO][ 10].a[  5] =        24.307000000000;     BAS[ATNO][ 10].d[  5] =        -0.004259849362;
  BAS[ATNO][ 10].a[  6] =        11.440000000000;     BAS[ATNO][ 10].d[  6] =        -0.007267954230;
  BAS[ATNO][ 10].a[  7] =         5.513200000000;     BAS[ATNO][ 10].d[  7] =        -0.008298076256;
  BAS[ATNO][ 10].a[  8] =         2.633100000000;     BAS[ATNO][ 10].d[  8] =        -0.004849790358;
  BAS[ATNO][ 10].a[  9] =      1046.300000000000;     BAS[ATNO][ 10].d[  9] =         0.000005868200;
  BAS[ATNO][ 10].a[ 10] =       339.540000000000;     BAS[ATNO][ 10].d[ 10] =        -0.000016770084;
  BAS[ATNO][ 10].a[ 11] =       128.100000000000;     BAS[ATNO][ 10].d[ 11] =        -0.000027549747;
  BAS[ATNO][ 10].a[ 12] =        53.823000000000;     BAS[ATNO][ 10].d[ 12] =        -0.001481375309;
  BAS[ATNO][ 10].a[ 13] =        24.307000000000;     BAS[ATNO][ 10].d[ 13] =        -0.005243602727;
  BAS[ATNO][ 10].a[ 14] =        11.440000000000;     BAS[ATNO][ 10].d[ 14] =        -0.023782321676;
  BAS[ATNO][ 10].a[ 15] =         5.513200000000;     BAS[ATNO][ 10].d[ 15] =        -0.020521240458;
  BAS[ATNO][ 10].a[ 16] =         2.633100000000;     BAS[ATNO][ 10].d[ 16] =         0.055991550232;
  BAS[ATNO][ 10].a[ 17] =         1.210900000000;     BAS[ATNO][ 10].d[ 17] =         0.526820567596;
  BAS[ATNO][ 10].a[ 18] =         0.534110000000;     BAS[ATNO][ 10].d[ 18] =        -1.682194424894;
  BAS[ATNO][ 10].a[ 19] =         0.223140000000;     BAS[ATNO][ 10].d[ 19] =         2.590603325657;
  BAS[ATNO][ 10].a[ 20] =         0.088792000000;     BAS[ATNO][ 10].d[ 20] =        -1.976968054649;

  // Basis function  12 L = d
  InitBFNGauss(BAS[ATNO][ 11]);
  BAS[ATNO][ 11].l  = 2;
  BAS[ATNO][ 11].ng = 4;
  BAS[ATNO][ 11].a[  0] =        10.860000000000;     BAS[ATNO][ 11].d[  0] =         0.320819442780;
  BAS[ATNO][ 11].a[  1] =         2.860000000000;     BAS[ATNO][ 11].d[  1] =         0.766325121472;
  BAS[ATNO][ 11].a[  2] =         0.840000000000;     BAS[ATNO][ 11].d[  2] =         0.077177154609;
  BAS[ATNO][ 11].a[  3] =         0.310000000000;     BAS[ATNO][ 11].d[  3] =        -0.006583612769;

  // Basis function  13 L = d
  InitBFNGauss(BAS[ATNO][ 12]);
  BAS[ATNO][ 12].l  = 2;
  BAS[ATNO][ 12].ng = 4;
  BAS[ATNO][ 12].a[  0] =        10.860000000000;     BAS[ATNO][ 12].d[  0] =        -0.264631378496;
  BAS[ATNO][ 12].a[  1] =         2.860000000000;     BAS[ATNO][ 12].d[  1] =        -0.390664340134;
  BAS[ATNO][ 12].a[  2] =         0.840000000000;     BAS[ATNO][ 12].d[  2] =         1.077532005557;
  BAS[ATNO][ 12].a[  3] =         0.310000000000;     BAS[ATNO][ 12].d[  3] =         0.019929613178;

  // Basis function  14 L = d
  InitBFNGauss(BAS[ATNO][ 13]);
  BAS[ATNO][ 13].l  = 2;
  BAS[ATNO][ 13].ng = 4;
  BAS[ATNO][ 13].a[  0] =        10.860000000000;     BAS[ATNO][ 13].d[  0] =         0.183425101775;
  BAS[ATNO][ 13].a[  1] =         2.860000000000;     BAS[ATNO][ 13].d[  1] =         0.148485843746;
  BAS[ATNO][ 13].a[  2] =         0.840000000000;     BAS[ATNO][ 13].d[  2] =        -0.978644012478;
  BAS[ATNO][ 13].a[  3] =         0.310000000000;     BAS[ATNO][ 13].d[  3] =         1.346398797652;

  // Basis function  15 L = d
  InitBFNGauss(BAS[ATNO][ 14]);
  BAS[ATNO][ 14].l  = 2;
  BAS[ATNO][ 14].ng = 4;
  BAS[ATNO][ 14].a[  0] =        10.860000000000;     BAS[ATNO][ 14].d[  0] =        -1.087571838951;
  BAS[ATNO][ 14].a[  1] =         2.860000000000;     BAS[ATNO][ 14].d[  1] =         1.168317924433;
  BAS[ATNO][ 14].a[  2] =         0.840000000000;     BAS[ATNO][ 14].d[  2] =        -0.838527692141;
  BAS[ATNO][ 14].a[  3] =         0.310000000000;     BAS[ATNO][ 14].d[  3] =         0.399204421111;

  // Basis function  16 L = f
  InitBFNGauss(BAS[ATNO][ 15]);
  BAS[ATNO][ 15].l  = 3;
  BAS[ATNO][ 15].ng = 2;
  BAS[ATNO][ 15].a[  0] =         1.910000000000;     BAS[ATNO][ 15].d[  0] =         0.786501599901;
  BAS[ATNO][ 15].a[  1] =         0.630000000000;     BAS[ATNO][ 15].d[  1] =         0.332709651263;

  // Basis function  17 L = f
  InitBFNGauss(BAS[ATNO][ 16]);
  BAS[ATNO][ 16].l  = 3;
  BAS[ATNO][ 16].ng = 2;
  BAS[ATNO][ 16].a[  0] =         1.910000000000;     BAS[ATNO][ 16].d[  0] =        -0.864145172280;
  BAS[ATNO][ 16].a[  1] =         0.630000000000;     BAS[ATNO][ 16].d[  1] =         1.120105322449;

  // Basis function  18 L = g
  InitBFNGauss(BAS[ATNO][ 17]);
  BAS[ATNO][ 17].l  = 4;
  BAS[ATNO][ 17].ng = 1;
  BAS[ATNO][ 17].a[  0] =         0.930000000000;     BAS[ATNO][ 17].d[  0] =         1.000000000000;

-------
TIMINGS
-------

Total SCF time: 0 days 0 hours 0 min 1 sec 

Total time                  ....       1.503 sec
Sum of individual times     ....       1.310 sec  ( 87.1%)

Fock matrix formation       ....       0.840 sec  ( 55.9%)
  XC integration            ....       0.018 sec  (  2.2% of F)
    Basis function eval.    ....       0.004 sec  ( 20.8% of XC)
    Density eval.           ....       0.001 sec  (  7.3% of XC)
    XC-Functional eval.     ....       0.001 sec  (  6.8% of XC)
    XC-Potential eval.      ....       0.002 sec  ( 11.3% of XC)
Diagonalization             ....       0.001 sec  (  0.1%)
Density matrix formation    ....       0.001 sec  (  0.0%)
Population analysis         ....       0.001 sec  (  0.1%)
Initial guess               ....       0.089 sec  (  5.9%)
Orbital Transformation      ....       0.000 sec  (  0.0%)
Orbital Orthonormalization  ....       0.000 sec  (  0.0%)
DIIS solution               ....       0.000 sec  (  0.0%)
SOSCF solution              ....       0.001 sec  (  0.1%)
Grid generation             ....       0.378 sec  ( 25.1%)

-------------------------   --------------------
FINAL SINGLE POINT ENERGY      -311.540867558127
-------------------------   --------------------


                            ***************************************
                            *     ORCA property calculations      *
                            ***************************************

                                    ---------------------
                                    Active property flags
                                    ---------------------
   (+) Dipole Moment


------------------------------------------------------------------------------
                       ORCA ELECTRIC PROPERTIES CALCULATION
------------------------------------------------------------------------------

Dipole Moment Calculation                       ... on
Quadrupole Moment Calculation                   ... off
Polarizability Calculation                      ... off
GBWName                                         ... Ar_pc-3_2192.575824_.gbw
Electron density file                           ... Ar_pc-3_2192.575824_.scfp
The origin for moment calculation is the CENTER OF MASS  = ( 0.000000,  0.000000  0.000000)

-------------
DIPOLE MOMENT
-------------
                                X             Y             Z
Electronic contribution:     -0.00000       0.00000       0.00000
Nuclear contribution   :      0.00000       0.00000       0.00000
                        -----------------------------------------
Total Dipole Moment    :     -0.00000       0.00000       0.00000
                        -----------------------------------------
Magnitude (a.u.)       :      0.00000
Magnitude (Debye)      :      0.00000



--------------------
Rotational spectrum 
--------------------
 
Rotational constants in cm-1:     0.000000     0.000000     0.000000 
Rotational constants in MHz :     0.000000     0.000000     0.000000 

 Dipole components along the rotational axes: 
x,y,z [a.u.] :    -0.000000     0.000000     0.000000 
x,y,z [Debye]:    -0.000000     0.000000     0.000000 

 

Timings for individual modules:

Sum of individual times         ...        2.748 sec (=   0.046 min)
GTO integral calculation        ...        0.592 sec (=   0.010 min)  21.6 %
Relativistic integrals          ...        0.395 sec (=   0.007 min)  14.4 %
SCF iterations                  ...        1.761 sec (=   0.029 min)  64.1 %
                             ****ORCA TERMINATED NORMALLY****
TOTAL RUN TIME: 0 days 0 hours 0 minutes 3 seconds 71 msec
