
                                 *****************
                                 * O   R   C   A *
                                 *****************

           --- An Ab Initio, DFT and Semiempirical electronic structure package ---

                  #######################################################
                  #                        -***-                        #
                  #          Department of theory and spectroscopy      #
                  #               Directorship: Frank Neese             #
                  #        Max Planck Institute fuer Kohlenforschung    #
                  #                Kaiser Wilhelm Platz 1               #
                  #                 D-45470 Muelheim/Ruhr               #
                  #                      Germany                        #
                  #                                                     #
                  #                  All rights reserved                #
                  #                        -***-                        #
                  #######################################################


                         Program Version 4.2.1 -  RELEASE  -


 With contributions from (in alphabetic order):
   Daniel Aravena         : Magnetic Suceptibility
   Michael Atanasov       : Ab Initio Ligand Field Theory (pilot matlab implementation)
   Alexander A. Auer      : GIAO ZORA, VPT2
   Ute Becker             : Parallelization
   Giovanni Bistoni       : ED, misc. LED, open-shell LED, HFLD
   Martin Brehm           : Molecular dynamics
   Dmytro Bykov           : SCF Hessian
   Vijay G. Chilkuri      : MRCI spin determinant printing, contributions to CSF-ICE
   Dipayan Datta          : RHF DLPNO-CCSD density
   Achintya Kumar Dutta   : EOM-CC, STEOM-CC
   Dmitry Ganyushin       : Spin-Orbit,Spin-Spin,Magnetic field MRCI
   Miquel Garcia          : C-PCM Hessian, Gaussian charge scheme
   Yang Guo               : DLPNO-NEVPT2, CIM, IAO-localization
   Andreas Hansen         : Spin unrestricted coupled pair/coupled cluster methods
   Benjamin Helmich-Paris : CASSCF linear response (MC-RPA)
   Lee Huntington         : MR-EOM, pCC
   Robert Izsak           : Overlap fitted RIJCOSX, COSX-SCS-MP3, EOM
   Christian Kollmar      : KDIIS, OOCD, Brueckner-CCSD(T), CCSD density
   Simone Kossmann        : Meta GGA functionals, TD-DFT gradient, OOMP2, MP2 Hessian
   Martin Krupicka        : AUTO-CI
   Lucas Lang             : DCDCAS
   Dagmar Lenk            : GEPOL surface, SMD
   Dimitrios Liakos       : Extrapolation schemes; Compound Job, initial MDCI parallelization
   Dimitrios Manganas     : Further ROCIS development; embedding schemes
   Dimitrios Pantazis     : SARC Basis sets
   Taras Petrenko         : DFT Hessian,TD-DFT gradient, ASA, ECA, R-Raman, ABS, FL, XAS/XES, NRVS
   Peter Pinski           : DLPNO-MP2, DLPNO-MP2 Gradient
   Christoph Reimann      : Effective Core Potentials
   Marius Retegan         : Local ZFS, SOC
   Christoph Riplinger    : Optimizer, TS searches, QM/MM, DLPNO-CCSD(T), (RO)-DLPNO pert. Triples
   Tobias Risthaus        : Range-separated hybrids, TD-DFT gradient, RPA, STAB
   Michael Roemelt        : Original ROCIS implementation
   Masaaki Saitow         : Open-shell DLPNO-CCSD energy and density
   Barbara Sandhoefer     : DKH picture change effects
   Avijit Sen             : IP-ROCIS
   Kantharuban Sivalingam : CASSCF convergence, NEVPT2, FIC-MRCI
   Bernardo de Souza      : ESD, SOC TD-DFT
   Georgi Stoychev        : AutoAux, RI-MP2 NMR
   Willem Van den Heuvel  : Paramagnetic NMR
   Boris Wezisla          : Elementary symmetry handling
   Frank Wennmohs         : Technical directorship


 We gratefully acknowledge several colleagues who have allowed us to
 interface, adapt or use parts of their codes:
   Stefan Grimme, W. Hujo, H. Kruse,             : VdW corrections, initial TS optimization,
                  C. Bannwarth                     DFT functionals, gCP, sTDA/sTD-DF
   Ed Valeev, F. Pavosevic, A. Kumar             : LibInt (2-el integral package), F12 methods
   Garnet Chan, S. Sharma, J. Yang, R. Olivares  : DMRG
   Ulf Ekstrom                                   : XCFun DFT Library
   Mihaly Kallay                                 : mrcc  (arbitrary order and MRCC methods)
   Andreas Klamt, Michael Diedenhofen            : otool_cosmo (COSMO solvation model)
   Jiri Pittner, Ondrej Demel                    : Mk-CCSD
   Frank Weinhold                                : gennbo (NPA and NBO analysis)
   Christopher J. Cramer and Donald G. Truhlar   : smd solvation model
   Lars Goerigk                                  : TD-DFT with DH, B97 family of functionals
   V. Asgeirsson, H. Jonsson                     : NEB implementation
   FAccTs GmbH                                   : IRC, NEB, NEB-TS, Multilevel, MM, QM/MM, CI optimization
   S Lehtola, MJT Oliveira, MAL Marques          : LibXC Library


 Your calculation uses the libint2 library for the computation of 2-el integrals
 For citations please refer to: http://libint.valeyev.net

 Your ORCA version has been built with support for libXC version: 4.2.3
 For citations please refer to: https://tddft.org/programs/libxc/

 This ORCA versions uses:
   CBLAS   interface :  Fast vector & matrix operations
   LAPACKE interface :  Fast linear algebra routines
   SCALAPACK package :  Parallel linear algebra routines


----- Orbital basis set information -----
Your calculation utilizes the basis: ZORA-def2-QZVPP 
   Exponents from def2-QZVPP [F. Weigend and R. Ahlrichs, Phys. Chem. Chem. Phys. 7, 3297 (2005)],
   recontracted for ZORA by D. A. Pantazis.

================================================================================
                                        WARNINGS
                       Please study these warnings very carefully!
================================================================================


INFO   : the flag for use of LIBINT has been found!

================================================================================
                                       INPUT FILE
================================================================================
NAME = Ar_zora-def2-qzvpp_68.5179945_.inp
|  1> ! LDA zora-def2-qzvpp nori grid5 finalgrid6 verytightscf
|  2> %Pal NProcs 18 End
|  3> 
|  4> % REL
|  5>   Method ZORA
|  6>   ModelPot 1, 0, 0, 0
|  7>   velit 68.5179945
|  8> END
|  9> 
| 10> *xyz 16 1
| 11> Ar 0.0 0.0 0.0
| 12> **                         ****END OF INPUT****
================================================================================

                       ****************************
                       * Single Point Calculation *
                       ****************************

---------------------------------
CARTESIAN COORDINATES (ANGSTROEM)
---------------------------------
  Ar     0.000000    0.000000    0.000000

----------------------------
CARTESIAN COORDINATES (A.U.)
----------------------------
  NO LB      ZA    FRAG     MASS         X           Y           Z
   0 Ar   18.0000    0    39.948    0.000000    0.000000    0.000000

--------------------------------
INTERNAL COORDINATES (ANGSTROEM)
--------------------------------
 Ar     0   0   0     0.000000000000     0.00000000     0.00000000

---------------------------
INTERNAL COORDINATES (A.U.)
---------------------------
 Ar     0   0   0     0.000000000000     0.00000000     0.00000000

---------------------
BASIS SET INFORMATION
---------------------
There are 1 groups of distinct atoms

 Group   1 Type Ar  : 20s14p4d2f1g contracted to 11s7p4d2f1g pattern {101111111111/8111111/1111/11/1}

Atom   0Ar   basis set group =>   1


           ************************************************************
           *        Program running with 18 parallel MPI-processes    *
           *              working on a common directory               *
           ************************************************************
------------------------------------------------------------------------------
                           ORCA GTO INTEGRAL CALCULATION
------------------------------------------------------------------------------

                         BASIS SET STATISTICS AND STARTUP INFO

 # of primitive gaussian shells          ...   41
 # of primitive gaussian functions       ...  105
 # of contracted shells                  ...   25
 # of contracted basis functions         ...   75
 Highest angular momentum                ...    4
 Maximum contraction depth               ...   10
 Integral package used                   ... LIBINT
 Integral threshhold            Thresh   ...  1.000e-12
 Primitive cut-off              TCut     ...  1.000e-14


------------------------------ INTEGRAL EVALUATION ----------------------------


 * One electron integrals 
 Pre-screening matrix                    ... done
 Shell pair data                         ... done (   0.000 sec)



           ************************************************************
           *        Program running with 18 parallel MPI-processes    *
           *              working on a common directory               *
           ************************************************************
------------------------------------------------------------------------------
                          ORCA RELATIVISTIC HAMILTONIAN
------------------------------------------------------------------------------

Relativistic Method            ... ZORA(MP)
Treatment of potential         ... Van Wuellen
Nucleus model                  ... Point Nucleus
Speed of light used            ...  68.51799450000000


            *************************************************
            *         ZERO ORDER REGULAR APPROXIMATION      *
            *                     ZORA(MP)                  *
            *            Programmed by FN according to      *
            *                   C. van Wuellen              *
            *       J. Chem. Phys. (1998) vol 109, 392-399  *
            *************************************************

Terms included in model potential: +V(e,N)
Basis function cutoff value   ... 1.000000e-12
Loading the fitted atomic densities  (DKH4)  ... done
Calculating the cutoffs                      ... done
Number of fit functions                      ... 15
Setting up the integration grid ... done


           ************************************************************
           *        Program running with 18 parallel MPI-processes    *
           *              working on a common directory               *
           ************************************************************
-------------------------------------------------------------------------------
                                 ORCA SCF
-------------------------------------------------------------------------------

------------
SCF SETTINGS
------------
Hamiltonian:
 Density Functional     Method          .... DFT(GTOs)
 Exchange Functional    Exchange        .... Slater
   X-Alpha parameter    XAlpha          ....  0.666667
 Correlation Functional Correlation     .... VWN-5
 Gradients option       PostSCFGGA      .... off
   Density functional embedding theory  .... OFF

Relativistic Settings:
 Scalar relativistic method             .... ZORA
 Speed of light used       Velit        ....       68.5179945
Orbital energies will be scaled


General Settings:
 Integral files         IntName         .... Ar_zora-def2-qzvpp_68.5179945_
 Hartree-Fock type      HFTyp           .... RHF
 Total Charge           Charge          ....   16
 Multiplicity           Mult            ....    1
 Number of Electrons    NEL             ....    2
 Basis Dimension        Dim             ....   75
 Nuclear Repulsion      ENuc            ....      0.0000000000 Eh

Convergence Acceleration:
 DIIS                   CNVDIIS         .... on
   Start iteration      DIISMaxIt       ....    12
   Startup error        DIISStart       ....  0.200000
   # of expansion vecs  DIISMaxEq       ....     5
   Bias factor          DIISBfac        ....   1.050
   Max. coefficient     DIISMaxC        ....  10.000
 Newton-Raphson         CNVNR           .... off
 SOSCF                  CNVSOSCF        .... on
   Start iteration      SOSCFMaxIt      ....   150
   Startup grad/error   SOSCFStart      ....  0.003300
 Level Shifting         CNVShift        .... on
   Level shift para.    LevelShift      ....    0.2500
   Turn off err/grad.   ShiftErr        ....    0.0010
 Zerner damping         CNVZerner       .... off
 Static damping         CNVDamp         .... on
   Fraction old density DampFac         ....    0.7000
   Max. Damping (<1)    DampMax         ....    0.9800
   Min. Damping (>=0)   DampMin         ....    0.0000
   Turn off err/grad.   DampErr         ....    0.1000
 Fernandez-Rico         CNVRico         .... off

SCF Procedure:
 Maximum # iterations   MaxIter         ....   125
 SCF integral mode      SCFMode         .... Direct
   Integral package                     .... LIBINT
 Reset frequency        DirectResetFreq ....    20
 Integral Threshold     Thresh          ....  1.000e-12 Eh
 Primitive CutOff       TCut            ....  1.000e-14 Eh

Convergence Tolerance:
 Convergence Check Mode ConvCheckMode   .... Total+1el-Energy
 Convergence forced     ConvForced      .... 0
 Energy Change          TolE            ....  1.000e-09 Eh
 1-El. energy change                    ....  1.000e-06 Eh
 Orbital Gradient       TolG            ....  2.000e-06
 Orbital Rotation angle TolX            ....  2.000e-06
 DIIS Error             TolErr          ....  1.000e-08


Diagonalization of the overlap matrix:
Smallest eigenvalue                        ... 5.724e-04
Time for diagonalization                   ...    0.002 sec
Threshold for overlap eigenvalues          ... 1.000e-08
Number of eigenvalues below threshold      ... 0
Time for construction of square roots      ...    0.001 sec
Total time needed                          ...    0.003 sec

-------------------
DFT GRID GENERATION
-------------------

General Integration Accuracy     IntAcc      ...  5.010
Radial Grid Type                 RadialGrid  ... Gauss-Chebyshev
Angular Grid (max. acc.)         AngularGrid ... Lebedev-434
Angular grid pruning method      GridPruning ... 3 (G Style)
Weight generation scheme         WeightScheme... Becke
Basis function cutoff            BFCut       ...    1.0000e-12
Integration weight cutoff        WCut        ...    1.0000e-14
Grids for H and He will be reduced by one unit

# of grid points (after initial pruning)     ...  11992 (   0.0 sec)
# of grid points (after weights+screening)   ...  11992 (   0.0 sec)
Grid point division into batches done        ...    0.1 sec
Reduced shell lists constructed in    0.1 sec

Total number of grid points                  ...    11992
Total number of batches                      ...      188
Average number of points per batch           ...       63
Average number of grid points per atom       ...    11992
Average number of shells per batch           ...     0.42 ( 1.67%)
Average number of basis functions per batch  ...     1.25 ( 1.67%)
Average number of large shells per batch     ...     0.42 (100.00%)
Average number of large basis fcns per batch ...     1.25 (100.00%)
Maximum spatial batch extension              ...  18.71, 18.71, 18.71 au
Average spatial batch extension              ...   0.97,  0.98,  0.97 au

Time for grid setup =    0.151 sec

------------------------------
INITIAL GUESS: MODEL POTENTIAL
------------------------------
Loading ZORA relativistic densities                ... done
Calculating cut-offs                               ... done
Setting up the integral package                    ... done
Initializing the effective Hamiltonian             ... done
Starting the Coulomb interaction                   ... done (   0.0 sec)
Reading the grid                                   ... done
Mapping shells                                     ... done
Starting the XC term evaluation                    ... done (   0.0 sec)
  promolecular density results
     # of electrons  =     18.000000116
     EX              =    -28.047870263
     EC              =     -1.433252902
     EX+EC           =    -29.481123164
Transforming the Hamiltonian                       ... done (   0.0 sec)
Diagonalizing the Hamiltonian                      ... done (   0.0 sec)
Back transforming the eigenvectors                 ... done (   0.0 sec)
Now organizing SCF variables                       ... done
                      ------------------
                      INITIAL GUESS DONE (   0.2 sec)
                      ------------------
--------------
SCF ITERATIONS
--------------
ITER       Energy         Delta-E        Max-DP      RMS-DP      [F,P]     Damp
               ***  Starting incremental Fock matrix formation  ***
  0   -322.6033968518   0.000000000000 0.00738102  0.00012851  2.2505411 0.7000
  1   -322.6107699395  -0.007373087725 0.00508695  0.00008915  1.5623902 0.7000
  2   -322.6158731526  -0.005103213056 0.00349713  0.00006170  1.0838129 0.7000
  3   -322.6194177800  -0.003544627474 0.00240397  0.00004270  0.7518831 0.7000
                      *** Initiating the SOSCF procedure ***
                      *** Re-Reading the Fockian *** 
                      *** Removing any level shift *** 
ITER      Energy       Delta-E        Grad      Rot      Max-DP    RMS-DP
  4   -322.62188586  -0.0024680751  0.002729  0.002729  0.005508  0.000099
               *** Restarting incremental Fock matrix formation ***
  5   -322.62760385  -0.0057179991  0.006289  0.000032  0.000233  0.000003
  6   -322.62760471  -0.0000008556  0.000186  0.000001  0.000007  0.000000
                 **** Energy Check signals convergence ****
              ***Rediagonalizing the Fockian in SOSCF/NRSCF***

               *****************************************************
               *                     SUCCESS                       *
               *           SCF CONVERGED AFTER   7 CYCLES          *
               *****************************************************

Setting up the final grid:

General Integration Accuracy     IntAcc      ...  5.340
Radial Grid Type                 RadialGrid  ... Gauss-Chebyshev
Angular Grid (max. acc.)         AngularGrid ... Lebedev-590
Angular grid pruning method      GridPruning ... 3 (G Style)
Weight generation scheme         WeightScheme... Becke
Basis function cutoff            BFCut       ...    1.0000e-12
Integration weight cutoff        WCut        ...    1.0000e-14
Grids for H and He will be reduced by one unit

# of grid points (after initial pruning)     ...  18110 (   0.0 sec)
# of grid points (after weights+screening)   ...  18110 (   0.0 sec)
Grid point division into batches done        ...    0.2 sec
Reduced shell lists constructed in    0.2 sec

Total number of grid points                  ...    18110
Total number of batches                      ...      283
Average number of points per batch           ...       63
Average number of grid points per atom       ...    18110
Average number of shells per batch           ...     0.00 ( 0.00%)
Average number of basis functions per batch  ...     0.00 ( 0.00%)
Average number of large shells per batch     ...     0.00 ( -nan%)
Average number of large basis fcns per batch ...     0.00 ( -nan%)
Maximum spatial batch extension              ...  19.03, 19.03, 19.03 au
Average spatial batch extension              ...   0.84,  0.84,  0.80 au

Final grid set up in    0.2 sec
Final integration                            ... done (   0.0 sec)
Change in XC energy                          ...     0.000000746
Integrated number of electrons               ...     2.000000015
Previous integrated no of electrons          ...     1.999999980

----------------
TOTAL SCF ENERGY
----------------

Total Energy       :         -322.62760396 Eh           -8779.14343 eV

Components:
Nuclear Repulsion  :            0.00000000 Eh               0.00000 eV
Electronic Energy  :         -322.62760396 Eh           -8779.14343 eV
One Electron Energy:         -335.48311529 Eh           -9128.95967 eV
Two Electron Energy:           12.85551133 Eh             349.81625 eV

Virial components:
Potential Energy   :         -656.54595796 Eh          -17865.52378 eV
Kinetic Energy     :          333.91835400 Eh            9086.38035 eV
Virial Ratio       :            1.96618709


DFT components:
N(Alpha)           :        1.000000007611 electrons
N(Beta)            :        1.000000007611 electrons
N(Total)           :        2.000000015222 electrons
E(X)               :       -9.861806623550 Eh       
E(C)               :       -0.239246653225 Eh       
E(XC)              :      -10.101053276775 Eh       
DFET-embed. en.    :        0.000000000000 Eh       

---------------
SCF CONVERGENCE
---------------

  Last Energy change         ...   -8.0138e-10  Tolerance :   1.0000e-09
  Last MAX-Density change    ...    3.8338e-10  Tolerance :   1.0000e-08
  Last RMS-Density change    ...    7.4158e-12  Tolerance :   1.0000e-09
  Last Orbital Gradient      ...    1.5755e-08  Tolerance :   2.0000e-06
  Last Orbital Rotation      ...    3.5890e-11  Tolerance :   2.0000e-06

================================================================================
                                        WARNING
Number of found core electrons (2) does not match given number of chemical core electrons (10)
================================================================================
             **** THE GBW FILE WAS UPDATED (Ar_zora-def2-qzvpp_68.5179945_.gbw) ****
             **** DENSITY FILE WAS UPDATED (Ar_zora-def2-qzvpp_68.5179945_.scfp) ****
             **** ENERGY FILE WAS UPDATED (Ar_zora-def2-qzvpp_68.5179945_.en.tmp) ****
             **** THE GBW FILE WAS UPDATED (Ar_zora-def2-qzvpp_68.5179945_.gbw) ****
             **** DENSITY FILE WAS UPDATED (Ar_zora-def2-qzvpp_68.5179945_.scfp) ****
----------------
ORBITAL ENERGIES
----------------

  NO   OCC          E(Eh)            E(eV) 
   0   2.0000    -151.488724     -4122.2177 
   1   0.0000     -34.993349      -952.2174 
   2   0.0000     -33.415067      -909.2702 
   3   0.0000     -33.415067      -909.2702 
   4   0.0000     -33.415067      -909.2702 
   5   0.0000     -15.071315      -410.1113 
   6   0.0000     -14.056805      -382.5051 
   7   0.0000     -14.056805      -382.5051 
   8   0.0000     -14.056805      -382.5051 
   9   0.0000     -14.042093      -382.1048 
  10   0.0000     -14.042093      -382.1048 
  11   0.0000     -14.042093      -382.1048 
  12   0.0000     -14.042093      -382.1048 
  13   0.0000     -14.042093      -382.1048 
  14   0.0000      -8.331269      -226.7054 
  15   0.0000      -7.874924      -214.2876 
  16   0.0000      -7.874924      -214.2876 
  17   0.0000      -7.874924      -214.2876 
  18   0.0000      -7.874924      -214.2876 
  19   0.0000      -7.874924      -214.2876 
  20   0.0000      -7.707296      -209.7262 
  21   0.0000      -7.707296      -209.7262 
  22   0.0000      -7.707296      -209.7262 
  23   0.0000      -7.514756      -204.4869 
  24   0.0000      -7.514756      -204.4869 
  25   0.0000      -7.514756      -204.4869 
  26   0.0000      -7.514756      -204.4869 
  27   0.0000      -7.514756      -204.4869 
  28   0.0000      -7.514756      -204.4869 
  29   0.0000      -7.514756      -204.4869 
  30   0.0000      -5.199186      -141.4770 
  31   0.0000      -5.000600      -136.0732 
  32   0.0000      -5.000600      -136.0732 
  33   0.0000      -5.000600      -136.0732 
  34   0.0000      -5.000600      -136.0732 
  35   0.0000      -5.000600      -136.0732 
  36   0.0000      -4.881474      -132.8317 
  37   0.0000      -4.881474      -132.8317 
  38   0.0000      -4.881474      -132.8317 
  39   0.0000      -4.881474      -132.8317 
  40   0.0000      -4.881474      -132.8317 
  41   0.0000      -4.881474      -132.8317 
  42   0.0000      -4.881474      -132.8317 
  43   0.0000      -4.881474      -132.8317 
  44   0.0000      -4.881474      -132.8317 
  45   0.0000      -4.869382      -132.5026 
  46   0.0000      -4.869382      -132.5026 
  47   0.0000      -4.869382      -132.5026 
  48   0.0000      -4.686598      -127.5288 
  49   0.0000      -4.686598      -127.5288 
  50   0.0000      -4.686598      -127.5288 
  51   0.0000      -4.686598      -127.5288 
  52   0.0000      -4.686598      -127.5288 
  53   0.0000      -4.686598      -127.5288 
  54   0.0000      -4.686598      -127.5288 
  55   0.0000      -3.383390       -92.0667 
  56   0.0000      -3.277610       -89.1883 
  57   0.0000      -3.277610       -89.1883 
  58   0.0000      -3.277610       -89.1883 
  59   0.0000      -2.681607       -72.9702 
  60   0.0000      -2.681607       -72.9702 
  61   0.0000      -2.681607       -72.9702 
  62   0.0000      -2.681607       -72.9702 
  63   0.0000      -2.681607       -72.9702 
  64   0.0000      11.431928       311.0786 
  65   0.0000      16.650983       453.0963 
  66   0.0000      16.650983       453.0963 
  67   0.0000      16.650983       453.0963 
  68   0.0000      73.702681      2005.5519 
  69   0.0000     203.559258      5539.1290 
  70   0.0000     203.559258      5539.1290 
  71   0.0000     203.559258      5539.1290 
  72   0.0000     278.158481      7569.0771 
  73   0.0000     989.955330     26938.0540 
  74   0.0000    4496.088957    122344.8004 

                    ********************************
                    * MULLIKEN POPULATION ANALYSIS *
                    ********************************

-----------------------
MULLIKEN ATOMIC CHARGES
-----------------------
   0 Ar:   16.000000
Sum of atomic charges:   16.0000000

--------------------------------
MULLIKEN REDUCED ORBITAL CHARGES
--------------------------------
  0 Ars       :     2.000000  s :     2.000000
      pz      :     0.000000  p :     0.000000
      px      :     0.000000
      py      :     0.000000
      dz2     :     0.000000  d :     0.000000
      dxz     :     0.000000
      dyz     :     0.000000
      dx2y2   :     0.000000
      dxy     :     0.000000
      f0      :     0.000000  f :     0.000000
      f+1     :     0.000000
      f-1     :     0.000000
      f+2     :     0.000000
      f-2     :     0.000000
      f+3     :     0.000000
      f-3     :     0.000000
      g0      :     0.000000  g :     0.000000
      g+1     :     0.000000
      g-1     :     0.000000
      g+2     :     0.000000
      g-2     :     0.000000
      g+3     :     0.000000
      g-3     :     0.000000
      g+4     :     0.000000
      g-4     :     0.000000


                     *******************************
                     * LOEWDIN POPULATION ANALYSIS *
                     *******************************

----------------------
LOEWDIN ATOMIC CHARGES
----------------------
   0 Ar:   16.000000

-------------------------------
LOEWDIN REDUCED ORBITAL CHARGES
-------------------------------
  0 Ars       :     2.000000  s :     2.000000
      pz      :     0.000000  p :     0.000000
      px      :     0.000000
      py      :     0.000000
      dz2     :     0.000000  d :     0.000000
      dxz     :     0.000000
      dyz     :     0.000000
      dx2y2   :     0.000000
      dxy     :     0.000000
      f0      :     0.000000  f :     0.000000
      f+1     :     0.000000
      f-1     :     0.000000
      f+2     :     0.000000
      f-2     :     0.000000
      f+3     :     0.000000
      f-3     :     0.000000
      g0      :     0.000000  g :     0.000000
      g+1     :     0.000000
      g-1     :     0.000000
      g+2     :     0.000000
      g-2     :     0.000000
      g+3     :     0.000000
      g-3     :     0.000000
      g+4     :     0.000000
      g-4     :     0.000000


                      *****************************
                      * MAYER POPULATION ANALYSIS *
                      *****************************

  NA   - Mulliken gross atomic population
  ZA   - Total nuclear charge
  QA   - Mulliken gross atomic charge
  VA   - Mayer's total valence
  BVA  - Mayer's bonded valence
  FA   - Mayer's free valence

  ATOM       NA         ZA         QA         VA         BVA        FA
  0 Ar     2.0000    18.0000    16.0000    -0.0000     0.0000    -0.0000

  Mayer bond orders larger than 0.100000


--------------------------
ATOM BASIS FOR ELEMENT Ar
--------------------------
 NewGTO Ar
 S 20
    1    1673421.949400000041         0.000031220307
    2     250601.753729999997         0.000161256007
    3      57030.912120000001         0.000711506412
    4      16153.303915000000         0.002745253963
    5       5269.410928800000         0.009448501129
    6       1902.031554100000         0.029311999692
    7        741.576771590000         0.080567773170
    8        307.209019060000         0.190711249774
    9        133.527862030000         0.354508050415
   10         60.253381291000         0.412219173935
   11        522.024262060000        -0.022165102901
   12        161.512904690000        -0.059809106703
   13         62.126369433000        -0.064858054415
   14         27.590930012000         0.207703663205
   15         11.175528881000         0.013481314674
   16          5.295906513700         0.002303308926
   17          2.478279889500        -0.001872829087
   18          0.912620950600         0.000986481759
   19          0.404260675500        -0.000525085759
   20          0.165628863100         0.000142152311
 S 20
    1    1673421.949400000041         0.000010832887
    2     250601.753729999997         0.000055952942
    3      57030.912120000001         0.000246879961
    4      16153.303915000000         0.000952553878
    5       5269.410928800000         0.003278460394
    6       1902.031554100000         0.010170738061
    7        741.576771590000         0.027955571974
    8        307.209019060000         0.066173382478
    9        133.527862030000         0.123007933928
   10         60.253381291000         0.143032658502
   11        522.024262060000        -0.004374327552
   12        161.512904690000         0.007307835412
   13         62.126369433000         0.080095172678
   14         27.590930012000         0.144967914832
   15         11.175528881000        -0.447946759204
   16          5.295906513700        -0.639845566043
   17          2.478279889500        -0.107706055523
   18          0.912620950600         0.003425596356
   19          0.404260675500        -0.001233902534
   20          0.165628863100         0.000271856017
 S 20
    1    1673421.949400000041        -0.000005759440
    2     250601.753729999997        -0.000029748084
    3      57030.912120000001        -0.000131256832
    4      16153.303915000000        -0.000506437233
    5       5269.410928800000        -0.001743034645
    6       1902.031554100000        -0.005407400632
    7        741.576771590000        -0.014862930953
    8        307.209019060000        -0.035181909911
    9        133.527862030000        -0.065398713014
   10         60.253381291000        -0.076045109338
   11        522.024262060000         0.001686507688
   12        161.512904690000        -0.005579298007
   13         62.126369433000        -0.063537396243
   14         27.590930012000        -0.073485082474
   15         11.175528881000         0.361286629918
   16          5.295906513700         1.087032926306
   17          2.478279889500        -1.008070821310
   18          0.912620950600        -0.809556994126
   19          0.404260675500         0.169593241818
   20          0.165628863100        -0.039194456256
 S 20
    1    1673421.949400000041        -0.000003715474
    2     250601.753729999997        -0.000019190795
    3      57030.912120000001        -0.000084675133
    4      16153.303915000000        -0.000326707872
    5       5269.410928800000        -0.001124449592
    6       1902.031554100000        -0.003488369810
    7        741.576771590000        -0.009588229754
    8        307.209019060000        -0.022696212240
    9        133.527862030000        -0.042189382968
   10         60.253381291000        -0.049057482829
   11        522.024262060000         0.000501541371
   12        161.512904690000        -0.002213500571
   13         62.126369433000        -0.056004922565
   14         27.590930012000        -0.018419650549
   15         11.175528881000         0.179398098244
   16          5.295906513700         1.308389930057
   17          2.478279889500        -2.142165924580
   18          0.912620950600        -0.084024491349
   19          0.404260675500         1.558345953113
   20          0.165628863100        -0.183418967908
 S 20
    1    1673421.949400000041         0.000002795974
    2     250601.753729999997         0.000014441483
    3      57030.912120000001         0.000063719846
    4      16153.303915000000         0.000245854649
    5       5269.410928800000         0.000846172326
    6       1902.031554100000         0.002625072761
    7        741.576771590000         0.007215347605
    8        307.209019060000         0.017079384288
    9        133.527862030000         0.031748411452
   10         60.253381291000         0.036916803235
   11        522.024262060000         0.000213428285
   12        161.512904690000        -0.000354679254
   13         62.126369433000         0.056320668730
   14         27.590930012000        -0.021754716997
   15         11.175528881000        -0.029783901229
   16          5.295906513700        -1.512127912176
   17          2.478279889500         3.061616044118
   18          0.912620950600        -2.385028807644
   19          0.404260675500        -0.258708280556
   20          0.165628863100         1.473877695401
 S 20
    1    1673421.949400000041         0.000003309411
    2     250601.753729999997         0.000017093437
    3      57030.912120000001         0.000075421004
    4      16153.303915000000         0.000291002031
    5       5269.410928800000         0.001001558712
    6       1902.031554100000         0.003107126542
    7        741.576771590000         0.008540333962
    8        307.209019060000         0.020215747555
    9        133.527862030000         0.037578513390
   10         60.253381291000         0.043695999934
   11        522.024262060000         0.000744583773
   12        161.512904690000        -0.002157955840
   13         62.126369433000         0.078539690390
   14         27.590930012000        -0.056818687790
   15         11.175528881000         0.063627238793
   16          5.295906513700        -2.280903451680
   17          2.478279889500         5.156662756396
   18          0.912620950600        -7.201035357758
   19          0.404260675500         6.611004571613
   20          0.165628863100        -2.726543210392
 S 20
    1    1673421.949400000041        -0.000010927603
    2     250601.753729999997        -0.000056442164
    3      57030.912120000001        -0.000249038545
    4      16153.303915000000        -0.000960882490
    5       5269.410928800000        -0.003307125465
    6       1902.031554100000        -0.010259665452
    7        741.576771590000        -0.028200000259
    8        307.209019060000        -0.066751966469
    9        133.527862030000        -0.124083448261
   10         60.253381291000        -0.144283258113
   11        522.024262060000         0.022659203042
   12        161.512904690000        -0.100165069956
   13         62.126369433000         0.323008932345
   14         27.590930012000        -1.650810102834
   15         11.175528881000         7.233001794922
   16          5.295906513700       -11.330690037802
   17          2.478279889500         8.729193902668
   18          0.912620950600        -4.872225382645
   19          0.404260675500         2.635695730449
   20          0.165628863100        -0.719020021346
 S 20
    1    1673421.949400000041        -0.000014752223
    2     250601.753729999997        -0.000076196706
    3      57030.912120000001        -0.000336201086
    4      16153.303915000000        -0.001297187697
    5       5269.410928800000        -0.004464606768
    6       1902.031554100000        -0.013850509243
    7        741.576771590000        -0.038069892833
    8        307.209019060000        -0.090114900230
    9        133.527862030000        -0.167512182064
   10         60.253381291000        -0.194781848349
   11        522.024262060000        -0.084924924967
   12        161.512904690000         0.306834406176
   13         62.126369433000        -2.781982929705
   14         27.590930012000         7.507037707760
   15         11.175528881000        -9.807366564172
   16          5.295906513700         8.622796407236
   17          2.478279889500        -4.733574677413
   18          0.912620950600         2.159987657043
   19          0.404260675500        -1.098887115828
   20          0.165628863100         0.291488166721
 S 20
    1    1673421.949400000041        -0.000050919497
    2     250601.753729999997        -0.000263004291
    3      57030.912120000001        -0.001160448172
    4      16153.303915000000        -0.004477436734
    5       5269.410928800000        -0.015410255884
    6       1902.031554100000        -0.047807097609
    7        741.576771590000        -0.131403910908
    8        307.209019060000        -0.311045013268
    9        133.527862030000        -0.578193270588
   10         60.253381291000        -0.672318589374
   11        522.024262060000         0.313858595302
   12        161.512904690000        -2.185166945843
   13         62.126369433000         7.629254553861
   14         27.590930012000        -7.512623591191
   15         11.175528881000         6.098729067930
   16          5.295906513700        -4.528120047835
   17          2.478279889500         2.341250331550
   18          0.912620950600        -1.052694339527
   19          0.404260675500         0.535642064510
   20          0.165628863100        -0.142185698940
 S 20
    1    1673421.949400000041         0.000014575303
    2     250601.753729999997         0.000075282897
    3      57030.912120000001         0.000332169106
    4      16153.303915000000         0.001281630832
    5       5269.410928800000         0.004411063795
    6       1902.031554100000         0.013684403359
    7        741.576771590000         0.037613329605
    8        307.209019060000         0.089034173529
    9        133.527862030000         0.165503248053
   10         60.253381291000         0.192445875675
   11        522.024262060000         2.057905737316
   12        161.512904690000        -4.458088381062
   13         62.126369433000         4.737938297684
   14         27.590930012000        -4.086894458919
   15         11.175528881000         2.993904973076
   16          5.295906513700        -2.194782272398
   17          2.478279889500         1.140935394076
   18          0.912620950600        -0.517452896901
   19          0.404260675500         0.264330112358
   20          0.165628863100        -0.070299933207
 S 20
    1    1673421.949400000041        -0.001096390039
    2     250601.753729999997        -0.005662964131
    3      57030.912120000001        -0.024986574764
    4      16153.303915000000        -0.096407414299
    5       5269.410928800000        -0.331811036483
    6       1902.031554100000        -1.029374380805
    7        741.576771590000        -2.829366897230
    8        307.209019060000        -6.697368883517
    9        133.527862030000       -12.449560204826
   10         60.253381291000       -14.476250729669
   11        522.024262060000         8.080433843843
   12        161.512904690000        12.027034938631
   13         62.126369433000        18.360473438436
   14         27.590930012000        -1.881278753578
   15         11.175528881000         1.416076905582
   16          5.295906513700        -1.047932245197
   17          2.478279889500         0.548612101970
   18          0.912620950600        -0.250118382084
   19          0.404260675500         0.128016138692
   20          0.165628863100        -0.034077395606
 P 14
    1       2868.450458100000         0.000436835533
    2        679.718695900000         0.003263821350
    3        220.367588240000         0.017123234625
    4         83.620439734000         0.066452207303
    5         34.964322657000         0.194586899084
    6         15.525131784000         0.404363535714
    7          7.099297980600         0.558948392117
    8          3.302133660200         0.414486541230
    9        128.787656670000        -0.000853591952
   10          8.435786797700        -0.286692188579
   11          1.461866185500        -0.381621327311
   12          0.646580101000         0.271198083462
   13          0.272292957500        -0.132476188147
   14          0.109051824500         0.039955838117
 P 14
    1       2868.450458100000         0.000257776183
    2        679.718695900000         0.001925977500
    3        220.367588240000         0.010104402501
    4         83.620439734000         0.039213376699
    5         34.964322657000         0.114825521740
    6         15.525131784000         0.238614491416
    7          7.099297980600         0.329834850408
    8          3.302133660200         0.244588066181
    9        128.787656670000        -0.006467271875
   10          8.435786797700        -0.293919602389
   11          1.461866185500        -1.570456746981
   12          0.646580101000         0.575990024188
   13          0.272292957500        -0.292195198232
   14          0.109051824500         0.087112087182
 P 14
    1       2868.450458100000         0.000159045351
    2        679.718695900000         0.001188309039
    3        220.367588240000         0.006234316249
    4         83.620439734000         0.024194264976
    5         34.964322657000         0.070846209453
    6         15.525131784000         0.147222777490
    7          7.099297980600         0.203504835360
    8          3.302133660200         0.150908413946
    9        128.787656670000        -0.005549139443
   10          8.435786797700        -0.225023757625
   11          1.461866185500        -1.645591923988
   12          0.646580101000         2.037072727702
   13          0.272292957500        -0.220986593582
   14          0.109051824500         0.086738947013
 P 14
    1       2868.450458100000         0.000102122882
    2        679.718695900000         0.000763012206
    3        220.367588240000         0.004003049071
    4         83.620439734000         0.015535116613
    5         34.964322657000         0.045490289807
    6         15.525131784000         0.094531618077
    7          7.099297980600         0.130670278751
    8          3.302133660200         0.096898162057
    9        128.787656670000        -0.004015838045
   10          8.435786797700        -0.159297884637
   11          1.461866185500        -1.326147905390
   12          0.646580101000         2.752267829860
   13          0.272292957500        -2.182903284923
   14          0.109051824500         0.091790525351
 P 14
    1       2868.450458100000         0.000056293218
    2        679.718695900000         0.000420595377
    3        220.367588240000         0.002206601571
    4         83.620439734000         0.008563425558
    5         34.964322657000         0.025075621901
    6         15.525131784000         0.052108683471
    7          7.099297980600         0.072029404902
    8          3.302133660200         0.053413194001
    9        128.787656670000        -0.002254496308
   10          8.435786797700        -0.092308107552
   11          1.461866185500        -0.795337342441
   12          0.646580101000         2.065251358091
   13          0.272292957500        -2.865966272954
   14          0.109051824500         2.024316371682
 P 14
    1       2868.450458100000        -0.001459908811
    2        679.718695900000        -0.010907724260
    3        220.367588240000        -0.057226024855
    4         83.620439734000        -0.222083954940
    5         34.964322657000        -0.650311402459
    6         15.525131784000        -1.351387062807
    7          7.099297980600        -1.868011230414
    8          3.302133660200        -1.385218250545
    9        128.787656670000         0.114533112263
   10          8.435786797700         4.614762966242
   11          1.461866185500         0.442925715873
   12          0.646580101000         0.070271181953
   13          0.272292957500        -0.120835387823
   14          0.109051824500         0.047809803659
 P 14
    1       2868.450458100000        -0.001352657158
    2        679.718695900000        -0.010106392395
    3        220.367588240000        -0.053021936441
    4         83.620439734000        -0.205768640633
    5         34.964322657000        -0.602536519616
    6         15.525131784000        -1.252107919990
    7          7.099297980600        -1.730778487232
    8          3.302133660200        -1.283453712231
    9        128.787656670000         1.439125619891
   10          8.435786797700         3.570273327074
   11          1.461866185500         1.192663493220
   12          0.646580101000        -0.756611769003
   13          0.272292957500         0.353591286324
   14          0.109051824500        -0.105289659846
 D 4
    1          6.315000000000         0.625907152271
    2          1.562000000000         0.648737782880
    3          0.715000000000        -0.193939777766
    4          0.297000000000         0.063380824373
 D 4
    1          6.315000000000         0.525032430721
    2          1.562000000000        -0.046471689382
    3          0.715000000000        -0.952107877230
    4          0.297000000000         0.044761477155
 D 4
    1          6.315000000000         0.426218874834
    2          1.562000000000        -0.501991598562
    3          0.715000000000        -0.381386340395
    4          0.297000000000         1.169907754944
 D 4
    1          6.315000000000         0.770528016702
    2          1.562000000000        -1.957149035203
    3          0.715000000000         2.387363975315
    4          0.297000000000        -1.216504448392
 F 2
    1          0.543000000000         0.133062068650
    2          1.325000000000         0.908599982012
 F 2
    1          0.543000000000        -1.306524507857
    2          1.325000000000         0.948239356087
 G 1
    1          1.007000000000         1.000000000000
 end
  // -----------------------------------------------
  // The basis set
  // -----------------------------------------------
  BAS[ATNO] = new BFNGauss[NSH];
  // Basis function   1 L = s
  InitBFNGauss(BAS[ATNO][  0]);
  BAS[ATNO][  0].l  = 0;
  BAS[ATNO][  0].ng = 20;
  BAS[ATNO][  0].a[  0] =   1673421.949400000041;     BAS[ATNO][  0].d[  0] =         0.000031220307;
  BAS[ATNO][  0].a[  1] =    250601.753729999997;     BAS[ATNO][  0].d[  1] =         0.000161256007;
  BAS[ATNO][  0].a[  2] =     57030.912120000001;     BAS[ATNO][  0].d[  2] =         0.000711506412;
  BAS[ATNO][  0].a[  3] =     16153.303915000000;     BAS[ATNO][  0].d[  3] =         0.002745253963;
  BAS[ATNO][  0].a[  4] =      5269.410928800000;     BAS[ATNO][  0].d[  4] =         0.009448501129;
  BAS[ATNO][  0].a[  5] =      1902.031554100000;     BAS[ATNO][  0].d[  5] =         0.029311999692;
  BAS[ATNO][  0].a[  6] =       741.576771590000;     BAS[ATNO][  0].d[  6] =         0.080567773170;
  BAS[ATNO][  0].a[  7] =       307.209019060000;     BAS[ATNO][  0].d[  7] =         0.190711249774;
  BAS[ATNO][  0].a[  8] =       133.527862030000;     BAS[ATNO][  0].d[  8] =         0.354508050415;
  BAS[ATNO][  0].a[  9] =        60.253381291000;     BAS[ATNO][  0].d[  9] =         0.412219173935;
  BAS[ATNO][  0].a[ 10] =       522.024262060000;     BAS[ATNO][  0].d[ 10] =        -0.022165102901;
  BAS[ATNO][  0].a[ 11] =       161.512904690000;     BAS[ATNO][  0].d[ 11] =        -0.059809106703;
  BAS[ATNO][  0].a[ 12] =        62.126369433000;     BAS[ATNO][  0].d[ 12] =        -0.064858054415;
  BAS[ATNO][  0].a[ 13] =        27.590930012000;     BAS[ATNO][  0].d[ 13] =         0.207703663205;
  BAS[ATNO][  0].a[ 14] =        11.175528881000;     BAS[ATNO][  0].d[ 14] =         0.013481314674;
  BAS[ATNO][  0].a[ 15] =         5.295906513700;     BAS[ATNO][  0].d[ 15] =         0.002303308926;
  BAS[ATNO][  0].a[ 16] =         2.478279889500;     BAS[ATNO][  0].d[ 16] =        -0.001872829087;
  BAS[ATNO][  0].a[ 17] =         0.912620950600;     BAS[ATNO][  0].d[ 17] =         0.000986481759;
  BAS[ATNO][  0].a[ 18] =         0.404260675500;     BAS[ATNO][  0].d[ 18] =        -0.000525085759;
  BAS[ATNO][  0].a[ 19] =         0.165628863100;     BAS[ATNO][  0].d[ 19] =         0.000142152311;

  // Basis function   2 L = s
  InitBFNGauss(BAS[ATNO][  1]);
  BAS[ATNO][  1].l  = 0;
  BAS[ATNO][  1].ng = 20;
  BAS[ATNO][  1].a[  0] =   1673421.949400000041;     BAS[ATNO][  1].d[  0] =        -0.000010832887;
  BAS[ATNO][  1].a[  1] =    250601.753729999997;     BAS[ATNO][  1].d[  1] =        -0.000055952942;
  BAS[ATNO][  1].a[  2] =     57030.912120000001;     BAS[ATNO][  1].d[  2] =        -0.000246879961;
  BAS[ATNO][  1].a[  3] =     16153.303915000000;     BAS[ATNO][  1].d[  3] =        -0.000952553878;
  BAS[ATNO][  1].a[  4] =      5269.410928800000;     BAS[ATNO][  1].d[  4] =        -0.003278460394;
  BAS[ATNO][  1].a[  5] =      1902.031554100000;     BAS[ATNO][  1].d[  5] =        -0.010170738061;
  BAS[ATNO][  1].a[  6] =       741.576771590000;     BAS[ATNO][  1].d[  6] =        -0.027955571974;
  BAS[ATNO][  1].a[  7] =       307.209019060000;     BAS[ATNO][  1].d[  7] =        -0.066173382478;
  BAS[ATNO][  1].a[  8] =       133.527862030000;     BAS[ATNO][  1].d[  8] =        -0.123007933928;
  BAS[ATNO][  1].a[  9] =        60.253381291000;     BAS[ATNO][  1].d[  9] =        -0.143032658502;
  BAS[ATNO][  1].a[ 10] =       522.024262060000;     BAS[ATNO][  1].d[ 10] =         0.004374327552;
  BAS[ATNO][  1].a[ 11] =       161.512904690000;     BAS[ATNO][  1].d[ 11] =        -0.007307835412;
  BAS[ATNO][  1].a[ 12] =        62.126369433000;     BAS[ATNO][  1].d[ 12] =        -0.080095172678;
  BAS[ATNO][  1].a[ 13] =        27.590930012000;     BAS[ATNO][  1].d[ 13] =        -0.144967914832;
  BAS[ATNO][  1].a[ 14] =        11.175528881000;     BAS[ATNO][  1].d[ 14] =         0.447946759204;
  BAS[ATNO][  1].a[ 15] =         5.295906513700;     BAS[ATNO][  1].d[ 15] =         0.639845566043;
  BAS[ATNO][  1].a[ 16] =         2.478279889500;     BAS[ATNO][  1].d[ 16] =         0.107706055523;
  BAS[ATNO][  1].a[ 17] =         0.912620950600;     BAS[ATNO][  1].d[ 17] =        -0.003425596356;
  BAS[ATNO][  1].a[ 18] =         0.404260675500;     BAS[ATNO][  1].d[ 18] =         0.001233902534;
  BAS[ATNO][  1].a[ 19] =         0.165628863100;     BAS[ATNO][  1].d[ 19] =        -0.000271856017;

  // Basis function   3 L = s
  InitBFNGauss(BAS[ATNO][  2]);
  BAS[ATNO][  2].l  = 0;
  BAS[ATNO][  2].ng = 20;
  BAS[ATNO][  2].a[  0] =   1673421.949400000041;     BAS[ATNO][  2].d[  0] =        -0.000005759440;
  BAS[ATNO][  2].a[  1] =    250601.753729999997;     BAS[ATNO][  2].d[  1] =        -0.000029748084;
  BAS[ATNO][  2].a[  2] =     57030.912120000001;     BAS[ATNO][  2].d[  2] =        -0.000131256832;
  BAS[ATNO][  2].a[  3] =     16153.303915000000;     BAS[ATNO][  2].d[  3] =        -0.000506437233;
  BAS[ATNO][  2].a[  4] =      5269.410928800000;     BAS[ATNO][  2].d[  4] =        -0.001743034645;
  BAS[ATNO][  2].a[  5] =      1902.031554100000;     BAS[ATNO][  2].d[  5] =        -0.005407400632;
  BAS[ATNO][  2].a[  6] =       741.576771590000;     BAS[ATNO][  2].d[  6] =        -0.014862930953;
  BAS[ATNO][  2].a[  7] =       307.209019060000;     BAS[ATNO][  2].d[  7] =        -0.035181909911;
  BAS[ATNO][  2].a[  8] =       133.527862030000;     BAS[ATNO][  2].d[  8] =        -0.065398713014;
  BAS[ATNO][  2].a[  9] =        60.253381291000;     BAS[ATNO][  2].d[  9] =        -0.076045109338;
  BAS[ATNO][  2].a[ 10] =       522.024262060000;     BAS[ATNO][  2].d[ 10] =         0.001686507688;
  BAS[ATNO][  2].a[ 11] =       161.512904690000;     BAS[ATNO][  2].d[ 11] =        -0.005579298007;
  BAS[ATNO][  2].a[ 12] =        62.126369433000;     BAS[ATNO][  2].d[ 12] =        -0.063537396243;
  BAS[ATNO][  2].a[ 13] =        27.590930012000;     BAS[ATNO][  2].d[ 13] =        -0.073485082474;
  BAS[ATNO][  2].a[ 14] =        11.175528881000;     BAS[ATNO][  2].d[ 14] =         0.361286629918;
  BAS[ATNO][  2].a[ 15] =         5.295906513700;     BAS[ATNO][  2].d[ 15] =         1.087032926306;
  BAS[ATNO][  2].a[ 16] =         2.478279889500;     BAS[ATNO][  2].d[ 16] =        -1.008070821310;
  BAS[ATNO][  2].a[ 17] =         0.912620950600;     BAS[ATNO][  2].d[ 17] =        -0.809556994126;
  BAS[ATNO][  2].a[ 18] =         0.404260675500;     BAS[ATNO][  2].d[ 18] =         0.169593241818;
  BAS[ATNO][  2].a[ 19] =         0.165628863100;     BAS[ATNO][  2].d[ 19] =        -0.039194456256;

  // Basis function   4 L = s
  InitBFNGauss(BAS[ATNO][  3]);
  BAS[ATNO][  3].l  = 0;
  BAS[ATNO][  3].ng = 20;
  BAS[ATNO][  3].a[  0] =   1673421.949400000041;     BAS[ATNO][  3].d[  0] =         0.000003715474;
  BAS[ATNO][  3].a[  1] =    250601.753729999997;     BAS[ATNO][  3].d[  1] =         0.000019190795;
  BAS[ATNO][  3].a[  2] =     57030.912120000001;     BAS[ATNO][  3].d[  2] =         0.000084675133;
  BAS[ATNO][  3].a[  3] =     16153.303915000000;     BAS[ATNO][  3].d[  3] =         0.000326707872;
  BAS[ATNO][  3].a[  4] =      5269.410928800000;     BAS[ATNO][  3].d[  4] =         0.001124449592;
  BAS[ATNO][  3].a[  5] =      1902.031554100000;     BAS[ATNO][  3].d[  5] =         0.003488369810;
  BAS[ATNO][  3].a[  6] =       741.576771590000;     BAS[ATNO][  3].d[  6] =         0.009588229754;
  BAS[ATNO][  3].a[  7] =       307.209019060000;     BAS[ATNO][  3].d[  7] =         0.022696212240;
  BAS[ATNO][  3].a[  8] =       133.527862030000;     BAS[ATNO][  3].d[  8] =         0.042189382968;
  BAS[ATNO][  3].a[  9] =        60.253381291000;     BAS[ATNO][  3].d[  9] =         0.049057482829;
  BAS[ATNO][  3].a[ 10] =       522.024262060000;     BAS[ATNO][  3].d[ 10] =        -0.000501541371;
  BAS[ATNO][  3].a[ 11] =       161.512904690000;     BAS[ATNO][  3].d[ 11] =         0.002213500571;
  BAS[ATNO][  3].a[ 12] =        62.126369433000;     BAS[ATNO][  3].d[ 12] =         0.056004922565;
  BAS[ATNO][  3].a[ 13] =        27.590930012000;     BAS[ATNO][  3].d[ 13] =         0.018419650549;
  BAS[ATNO][  3].a[ 14] =        11.175528881000;     BAS[ATNO][  3].d[ 14] =        -0.179398098244;
  BAS[ATNO][  3].a[ 15] =         5.295906513700;     BAS[ATNO][  3].d[ 15] =        -1.308389930057;
  BAS[ATNO][  3].a[ 16] =         2.478279889500;     BAS[ATNO][  3].d[ 16] =         2.142165924580;
  BAS[ATNO][  3].a[ 17] =         0.912620950600;     BAS[ATNO][  3].d[ 17] =         0.084024491349;
  BAS[ATNO][  3].a[ 18] =         0.404260675500;     BAS[ATNO][  3].d[ 18] =        -1.558345953113;
  BAS[ATNO][  3].a[ 19] =         0.165628863100;     BAS[ATNO][  3].d[ 19] =         0.183418967908;

  // Basis function   5 L = s
  InitBFNGauss(BAS[ATNO][  4]);
  BAS[ATNO][  4].l  = 0;
  BAS[ATNO][  4].ng = 20;
  BAS[ATNO][  4].a[  0] =   1673421.949400000041;     BAS[ATNO][  4].d[  0] =         0.000002795974;
  BAS[ATNO][  4].a[  1] =    250601.753729999997;     BAS[ATNO][  4].d[  1] =         0.000014441483;
  BAS[ATNO][  4].a[  2] =     57030.912120000001;     BAS[ATNO][  4].d[  2] =         0.000063719846;
  BAS[ATNO][  4].a[  3] =     16153.303915000000;     BAS[ATNO][  4].d[  3] =         0.000245854649;
  BAS[ATNO][  4].a[  4] =      5269.410928800000;     BAS[ATNO][  4].d[  4] =         0.000846172326;
  BAS[ATNO][  4].a[  5] =      1902.031554100000;     BAS[ATNO][  4].d[  5] =         0.002625072761;
  BAS[ATNO][  4].a[  6] =       741.576771590000;     BAS[ATNO][  4].d[  6] =         0.007215347605;
  BAS[ATNO][  4].a[  7] =       307.209019060000;     BAS[ATNO][  4].d[  7] =         0.017079384288;
  BAS[ATNO][  4].a[  8] =       133.527862030000;     BAS[ATNO][  4].d[  8] =         0.031748411452;
  BAS[ATNO][  4].a[  9] =        60.253381291000;     BAS[ATNO][  4].d[  9] =         0.036916803235;
  BAS[ATNO][  4].a[ 10] =       522.024262060000;     BAS[ATNO][  4].d[ 10] =         0.000213428285;
  BAS[ATNO][  4].a[ 11] =       161.512904690000;     BAS[ATNO][  4].d[ 11] =        -0.000354679254;
  BAS[ATNO][  4].a[ 12] =        62.126369433000;     BAS[ATNO][  4].d[ 12] =         0.056320668730;
  BAS[ATNO][  4].a[ 13] =        27.590930012000;     BAS[ATNO][  4].d[ 13] =        -0.021754716997;
  BAS[ATNO][  4].a[ 14] =        11.175528881000;     BAS[ATNO][  4].d[ 14] =        -0.029783901229;
  BAS[ATNO][  4].a[ 15] =         5.295906513700;     BAS[ATNO][  4].d[ 15] =        -1.512127912176;
  BAS[ATNO][  4].a[ 16] =         2.478279889500;     BAS[ATNO][  4].d[ 16] =         3.061616044118;
  BAS[ATNO][  4].a[ 17] =         0.912620950600;     BAS[ATNO][  4].d[ 17] =        -2.385028807644;
  BAS[ATNO][  4].a[ 18] =         0.404260675500;     BAS[ATNO][  4].d[ 18] =        -0.258708280556;
  BAS[ATNO][  4].a[ 19] =         0.165628863100;     BAS[ATNO][  4].d[ 19] =         1.473877695401;

  // Basis function   6 L = s
  InitBFNGauss(BAS[ATNO][  5]);
  BAS[ATNO][  5].l  = 0;
  BAS[ATNO][  5].ng = 20;
  BAS[ATNO][  5].a[  0] =   1673421.949400000041;     BAS[ATNO][  5].d[  0] =        -0.000003309411;
  BAS[ATNO][  5].a[  1] =    250601.753729999997;     BAS[ATNO][  5].d[  1] =        -0.000017093437;
  BAS[ATNO][  5].a[  2] =     57030.912120000001;     BAS[ATNO][  5].d[  2] =        -0.000075421004;
  BAS[ATNO][  5].a[  3] =     16153.303915000000;     BAS[ATNO][  5].d[  3] =        -0.000291002031;
  BAS[ATNO][  5].a[  4] =      5269.410928800000;     BAS[ATNO][  5].d[  4] =        -0.001001558712;
  BAS[ATNO][  5].a[  5] =      1902.031554100000;     BAS[ATNO][  5].d[  5] =        -0.003107126542;
  BAS[ATNO][  5].a[  6] =       741.576771590000;     BAS[ATNO][  5].d[  6] =        -0.008540333962;
  BAS[ATNO][  5].a[  7] =       307.209019060000;     BAS[ATNO][  5].d[  7] =        -0.020215747555;
  BAS[ATNO][  5].a[  8] =       133.527862030000;     BAS[ATNO][  5].d[  8] =        -0.037578513390;
  BAS[ATNO][  5].a[  9] =        60.253381291000;     BAS[ATNO][  5].d[  9] =        -0.043695999934;
  BAS[ATNO][  5].a[ 10] =       522.024262060000;     BAS[ATNO][  5].d[ 10] =        -0.000744583773;
  BAS[ATNO][  5].a[ 11] =       161.512904690000;     BAS[ATNO][  5].d[ 11] =         0.002157955840;
  BAS[ATNO][  5].a[ 12] =        62.126369433000;     BAS[ATNO][  5].d[ 12] =        -0.078539690390;
  BAS[ATNO][  5].a[ 13] =        27.590930012000;     BAS[ATNO][  5].d[ 13] =         0.056818687790;
  BAS[ATNO][  5].a[ 14] =        11.175528881000;     BAS[ATNO][  5].d[ 14] =        -0.063627238793;
  BAS[ATNO][  5].a[ 15] =         5.295906513700;     BAS[ATNO][  5].d[ 15] =         2.280903451680;
  BAS[ATNO][  5].a[ 16] =         2.478279889500;     BAS[ATNO][  5].d[ 16] =        -5.156662756396;
  BAS[ATNO][  5].a[ 17] =         0.912620950600;     BAS[ATNO][  5].d[ 17] =         7.201035357758;
  BAS[ATNO][  5].a[ 18] =         0.404260675500;     BAS[ATNO][  5].d[ 18] =        -6.611004571613;
  BAS[ATNO][  5].a[ 19] =         0.165628863100;     BAS[ATNO][  5].d[ 19] =         2.726543210392;

  // Basis function   7 L = s
  InitBFNGauss(BAS[ATNO][  6]);
  BAS[ATNO][  6].l  = 0;
  BAS[ATNO][  6].ng = 20;
  BAS[ATNO][  6].a[  0] =   1673421.949400000041;     BAS[ATNO][  6].d[  0] =         0.000010927603;
  BAS[ATNO][  6].a[  1] =    250601.753729999997;     BAS[ATNO][  6].d[  1] =         0.000056442164;
  BAS[ATNO][  6].a[  2] =     57030.912120000001;     BAS[ATNO][  6].d[  2] =         0.000249038545;
  BAS[ATNO][  6].a[  3] =     16153.303915000000;     BAS[ATNO][  6].d[  3] =         0.000960882490;
  BAS[ATNO][  6].a[  4] =      5269.410928800000;     BAS[ATNO][  6].d[  4] =         0.003307125465;
  BAS[ATNO][  6].a[  5] =      1902.031554100000;     BAS[ATNO][  6].d[  5] =         0.010259665452;
  BAS[ATNO][  6].a[  6] =       741.576771590000;     BAS[ATNO][  6].d[  6] =         0.028200000259;
  BAS[ATNO][  6].a[  7] =       307.209019060000;     BAS[ATNO][  6].d[  7] =         0.066751966469;
  BAS[ATNO][  6].a[  8] =       133.527862030000;     BAS[ATNO][  6].d[  8] =         0.124083448261;
  BAS[ATNO][  6].a[  9] =        60.253381291000;     BAS[ATNO][  6].d[  9] =         0.144283258113;
  BAS[ATNO][  6].a[ 10] =       522.024262060000;     BAS[ATNO][  6].d[ 10] =        -0.022659203042;
  BAS[ATNO][  6].a[ 11] =       161.512904690000;     BAS[ATNO][  6].d[ 11] =         0.100165069956;
  BAS[ATNO][  6].a[ 12] =        62.126369433000;     BAS[ATNO][  6].d[ 12] =        -0.323008932345;
  BAS[ATNO][  6].a[ 13] =        27.590930012000;     BAS[ATNO][  6].d[ 13] =         1.650810102834;
  BAS[ATNO][  6].a[ 14] =        11.175528881000;     BAS[ATNO][  6].d[ 14] =        -7.233001794922;
  BAS[ATNO][  6].a[ 15] =         5.295906513700;     BAS[ATNO][  6].d[ 15] =        11.330690037802;
  BAS[ATNO][  6].a[ 16] =         2.478279889500;     BAS[ATNO][  6].d[ 16] =        -8.729193902668;
  BAS[ATNO][  6].a[ 17] =         0.912620950600;     BAS[ATNO][  6].d[ 17] =         4.872225382645;
  BAS[ATNO][  6].a[ 18] =         0.404260675500;     BAS[ATNO][  6].d[ 18] =        -2.635695730449;
  BAS[ATNO][  6].a[ 19] =         0.165628863100;     BAS[ATNO][  6].d[ 19] =         0.719020021346;

  // Basis function   8 L = s
  InitBFNGauss(BAS[ATNO][  7]);
  BAS[ATNO][  7].l  = 0;
  BAS[ATNO][  7].ng = 20;
  BAS[ATNO][  7].a[  0] =   1673421.949400000041;     BAS[ATNO][  7].d[  0] =         0.000014752223;
  BAS[ATNO][  7].a[  1] =    250601.753729999997;     BAS[ATNO][  7].d[  1] =         0.000076196706;
  BAS[ATNO][  7].a[  2] =     57030.912120000001;     BAS[ATNO][  7].d[  2] =         0.000336201086;
  BAS[ATNO][  7].a[  3] =     16153.303915000000;     BAS[ATNO][  7].d[  3] =         0.001297187697;
  BAS[ATNO][  7].a[  4] =      5269.410928800000;     BAS[ATNO][  7].d[  4] =         0.004464606768;
  BAS[ATNO][  7].a[  5] =      1902.031554100000;     BAS[ATNO][  7].d[  5] =         0.013850509243;
  BAS[ATNO][  7].a[  6] =       741.576771590000;     BAS[ATNO][  7].d[  6] =         0.038069892833;
  BAS[ATNO][  7].a[  7] =       307.209019060000;     BAS[ATNO][  7].d[  7] =         0.090114900230;
  BAS[ATNO][  7].a[  8] =       133.527862030000;     BAS[ATNO][  7].d[  8] =         0.167512182064;
  BAS[ATNO][  7].a[  9] =        60.253381291000;     BAS[ATNO][  7].d[  9] =         0.194781848349;
  BAS[ATNO][  7].a[ 10] =       522.024262060000;     BAS[ATNO][  7].d[ 10] =         0.084924924967;
  BAS[ATNO][  7].a[ 11] =       161.512904690000;     BAS[ATNO][  7].d[ 11] =        -0.306834406176;
  BAS[ATNO][  7].a[ 12] =        62.126369433000;     BAS[ATNO][  7].d[ 12] =         2.781982929705;
  BAS[ATNO][  7].a[ 13] =        27.590930012000;     BAS[ATNO][  7].d[ 13] =        -7.507037707760;
  BAS[ATNO][  7].a[ 14] =        11.175528881000;     BAS[ATNO][  7].d[ 14] =         9.807366564172;
  BAS[ATNO][  7].a[ 15] =         5.295906513700;     BAS[ATNO][  7].d[ 15] =        -8.622796407236;
  BAS[ATNO][  7].a[ 16] =         2.478279889500;     BAS[ATNO][  7].d[ 16] =         4.733574677413;
  BAS[ATNO][  7].a[ 17] =         0.912620950600;     BAS[ATNO][  7].d[ 17] =        -2.159987657043;
  BAS[ATNO][  7].a[ 18] =         0.404260675500;     BAS[ATNO][  7].d[ 18] =         1.098887115828;
  BAS[ATNO][  7].a[ 19] =         0.165628863100;     BAS[ATNO][  7].d[ 19] =        -0.291488166721;

  // Basis function   9 L = s
  InitBFNGauss(BAS[ATNO][  8]);
  BAS[ATNO][  8].l  = 0;
  BAS[ATNO][  8].ng = 20;
  BAS[ATNO][  8].a[  0] =   1673421.949400000041;     BAS[ATNO][  8].d[  0] =        -0.000050919497;
  BAS[ATNO][  8].a[  1] =    250601.753729999997;     BAS[ATNO][  8].d[  1] =        -0.000263004291;
  BAS[ATNO][  8].a[  2] =     57030.912120000001;     BAS[ATNO][  8].d[  2] =        -0.001160448172;
  BAS[ATNO][  8].a[  3] =     16153.303915000000;     BAS[ATNO][  8].d[  3] =        -0.004477436734;
  BAS[ATNO][  8].a[  4] =      5269.410928800000;     BAS[ATNO][  8].d[  4] =        -0.015410255884;
  BAS[ATNO][  8].a[  5] =      1902.031554100000;     BAS[ATNO][  8].d[  5] =        -0.047807097609;
  BAS[ATNO][  8].a[  6] =       741.576771590000;     BAS[ATNO][  8].d[  6] =        -0.131403910908;
  BAS[ATNO][  8].a[  7] =       307.209019060000;     BAS[ATNO][  8].d[  7] =        -0.311045013268;
  BAS[ATNO][  8].a[  8] =       133.527862030000;     BAS[ATNO][  8].d[  8] =        -0.578193270588;
  BAS[ATNO][  8].a[  9] =        60.253381291000;     BAS[ATNO][  8].d[  9] =        -0.672318589374;
  BAS[ATNO][  8].a[ 10] =       522.024262060000;     BAS[ATNO][  8].d[ 10] =         0.313858595302;
  BAS[ATNO][  8].a[ 11] =       161.512904690000;     BAS[ATNO][  8].d[ 11] =        -2.185166945843;
  BAS[ATNO][  8].a[ 12] =        62.126369433000;     BAS[ATNO][  8].d[ 12] =         7.629254553861;
  BAS[ATNO][  8].a[ 13] =        27.590930012000;     BAS[ATNO][  8].d[ 13] =        -7.512623591191;
  BAS[ATNO][  8].a[ 14] =        11.175528881000;     BAS[ATNO][  8].d[ 14] =         6.098729067930;
  BAS[ATNO][  8].a[ 15] =         5.295906513700;     BAS[ATNO][  8].d[ 15] =        -4.528120047835;
  BAS[ATNO][  8].a[ 16] =         2.478279889500;     BAS[ATNO][  8].d[ 16] =         2.341250331550;
  BAS[ATNO][  8].a[ 17] =         0.912620950600;     BAS[ATNO][  8].d[ 17] =        -1.052694339527;
  BAS[ATNO][  8].a[ 18] =         0.404260675500;     BAS[ATNO][  8].d[ 18] =         0.535642064510;
  BAS[ATNO][  8].a[ 19] =         0.165628863100;     BAS[ATNO][  8].d[ 19] =        -0.142185698940;

  // Basis function  10 L = s
  InitBFNGauss(BAS[ATNO][  9]);
  BAS[ATNO][  9].l  = 0;
  BAS[ATNO][  9].ng = 20;
  BAS[ATNO][  9].a[  0] =   1673421.949400000041;     BAS[ATNO][  9].d[  0] =         0.000014575303;
  BAS[ATNO][  9].a[  1] =    250601.753729999997;     BAS[ATNO][  9].d[  1] =         0.000075282897;
  BAS[ATNO][  9].a[  2] =     57030.912120000001;     BAS[ATNO][  9].d[  2] =         0.000332169106;
  BAS[ATNO][  9].a[  3] =     16153.303915000000;     BAS[ATNO][  9].d[  3] =         0.001281630832;
  BAS[ATNO][  9].a[  4] =      5269.410928800000;     BAS[ATNO][  9].d[  4] =         0.004411063795;
  BAS[ATNO][  9].a[  5] =      1902.031554100000;     BAS[ATNO][  9].d[  5] =         0.013684403359;
  BAS[ATNO][  9].a[  6] =       741.576771590000;     BAS[ATNO][  9].d[  6] =         0.037613329605;
  BAS[ATNO][  9].a[  7] =       307.209019060000;     BAS[ATNO][  9].d[  7] =         0.089034173529;
  BAS[ATNO][  9].a[  8] =       133.527862030000;     BAS[ATNO][  9].d[  8] =         0.165503248053;
  BAS[ATNO][  9].a[  9] =        60.253381291000;     BAS[ATNO][  9].d[  9] =         0.192445875675;
  BAS[ATNO][  9].a[ 10] =       522.024262060000;     BAS[ATNO][  9].d[ 10] =         2.057905737316;
  BAS[ATNO][  9].a[ 11] =       161.512904690000;     BAS[ATNO][  9].d[ 11] =        -4.458088381062;
  BAS[ATNO][  9].a[ 12] =        62.126369433000;     BAS[ATNO][  9].d[ 12] =         4.737938297684;
  BAS[ATNO][  9].a[ 13] =        27.590930012000;     BAS[ATNO][  9].d[ 13] =        -4.086894458919;
  BAS[ATNO][  9].a[ 14] =        11.175528881000;     BAS[ATNO][  9].d[ 14] =         2.993904973076;
  BAS[ATNO][  9].a[ 15] =         5.295906513700;     BAS[ATNO][  9].d[ 15] =        -2.194782272398;
  BAS[ATNO][  9].a[ 16] =         2.478279889500;     BAS[ATNO][  9].d[ 16] =         1.140935394076;
  BAS[ATNO][  9].a[ 17] =         0.912620950600;     BAS[ATNO][  9].d[ 17] =        -0.517452896901;
  BAS[ATNO][  9].a[ 18] =         0.404260675500;     BAS[ATNO][  9].d[ 18] =         0.264330112358;
  BAS[ATNO][  9].a[ 19] =         0.165628863100;     BAS[ATNO][  9].d[ 19] =        -0.070299933207;

  // Basis function  11 L = s
  InitBFNGauss(BAS[ATNO][ 10]);
  BAS[ATNO][ 10].l  = 0;
  BAS[ATNO][ 10].ng = 20;
  BAS[ATNO][ 10].a[  0] =   1673421.949400000041;     BAS[ATNO][ 10].d[  0] =        -0.001096390039;
  BAS[ATNO][ 10].a[  1] =    250601.753729999997;     BAS[ATNO][ 10].d[  1] =        -0.005662964131;
  BAS[ATNO][ 10].a[  2] =     57030.912120000001;     BAS[ATNO][ 10].d[  2] =        -0.024986574764;
  BAS[ATNO][ 10].a[  3] =     16153.303915000000;     BAS[ATNO][ 10].d[  3] =        -0.096407414299;
  BAS[ATNO][ 10].a[  4] =      5269.410928800000;     BAS[ATNO][ 10].d[  4] =        -0.331811036483;
  BAS[ATNO][ 10].a[  5] =      1902.031554100000;     BAS[ATNO][ 10].d[  5] =        -1.029374380805;
  BAS[ATNO][ 10].a[  6] =       741.576771590000;     BAS[ATNO][ 10].d[  6] =        -2.829366897230;
  BAS[ATNO][ 10].a[  7] =       307.209019060000;     BAS[ATNO][ 10].d[  7] =        -6.697368883517;
  BAS[ATNO][ 10].a[  8] =       133.527862030000;     BAS[ATNO][ 10].d[  8] =       -12.449560204826;
  BAS[ATNO][ 10].a[  9] =        60.253381291000;     BAS[ATNO][ 10].d[  9] =       -14.476250729669;
  BAS[ATNO][ 10].a[ 10] =       522.024262060000;     BAS[ATNO][ 10].d[ 10] =         8.080433843843;
  BAS[ATNO][ 10].a[ 11] =       161.512904690000;     BAS[ATNO][ 10].d[ 11] =        12.027034938631;
  BAS[ATNO][ 10].a[ 12] =        62.126369433000;     BAS[ATNO][ 10].d[ 12] =        18.360473438436;
  BAS[ATNO][ 10].a[ 13] =        27.590930012000;     BAS[ATNO][ 10].d[ 13] =        -1.881278753578;
  BAS[ATNO][ 10].a[ 14] =        11.175528881000;     BAS[ATNO][ 10].d[ 14] =         1.416076905582;
  BAS[ATNO][ 10].a[ 15] =         5.295906513700;     BAS[ATNO][ 10].d[ 15] =        -1.047932245197;
  BAS[ATNO][ 10].a[ 16] =         2.478279889500;     BAS[ATNO][ 10].d[ 16] =         0.548612101970;
  BAS[ATNO][ 10].a[ 17] =         0.912620950600;     BAS[ATNO][ 10].d[ 17] =        -0.250118382084;
  BAS[ATNO][ 10].a[ 18] =         0.404260675500;     BAS[ATNO][ 10].d[ 18] =         0.128016138692;
  BAS[ATNO][ 10].a[ 19] =         0.165628863100;     BAS[ATNO][ 10].d[ 19] =        -0.034077395606;

  // Basis function  12 L = p
  InitBFNGauss(BAS[ATNO][ 11]);
  BAS[ATNO][ 11].l  = 1;
  BAS[ATNO][ 11].ng = 14;
  BAS[ATNO][ 11].a[  0] =      2868.450458100000;     BAS[ATNO][ 11].d[  0] =         0.000436835533;
  BAS[ATNO][ 11].a[  1] =       679.718695900000;     BAS[ATNO][ 11].d[  1] =         0.003263821350;
  BAS[ATNO][ 11].a[  2] =       220.367588240000;     BAS[ATNO][ 11].d[  2] =         0.017123234625;
  BAS[ATNO][ 11].a[  3] =        83.620439734000;     BAS[ATNO][ 11].d[  3] =         0.066452207303;
  BAS[ATNO][ 11].a[  4] =        34.964322657000;     BAS[ATNO][ 11].d[  4] =         0.194586899084;
  BAS[ATNO][ 11].a[  5] =        15.525131784000;     BAS[ATNO][ 11].d[  5] =         0.404363535714;
  BAS[ATNO][ 11].a[  6] =         7.099297980600;     BAS[ATNO][ 11].d[  6] =         0.558948392117;
  BAS[ATNO][ 11].a[  7] =         3.302133660200;     BAS[ATNO][ 11].d[  7] =         0.414486541230;
  BAS[ATNO][ 11].a[  8] =       128.787656670000;     BAS[ATNO][ 11].d[  8] =        -0.000853591952;
  BAS[ATNO][ 11].a[  9] =         8.435786797700;     BAS[ATNO][ 11].d[  9] =        -0.286692188579;
  BAS[ATNO][ 11].a[ 10] =         1.461866185500;     BAS[ATNO][ 11].d[ 10] =        -0.381621327311;
  BAS[ATNO][ 11].a[ 11] =         0.646580101000;     BAS[ATNO][ 11].d[ 11] =         0.271198083462;
  BAS[ATNO][ 11].a[ 12] =         0.272292957500;     BAS[ATNO][ 11].d[ 12] =        -0.132476188147;
  BAS[ATNO][ 11].a[ 13] =         0.109051824500;     BAS[ATNO][ 11].d[ 13] =         0.039955838117;

  // Basis function  13 L = p
  InitBFNGauss(BAS[ATNO][ 12]);
  BAS[ATNO][ 12].l  = 1;
  BAS[ATNO][ 12].ng = 14;
  BAS[ATNO][ 12].a[  0] =      2868.450458100000;     BAS[ATNO][ 12].d[  0] =        -0.000257776183;
  BAS[ATNO][ 12].a[  1] =       679.718695900000;     BAS[ATNO][ 12].d[  1] =        -0.001925977500;
  BAS[ATNO][ 12].a[  2] =       220.367588240000;     BAS[ATNO][ 12].d[  2] =        -0.010104402501;
  BAS[ATNO][ 12].a[  3] =        83.620439734000;     BAS[ATNO][ 12].d[  3] =        -0.039213376699;
  BAS[ATNO][ 12].a[  4] =        34.964322657000;     BAS[ATNO][ 12].d[  4] =        -0.114825521740;
  BAS[ATNO][ 12].a[  5] =        15.525131784000;     BAS[ATNO][ 12].d[  5] =        -0.238614491416;
  BAS[ATNO][ 12].a[  6] =         7.099297980600;     BAS[ATNO][ 12].d[  6] =        -0.329834850408;
  BAS[ATNO][ 12].a[  7] =         3.302133660200;     BAS[ATNO][ 12].d[  7] =        -0.244588066181;
  BAS[ATNO][ 12].a[  8] =       128.787656670000;     BAS[ATNO][ 12].d[  8] =         0.006467271875;
  BAS[ATNO][ 12].a[  9] =         8.435786797700;     BAS[ATNO][ 12].d[  9] =         0.293919602389;
  BAS[ATNO][ 12].a[ 10] =         1.461866185500;     BAS[ATNO][ 12].d[ 10] =         1.570456746981;
  BAS[ATNO][ 12].a[ 11] =         0.646580101000;     BAS[ATNO][ 12].d[ 11] =        -0.575990024188;
  BAS[ATNO][ 12].a[ 12] =         0.272292957500;     BAS[ATNO][ 12].d[ 12] =         0.292195198232;
  BAS[ATNO][ 12].a[ 13] =         0.109051824500;     BAS[ATNO][ 12].d[ 13] =        -0.087112087182;

  // Basis function  14 L = p
  InitBFNGauss(BAS[ATNO][ 13]);
  BAS[ATNO][ 13].l  = 1;
  BAS[ATNO][ 13].ng = 14;
  BAS[ATNO][ 13].a[  0] =      2868.450458100000;     BAS[ATNO][ 13].d[  0] =         0.000159045351;
  BAS[ATNO][ 13].a[  1] =       679.718695900000;     BAS[ATNO][ 13].d[  1] =         0.001188309039;
  BAS[ATNO][ 13].a[  2] =       220.367588240000;     BAS[ATNO][ 13].d[  2] =         0.006234316249;
  BAS[ATNO][ 13].a[  3] =        83.620439734000;     BAS[ATNO][ 13].d[  3] =         0.024194264976;
  BAS[ATNO][ 13].a[  4] =        34.964322657000;     BAS[ATNO][ 13].d[  4] =         0.070846209453;
  BAS[ATNO][ 13].a[  5] =        15.525131784000;     BAS[ATNO][ 13].d[  5] =         0.147222777490;
  BAS[ATNO][ 13].a[  6] =         7.099297980600;     BAS[ATNO][ 13].d[  6] =         0.203504835360;
  BAS[ATNO][ 13].a[  7] =         3.302133660200;     BAS[ATNO][ 13].d[  7] =         0.150908413946;
  BAS[ATNO][ 13].a[  8] =       128.787656670000;     BAS[ATNO][ 13].d[  8] =        -0.005549139443;
  BAS[ATNO][ 13].a[  9] =         8.435786797700;     BAS[ATNO][ 13].d[  9] =        -0.225023757625;
  BAS[ATNO][ 13].a[ 10] =         1.461866185500;     BAS[ATNO][ 13].d[ 10] =        -1.645591923988;
  BAS[ATNO][ 13].a[ 11] =         0.646580101000;     BAS[ATNO][ 13].d[ 11] =         2.037072727702;
  BAS[ATNO][ 13].a[ 12] =         0.272292957500;     BAS[ATNO][ 13].d[ 12] =        -0.220986593582;
  BAS[ATNO][ 13].a[ 13] =         0.109051824500;     BAS[ATNO][ 13].d[ 13] =         0.086738947013;

  // Basis function  15 L = p
  InitBFNGauss(BAS[ATNO][ 14]);
  BAS[ATNO][ 14].l  = 1;
  BAS[ATNO][ 14].ng = 14;
  BAS[ATNO][ 14].a[  0] =      2868.450458100000;     BAS[ATNO][ 14].d[  0] =         0.000102122882;
  BAS[ATNO][ 14].a[  1] =       679.718695900000;     BAS[ATNO][ 14].d[  1] =         0.000763012206;
  BAS[ATNO][ 14].a[  2] =       220.367588240000;     BAS[ATNO][ 14].d[  2] =         0.004003049071;
  BAS[ATNO][ 14].a[  3] =        83.620439734000;     BAS[ATNO][ 14].d[  3] =         0.015535116613;
  BAS[ATNO][ 14].a[  4] =        34.964322657000;     BAS[ATNO][ 14].d[  4] =         0.045490289807;
  BAS[ATNO][ 14].a[  5] =        15.525131784000;     BAS[ATNO][ 14].d[  5] =         0.094531618077;
  BAS[ATNO][ 14].a[  6] =         7.099297980600;     BAS[ATNO][ 14].d[  6] =         0.130670278751;
  BAS[ATNO][ 14].a[  7] =         3.302133660200;     BAS[ATNO][ 14].d[  7] =         0.096898162057;
  BAS[ATNO][ 14].a[  8] =       128.787656670000;     BAS[ATNO][ 14].d[  8] =        -0.004015838045;
  BAS[ATNO][ 14].a[  9] =         8.435786797700;     BAS[ATNO][ 14].d[  9] =        -0.159297884637;
  BAS[ATNO][ 14].a[ 10] =         1.461866185500;     BAS[ATNO][ 14].d[ 10] =        -1.326147905390;
  BAS[ATNO][ 14].a[ 11] =         0.646580101000;     BAS[ATNO][ 14].d[ 11] =         2.752267829860;
  BAS[ATNO][ 14].a[ 12] =         0.272292957500;     BAS[ATNO][ 14].d[ 12] =        -2.182903284923;
  BAS[ATNO][ 14].a[ 13] =         0.109051824500;     BAS[ATNO][ 14].d[ 13] =         0.091790525351;

  // Basis function  16 L = p
  InitBFNGauss(BAS[ATNO][ 15]);
  BAS[ATNO][ 15].l  = 1;
  BAS[ATNO][ 15].ng = 14;
  BAS[ATNO][ 15].a[  0] =      2868.450458100000;     BAS[ATNO][ 15].d[  0] =        -0.000056293218;
  BAS[ATNO][ 15].a[  1] =       679.718695900000;     BAS[ATNO][ 15].d[  1] =        -0.000420595377;
  BAS[ATNO][ 15].a[  2] =       220.367588240000;     BAS[ATNO][ 15].d[  2] =        -0.002206601571;
  BAS[ATNO][ 15].a[  3] =        83.620439734000;     BAS[ATNO][ 15].d[  3] =        -0.008563425558;
  BAS[ATNO][ 15].a[  4] =        34.964322657000;     BAS[ATNO][ 15].d[  4] =        -0.025075621901;
  BAS[ATNO][ 15].a[  5] =        15.525131784000;     BAS[ATNO][ 15].d[  5] =        -0.052108683471;
  BAS[ATNO][ 15].a[  6] =         7.099297980600;     BAS[ATNO][ 15].d[  6] =        -0.072029404902;
  BAS[ATNO][ 15].a[  7] =         3.302133660200;     BAS[ATNO][ 15].d[  7] =        -0.053413194001;
  BAS[ATNO][ 15].a[  8] =       128.787656670000;     BAS[ATNO][ 15].d[  8] =         0.002254496308;
  BAS[ATNO][ 15].a[  9] =         8.435786797700;     BAS[ATNO][ 15].d[  9] =         0.092308107552;
  BAS[ATNO][ 15].a[ 10] =         1.461866185500;     BAS[ATNO][ 15].d[ 10] =         0.795337342441;
  BAS[ATNO][ 15].a[ 11] =         0.646580101000;     BAS[ATNO][ 15].d[ 11] =        -2.065251358091;
  BAS[ATNO][ 15].a[ 12] =         0.272292957500;     BAS[ATNO][ 15].d[ 12] =         2.865966272954;
  BAS[ATNO][ 15].a[ 13] =         0.109051824500;     BAS[ATNO][ 15].d[ 13] =        -2.024316371682;

  // Basis function  17 L = p
  InitBFNGauss(BAS[ATNO][ 16]);
  BAS[ATNO][ 16].l  = 1;
  BAS[ATNO][ 16].ng = 14;
  BAS[ATNO][ 16].a[  0] =      2868.450458100000;     BAS[ATNO][ 16].d[  0] =        -0.001459908811;
  BAS[ATNO][ 16].a[  1] =       679.718695900000;     BAS[ATNO][ 16].d[  1] =        -0.010907724260;
  BAS[ATNO][ 16].a[  2] =       220.367588240000;     BAS[ATNO][ 16].d[  2] =        -0.057226024855;
  BAS[ATNO][ 16].a[  3] =        83.620439734000;     BAS[ATNO][ 16].d[  3] =        -0.222083954940;
  BAS[ATNO][ 16].a[  4] =        34.964322657000;     BAS[ATNO][ 16].d[  4] =        -0.650311402459;
  BAS[ATNO][ 16].a[  5] =        15.525131784000;     BAS[ATNO][ 16].d[  5] =        -1.351387062807;
  BAS[ATNO][ 16].a[  6] =         7.099297980600;     BAS[ATNO][ 16].d[  6] =        -1.868011230414;
  BAS[ATNO][ 16].a[  7] =         3.302133660200;     BAS[ATNO][ 16].d[  7] =        -1.385218250545;
  BAS[ATNO][ 16].a[  8] =       128.787656670000;     BAS[ATNO][ 16].d[  8] =         0.114533112263;
  BAS[ATNO][ 16].a[  9] =         8.435786797700;     BAS[ATNO][ 16].d[  9] =         4.614762966242;
  BAS[ATNO][ 16].a[ 10] =         1.461866185500;     BAS[ATNO][ 16].d[ 10] =         0.442925715873;
  BAS[ATNO][ 16].a[ 11] =         0.646580101000;     BAS[ATNO][ 16].d[ 11] =         0.070271181953;
  BAS[ATNO][ 16].a[ 12] =         0.272292957500;     BAS[ATNO][ 16].d[ 12] =        -0.120835387823;
  BAS[ATNO][ 16].a[ 13] =         0.109051824500;     BAS[ATNO][ 16].d[ 13] =         0.047809803659;

  // Basis function  18 L = p
  InitBFNGauss(BAS[ATNO][ 17]);
  BAS[ATNO][ 17].l  = 1;
  BAS[ATNO][ 17].ng = 14;
  BAS[ATNO][ 17].a[  0] =      2868.450458100000;     BAS[ATNO][ 17].d[  0] =        -0.001352657158;
  BAS[ATNO][ 17].a[  1] =       679.718695900000;     BAS[ATNO][ 17].d[  1] =        -0.010106392395;
  BAS[ATNO][ 17].a[  2] =       220.367588240000;     BAS[ATNO][ 17].d[  2] =        -0.053021936441;
  BAS[ATNO][ 17].a[  3] =        83.620439734000;     BAS[ATNO][ 17].d[  3] =        -0.205768640633;
  BAS[ATNO][ 17].a[  4] =        34.964322657000;     BAS[ATNO][ 17].d[  4] =        -0.602536519616;
  BAS[ATNO][ 17].a[  5] =        15.525131784000;     BAS[ATNO][ 17].d[  5] =        -1.252107919990;
  BAS[ATNO][ 17].a[  6] =         7.099297980600;     BAS[ATNO][ 17].d[  6] =        -1.730778487232;
  BAS[ATNO][ 17].a[  7] =         3.302133660200;     BAS[ATNO][ 17].d[  7] =        -1.283453712231;
  BAS[ATNO][ 17].a[  8] =       128.787656670000;     BAS[ATNO][ 17].d[  8] =         1.439125619891;
  BAS[ATNO][ 17].a[  9] =         8.435786797700;     BAS[ATNO][ 17].d[  9] =         3.570273327074;
  BAS[ATNO][ 17].a[ 10] =         1.461866185500;     BAS[ATNO][ 17].d[ 10] =         1.192663493220;
  BAS[ATNO][ 17].a[ 11] =         0.646580101000;     BAS[ATNO][ 17].d[ 11] =        -0.756611769003;
  BAS[ATNO][ 17].a[ 12] =         0.272292957500;     BAS[ATNO][ 17].d[ 12] =         0.353591286324;
  BAS[ATNO][ 17].a[ 13] =         0.109051824500;     BAS[ATNO][ 17].d[ 13] =        -0.105289659846;

  // Basis function  19 L = d
  InitBFNGauss(BAS[ATNO][ 18]);
  BAS[ATNO][ 18].l  = 2;
  BAS[ATNO][ 18].ng = 4;
  BAS[ATNO][ 18].a[  0] =         6.315000000000;     BAS[ATNO][ 18].d[  0] =         0.625907152271;
  BAS[ATNO][ 18].a[  1] =         1.562000000000;     BAS[ATNO][ 18].d[  1] =         0.648737782880;
  BAS[ATNO][ 18].a[  2] =         0.715000000000;     BAS[ATNO][ 18].d[  2] =        -0.193939777766;
  BAS[ATNO][ 18].a[  3] =         0.297000000000;     BAS[ATNO][ 18].d[  3] =         0.063380824373;

  // Basis function  20 L = d
  InitBFNGauss(BAS[ATNO][ 19]);
  BAS[ATNO][ 19].l  = 2;
  BAS[ATNO][ 19].ng = 4;
  BAS[ATNO][ 19].a[  0] =         6.315000000000;     BAS[ATNO][ 19].d[  0] =        -0.525032430721;
  BAS[ATNO][ 19].a[  1] =         1.562000000000;     BAS[ATNO][ 19].d[  1] =         0.046471689382;
  BAS[ATNO][ 19].a[  2] =         0.715000000000;     BAS[ATNO][ 19].d[  2] =         0.952107877230;
  BAS[ATNO][ 19].a[  3] =         0.297000000000;     BAS[ATNO][ 19].d[  3] =        -0.044761477155;

  // Basis function  21 L = d
  InitBFNGauss(BAS[ATNO][ 20]);
  BAS[ATNO][ 20].l  = 2;
  BAS[ATNO][ 20].ng = 4;
  BAS[ATNO][ 20].a[  0] =         6.315000000000;     BAS[ATNO][ 20].d[  0] =         0.426218874834;
  BAS[ATNO][ 20].a[  1] =         1.562000000000;     BAS[ATNO][ 20].d[  1] =        -0.501991598562;
  BAS[ATNO][ 20].a[  2] =         0.715000000000;     BAS[ATNO][ 20].d[  2] =        -0.381386340395;
  BAS[ATNO][ 20].a[  3] =         0.297000000000;     BAS[ATNO][ 20].d[  3] =         1.169907754944;

  // Basis function  22 L = d
  InitBFNGauss(BAS[ATNO][ 21]);
  BAS[ATNO][ 21].l  = 2;
  BAS[ATNO][ 21].ng = 4;
  BAS[ATNO][ 21].a[  0] =         6.315000000000;     BAS[ATNO][ 21].d[  0] =         0.770528016702;
  BAS[ATNO][ 21].a[  1] =         1.562000000000;     BAS[ATNO][ 21].d[  1] =        -1.957149035203;
  BAS[ATNO][ 21].a[  2] =         0.715000000000;     BAS[ATNO][ 21].d[  2] =         2.387363975315;
  BAS[ATNO][ 21].a[  3] =         0.297000000000;     BAS[ATNO][ 21].d[  3] =        -1.216504448392;

  // Basis function  23 L = f
  InitBFNGauss(BAS[ATNO][ 22]);
  BAS[ATNO][ 22].l  = 3;
  BAS[ATNO][ 22].ng = 2;
  BAS[ATNO][ 22].a[  0] =         0.543000000000;     BAS[ATNO][ 22].d[  0] =         0.133062068650;
  BAS[ATNO][ 22].a[  1] =         1.325000000000;     BAS[ATNO][ 22].d[  1] =         0.908599982012;

  // Basis function  24 L = f
  InitBFNGauss(BAS[ATNO][ 23]);
  BAS[ATNO][ 23].l  = 3;
  BAS[ATNO][ 23].ng = 2;
  BAS[ATNO][ 23].a[  0] =         0.543000000000;     BAS[ATNO][ 23].d[  0] =         1.306524507857;
  BAS[ATNO][ 23].a[  1] =         1.325000000000;     BAS[ATNO][ 23].d[  1] =        -0.948239356087;

  // Basis function  25 L = g
  InitBFNGauss(BAS[ATNO][ 24]);
  BAS[ATNO][ 24].l  = 4;
  BAS[ATNO][ 24].ng = 1;
  BAS[ATNO][ 24].a[  0] =         1.007000000000;     BAS[ATNO][ 24].d[  0] =         1.000000000000;

-------
TIMINGS
-------

Total SCF time: 0 days 0 hours 0 min 1 sec 

Total time                  ....       1.721 sec
Sum of individual times     ....       1.538 sec  ( 89.3%)

Fock matrix formation       ....       1.083 sec  ( 62.9%)
  XC integration            ....       0.030 sec  (  2.7% of F)
    Basis function eval.    ....       0.004 sec  ( 14.6% of XC)
    Density eval.           ....       0.002 sec  (  7.7% of XC)
    XC-Functional eval.     ....       0.002 sec  (  5.9% of XC)
    XC-Potential eval.      ....       0.004 sec  ( 11.8% of XC)
Diagonalization             ....       0.003 sec  (  0.2%)
Density matrix formation    ....       0.001 sec  (  0.1%)
Population analysis         ....       0.001 sec  (  0.1%)
Initial guess               ....       0.073 sec  (  4.2%)
Orbital Transformation      ....       0.000 sec  (  0.0%)
Orbital Orthonormalization  ....       0.000 sec  (  0.0%)
DIIS solution               ....       0.000 sec  (  0.0%)
SOSCF solution              ....       0.001 sec  (  0.1%)
Grid generation             ....       0.375 sec  ( 21.8%)

-------------------------   --------------------
FINAL SINGLE POINT ENERGY      -322.627603964583
-------------------------   --------------------


                            ***************************************
                            *     ORCA property calculations      *
                            ***************************************

                                    ---------------------
                                    Active property flags
                                    ---------------------
   (+) Dipole Moment


------------------------------------------------------------------------------
                       ORCA ELECTRIC PROPERTIES CALCULATION
------------------------------------------------------------------------------

Dipole Moment Calculation                       ... on
Quadrupole Moment Calculation                   ... off
Polarizability Calculation                      ... off
GBWName                                         ... Ar_zora-def2-qzvpp_68.5179945_.gbw
Electron density file                           ... Ar_zora-def2-qzvpp_68.5179945_.scfp
The origin for moment calculation is the CENTER OF MASS  = ( 0.000000,  0.000000  0.000000)

-------------
DIPOLE MOMENT
-------------
                                X             Y             Z
Electronic contribution:     -0.00000       0.00000      -0.00000
Nuclear contribution   :      0.00000       0.00000       0.00000
                        -----------------------------------------
Total Dipole Moment    :     -0.00000       0.00000      -0.00000
                        -----------------------------------------
Magnitude (a.u.)       :      0.00000
Magnitude (Debye)      :      0.00000



--------------------
Rotational spectrum 
--------------------
 
Rotational constants in cm-1:     0.000000     0.000000     0.000000 
Rotational constants in MHz :     0.000000     0.000000     0.000000 

 Dipole components along the rotational axes: 
x,y,z [a.u.] :    -0.000000     0.000000    -0.000000 
x,y,z [Debye]:    -0.000000     0.000000    -0.000000 

 

Timings for individual modules:

Sum of individual times         ...        2.879 sec (=   0.048 min)
GTO integral calculation        ...        0.543 sec (=   0.009 min)  18.9 %
Relativistic integrals          ...        0.361 sec (=   0.006 min)  12.5 %
SCF iterations                  ...        1.975 sec (=   0.033 min)  68.6 %
                             ****ORCA TERMINATED NORMALLY****
TOTAL RUN TIME: 0 days 0 hours 0 minutes 3 seconds 217 msec
