
                                 *****************
                                 * O   R   C   A *
                                 *****************

           --- An Ab Initio, DFT and Semiempirical electronic structure package ---

                  #######################################################
                  #                        -***-                        #
                  #          Department of theory and spectroscopy      #
                  #               Directorship: Frank Neese             #
                  #        Max Planck Institute fuer Kohlenforschung    #
                  #                Kaiser Wilhelm Platz 1               #
                  #                 D-45470 Muelheim/Ruhr               #
                  #                      Germany                        #
                  #                                                     #
                  #                  All rights reserved                #
                  #                        -***-                        #
                  #######################################################


                         Program Version 4.2.1 -  RELEASE  -


 With contributions from (in alphabetic order):
   Daniel Aravena         : Magnetic Suceptibility
   Michael Atanasov       : Ab Initio Ligand Field Theory (pilot matlab implementation)
   Alexander A. Auer      : GIAO ZORA, VPT2
   Ute Becker             : Parallelization
   Giovanni Bistoni       : ED, misc. LED, open-shell LED, HFLD
   Martin Brehm           : Molecular dynamics
   Dmytro Bykov           : SCF Hessian
   Vijay G. Chilkuri      : MRCI spin determinant printing, contributions to CSF-ICE
   Dipayan Datta          : RHF DLPNO-CCSD density
   Achintya Kumar Dutta   : EOM-CC, STEOM-CC
   Dmitry Ganyushin       : Spin-Orbit,Spin-Spin,Magnetic field MRCI
   Miquel Garcia          : C-PCM Hessian, Gaussian charge scheme
   Yang Guo               : DLPNO-NEVPT2, CIM, IAO-localization
   Andreas Hansen         : Spin unrestricted coupled pair/coupled cluster methods
   Benjamin Helmich-Paris : CASSCF linear response (MC-RPA)
   Lee Huntington         : MR-EOM, pCC
   Robert Izsak           : Overlap fitted RIJCOSX, COSX-SCS-MP3, EOM
   Christian Kollmar      : KDIIS, OOCD, Brueckner-CCSD(T), CCSD density
   Simone Kossmann        : Meta GGA functionals, TD-DFT gradient, OOMP2, MP2 Hessian
   Martin Krupicka        : AUTO-CI
   Lucas Lang             : DCDCAS
   Dagmar Lenk            : GEPOL surface, SMD
   Dimitrios Liakos       : Extrapolation schemes; Compound Job, initial MDCI parallelization
   Dimitrios Manganas     : Further ROCIS development; embedding schemes
   Dimitrios Pantazis     : SARC Basis sets
   Taras Petrenko         : DFT Hessian,TD-DFT gradient, ASA, ECA, R-Raman, ABS, FL, XAS/XES, NRVS
   Peter Pinski           : DLPNO-MP2, DLPNO-MP2 Gradient
   Christoph Reimann      : Effective Core Potentials
   Marius Retegan         : Local ZFS, SOC
   Christoph Riplinger    : Optimizer, TS searches, QM/MM, DLPNO-CCSD(T), (RO)-DLPNO pert. Triples
   Tobias Risthaus        : Range-separated hybrids, TD-DFT gradient, RPA, STAB
   Michael Roemelt        : Original ROCIS implementation
   Masaaki Saitow         : Open-shell DLPNO-CCSD energy and density
   Barbara Sandhoefer     : DKH picture change effects
   Avijit Sen             : IP-ROCIS
   Kantharuban Sivalingam : CASSCF convergence, NEVPT2, FIC-MRCI
   Bernardo de Souza      : ESD, SOC TD-DFT
   Georgi Stoychev        : AutoAux, RI-MP2 NMR
   Willem Van den Heuvel  : Paramagnetic NMR
   Boris Wezisla          : Elementary symmetry handling
   Frank Wennmohs         : Technical directorship


 We gratefully acknowledge several colleagues who have allowed us to
 interface, adapt or use parts of their codes:
   Stefan Grimme, W. Hujo, H. Kruse,             : VdW corrections, initial TS optimization,
                  C. Bannwarth                     DFT functionals, gCP, sTDA/sTD-DF
   Ed Valeev, F. Pavosevic, A. Kumar             : LibInt (2-el integral package), F12 methods
   Garnet Chan, S. Sharma, J. Yang, R. Olivares  : DMRG
   Ulf Ekstrom                                   : XCFun DFT Library
   Mihaly Kallay                                 : mrcc  (arbitrary order and MRCC methods)
   Andreas Klamt, Michael Diedenhofen            : otool_cosmo (COSMO solvation model)
   Jiri Pittner, Ondrej Demel                    : Mk-CCSD
   Frank Weinhold                                : gennbo (NPA and NBO analysis)
   Christopher J. Cramer and Donald G. Truhlar   : smd solvation model
   Lars Goerigk                                  : TD-DFT with DH, B97 family of functionals
   V. Asgeirsson, H. Jonsson                     : NEB implementation
   FAccTs GmbH                                   : IRC, NEB, NEB-TS, Multilevel, MM, QM/MM, CI optimization
   S Lehtola, MJT Oliveira, MAL Marques          : LibXC Library


 Your calculation uses the libint2 library for the computation of 2-el integrals
 For citations please refer to: http://libint.valeyev.net

 Your ORCA version has been built with support for libXC version: 4.2.3
 For citations please refer to: https://tddft.org/programs/libxc/

 This ORCA versions uses:
   CBLAS   interface :  Fast vector & matrix operations
   LAPACKE interface :  Fast linear algebra routines
   SCALAPACK package :  Parallel linear algebra routines


----- Orbital basis set information -----
Your calculation utilizes the basis: ZORA-def2-TZVP 
   Exponents from def2-TZVP [F. Weigend and R. Ahlrichs, Phys. Chem. Chem. Phys. 7, 3297 (2005)],
   recontracted for ZORA by D. A. Pantazis.

================================================================================
                                        WARNINGS
                       Please study these warnings very carefully!
================================================================================


INFO   : the flag for use of LIBINT has been found!

================================================================================
                                       INPUT FILE
================================================================================
NAME = Ar_zora-def2-tzvp_68.5179945_.inp
|  1> ! LDA zora-def2-tzvp nori grid5 finalgrid6 verytightscf
|  2> %Pal NProcs 18 End
|  3> 
|  4> % REL
|  5>   Method ZORA
|  6>   ModelPot 1, 0, 0, 0
|  7>   velit 68.5179945
|  8> END
|  9> 
| 10> *xyz 16 1
| 11> Ar 0.0 0.0 0.0
| 12> **                         ****END OF INPUT****
================================================================================

                       ****************************
                       * Single Point Calculation *
                       ****************************

---------------------------------
CARTESIAN COORDINATES (ANGSTROEM)
---------------------------------
  Ar     0.000000    0.000000    0.000000

----------------------------
CARTESIAN COORDINATES (A.U.)
----------------------------
  NO LB      ZA    FRAG     MASS         X           Y           Z
   0 Ar   18.0000    0    39.948    0.000000    0.000000    0.000000

--------------------------------
INTERNAL COORDINATES (ANGSTROEM)
--------------------------------
 Ar     0   0   0     0.000000000000     0.00000000     0.00000000

---------------------------
INTERNAL COORDINATES (A.U.)
---------------------------
 Ar     0   0   0     0.000000000000     0.00000000     0.00000000

---------------------
BASIS SET INFORMATION
---------------------
There are 1 groups of distinct atoms

 Group   1 Type Ar  : 14s9p3d1f contracted to 8s4p2d1f pattern {71111111/6111/21/1}

Atom   0Ar   basis set group =>   1


           ************************************************************
           *        Program running with 18 parallel MPI-processes    *
           *              working on a common directory               *
           ************************************************************
------------------------------------------------------------------------------
                           ORCA GTO INTEGRAL CALCULATION
------------------------------------------------------------------------------

                         BASIS SET STATISTICS AND STARTUP INFO

 # of primitive gaussian shells          ...   27
 # of primitive gaussian functions       ...   63
 # of contracted shells                  ...   15
 # of contracted basis functions         ...   37
 Highest angular momentum                ...    3
 Maximum contraction depth               ...    7
 Integral package used                   ... LIBINT
 Integral threshhold            Thresh   ...  1.000e-12
 Primitive cut-off              TCut     ...  1.000e-14


------------------------------ INTEGRAL EVALUATION ----------------------------


 * One electron integrals 
 Pre-screening matrix                    ... done
 Shell pair data                         ... done (   0.000 sec)



           ************************************************************
           *        Program running with 18 parallel MPI-processes    *
           *              working on a common directory               *
           ************************************************************
------------------------------------------------------------------------------
                          ORCA RELATIVISTIC HAMILTONIAN
------------------------------------------------------------------------------

Relativistic Method            ... ZORA(MP)
Treatment of potential         ... Van Wuellen
Nucleus model                  ... Point Nucleus
Speed of light used            ...  68.51799450000000


            *************************************************
            *         ZERO ORDER REGULAR APPROXIMATION      *
            *                     ZORA(MP)                  *
            *            Programmed by FN according to      *
            *                   C. van Wuellen              *
            *       J. Chem. Phys. (1998) vol 109, 392-399  *
            *************************************************

Terms included in model potential: +V(e,N)
Basis function cutoff value   ... 1.000000e-12
Loading the fitted atomic densities  (DKH4)  ... done
Calculating the cutoffs                      ... done
Number of fit functions                      ... 15
Setting up the integration grid ... done


           ************************************************************
           *        Program running with 18 parallel MPI-processes    *
           *              working on a common directory               *
           ************************************************************
-------------------------------------------------------------------------------
                                 ORCA SCF
-------------------------------------------------------------------------------

------------
SCF SETTINGS
------------
Hamiltonian:
 Density Functional     Method          .... DFT(GTOs)
 Exchange Functional    Exchange        .... Slater
   X-Alpha parameter    XAlpha          ....  0.666667
 Correlation Functional Correlation     .... VWN-5
 Gradients option       PostSCFGGA      .... off
   Density functional embedding theory  .... OFF

Relativistic Settings:
 Scalar relativistic method             .... ZORA
 Speed of light used       Velit        ....       68.5179945
Orbital energies will be scaled


General Settings:
 Integral files         IntName         .... Ar_zora-def2-tzvp_68.5179945_
 Hartree-Fock type      HFTyp           .... RHF
 Total Charge           Charge          ....   16
 Multiplicity           Mult            ....    1
 Number of Electrons    NEL             ....    2
 Basis Dimension        Dim             ....   37
 Nuclear Repulsion      ENuc            ....      0.0000000000 Eh

Convergence Acceleration:
 DIIS                   CNVDIIS         .... on
   Start iteration      DIISMaxIt       ....    12
   Startup error        DIISStart       ....  0.200000
   # of expansion vecs  DIISMaxEq       ....     5
   Bias factor          DIISBfac        ....   1.050
   Max. coefficient     DIISMaxC        ....  10.000
 Newton-Raphson         CNVNR           .... off
 SOSCF                  CNVSOSCF        .... on
   Start iteration      SOSCFMaxIt      ....   150
   Startup grad/error   SOSCFStart      ....  0.003300
 Level Shifting         CNVShift        .... on
   Level shift para.    LevelShift      ....    0.2500
   Turn off err/grad.   ShiftErr        ....    0.0010
 Zerner damping         CNVZerner       .... off
 Static damping         CNVDamp         .... on
   Fraction old density DampFac         ....    0.7000
   Max. Damping (<1)    DampMax         ....    0.9800
   Min. Damping (>=0)   DampMin         ....    0.0000
   Turn off err/grad.   DampErr         ....    0.1000
 Fernandez-Rico         CNVRico         .... off

SCF Procedure:
 Maximum # iterations   MaxIter         ....   125
 SCF integral mode      SCFMode         .... Direct
   Integral package                     .... LIBINT
 Reset frequency        DirectResetFreq ....    20
 Integral Threshold     Thresh          ....  1.000e-12 Eh
 Primitive CutOff       TCut            ....  1.000e-14 Eh

Convergence Tolerance:
 Convergence Check Mode ConvCheckMode   .... Total+1el-Energy
 Convergence forced     ConvForced      .... 0
 Energy Change          TolE            ....  1.000e-09 Eh
 1-El. energy change                    ....  1.000e-06 Eh
 Orbital Gradient       TolG            ....  2.000e-06
 Orbital Rotation angle TolX            ....  2.000e-06
 DIIS Error             TolErr          ....  1.000e-08


Diagonalization of the overlap matrix:
Smallest eigenvalue                        ... 4.699e-03
Time for diagonalization                   ...    0.001 sec
Threshold for overlap eigenvalues          ... 1.000e-08
Number of eigenvalues below threshold      ... 0
Time for construction of square roots      ...    0.001 sec
Total time needed                          ...    0.002 sec

-------------------
DFT GRID GENERATION
-------------------

General Integration Accuracy     IntAcc      ...  5.010
Radial Grid Type                 RadialGrid  ... Gauss-Chebyshev
Angular Grid (max. acc.)         AngularGrid ... Lebedev-434
Angular grid pruning method      GridPruning ... 3 (G Style)
Weight generation scheme         WeightScheme... Becke
Basis function cutoff            BFCut       ...    1.0000e-12
Integration weight cutoff        WCut        ...    1.0000e-14
Grids for H and He will be reduced by one unit

# of grid points (after initial pruning)     ...  11992 (   0.0 sec)
# of grid points (after weights+screening)   ...  11992 (   0.0 sec)
Grid point division into batches done        ...    0.1 sec
Reduced shell lists constructed in    0.1 sec

Total number of grid points                  ...    11992
Total number of batches                      ...      188
Average number of points per batch           ...       63
Average number of grid points per atom       ...    11992
Average number of shells per batch           ...     0.00 ( 0.00%)
Average number of basis functions per batch  ...     0.00 ( 0.00%)
Average number of large shells per batch     ...     0.00 ( -nan%)
Average number of large basis fcns per batch ...     0.00 ( -nan%)
Maximum spatial batch extension              ...  18.71, 18.71, 18.71 au
Average spatial batch extension              ...   0.97,  0.98,  0.97 au

Time for grid setup =    0.153 sec

------------------------------
INITIAL GUESS: MODEL POTENTIAL
------------------------------
Loading ZORA relativistic densities                ... done
Calculating cut-offs                               ... done
Setting up the integral package                    ... done
Initializing the effective Hamiltonian             ... done
Starting the Coulomb interaction                   ... done (   0.0 sec)
Reading the grid                                   ... done
Mapping shells                                     ... done
Starting the XC term evaluation                    ... done (   0.0 sec)
  promolecular density results
     # of electrons  =     18.000000116
     EX              =    -28.047870263
     EC              =     -1.433252902
     EX+EC           =    -29.481123164
Transforming the Hamiltonian                       ... done (   0.0 sec)
Diagonalizing the Hamiltonian                      ... done (   0.0 sec)
Back transforming the eigenvectors                 ... done (   0.0 sec)
Now organizing SCF variables                       ... done
                      ------------------
                      INITIAL GUESS DONE (   0.2 sec)
                      ------------------
--------------
SCF ITERATIONS
--------------
ITER       Energy         Delta-E        Max-DP      RMS-DP      [F,P]     Damp
               ***  Starting incremental Fock matrix formation  ***
  0   -322.5142934958   0.000000000000 0.01137999  0.00044798  2.1325535 0.7000
  1   -322.5214544298  -0.007160934048 0.00795099  0.00031113  1.4817773 0.7000
  2   -322.5264098847  -0.004955454831 0.00553896  0.00021553  1.0287815 0.7000
  3   -322.5298514317  -0.003441547049 0.00385885  0.00014932  0.7143263 0.7000
                      *** Initiating the SOSCF procedure ***
                      *** Re-Reading the Fockian *** 
                      *** Removing any level shift *** 
ITER      Energy       Delta-E        Grad      Rot      Max-DP    RMS-DP
  4   -322.53224751  -0.0023960830  0.003159  0.003159  0.008962  0.000345
               *** Restarting incremental Fock matrix formation ***
  5   -322.53779803  -0.0055505180  0.007274  0.000032  0.000374  0.000012
  6   -322.53779887  -0.0000008414  0.000217  0.000001  0.000011  0.000000
                 **** Energy Check signals convergence ****
              ***Rediagonalizing the Fockian in SOSCF/NRSCF***

               *****************************************************
               *                     SUCCESS                       *
               *           SCF CONVERGED AFTER   7 CYCLES          *
               *****************************************************

Setting up the final grid:

General Integration Accuracy     IntAcc      ...  5.340
Radial Grid Type                 RadialGrid  ... Gauss-Chebyshev
Angular Grid (max. acc.)         AngularGrid ... Lebedev-590
Angular grid pruning method      GridPruning ... 3 (G Style)
Weight generation scheme         WeightScheme... Becke
Basis function cutoff            BFCut       ...    1.0000e-12
Integration weight cutoff        WCut        ...    1.0000e-14
Grids for H and He will be reduced by one unit

# of grid points (after initial pruning)     ...  18110 (   0.0 sec)
# of grid points (after weights+screening)   ...  18110 (   0.0 sec)
Grid point division into batches done        ...    0.2 sec
Reduced shell lists constructed in    0.2 sec

Total number of grid points                  ...    18110
Total number of batches                      ...      283
Average number of points per batch           ...       63
Average number of grid points per atom       ...    18110
Average number of shells per batch           ...     0.00 ( 0.00%)
Average number of basis functions per batch  ...     0.00 ( 0.00%)
Average number of large shells per batch     ...     0.00 ( -nan%)
Average number of large basis fcns per batch ...     0.00 ( -nan%)
Maximum spatial batch extension              ...  19.03, 19.03, 19.03 au
Average spatial batch extension              ...   0.84,  0.84,  0.80 au

Final grid set up in    0.2 sec
Final integration                            ... done (   0.0 sec)
Change in XC energy                          ...    -0.000002257
Integrated number of electrons               ...     1.999998992
Previous integrated no of electrons          ...     1.999998664

----------------
TOTAL SCF ENERGY
----------------

Total Energy       :         -322.53780113 Eh           -8776.69977 eV

Components:
Nuclear Repulsion  :            0.00000000 Eh               0.00000 eV
Electronic Energy  :         -322.53780113 Eh           -8776.69977 eV
One Electron Energy:         -335.39200010 Eh           -9126.48030 eV
Two Electron Energy:           12.85419897 Eh             349.78054 eV

Virial components:
Potential Energy   :         -655.68724096 Eh          -17842.15690 eV
Kinetic Energy     :          333.14943983 Eh            9065.45714 eV
Virial Ratio       :            1.96814751


DFT components:
N(Alpha)           :        0.999999496106 electrons
N(Beta)            :        0.999999496106 electrons
N(Total)           :        1.999998992212 electrons
E(X)               :       -9.860970096276 Eh       
E(C)               :       -0.239215889273 Eh       
E(XC)              :      -10.100185985550 Eh       
DFET-embed. en.    :        0.000000000000 Eh       

---------------
SCF CONVERGENCE
---------------

  Last Energy change         ...   -7.8478e-10  Tolerance :   1.0000e-09
  Last MAX-Density change    ...    3.2758e-10  Tolerance :   1.0000e-08
  Last RMS-Density change    ...    1.5167e-11  Tolerance :   1.0000e-09
  Last Orbital Gradient      ...    8.9677e-09  Tolerance :   2.0000e-06
  Last Orbital Rotation      ...    3.3271e-11  Tolerance :   2.0000e-06

================================================================================
                                        WARNING
Number of found core electrons (2) does not match given number of chemical core electrons (10)
================================================================================
             **** THE GBW FILE WAS UPDATED (Ar_zora-def2-tzvp_68.5179945_.gbw) ****
             **** DENSITY FILE WAS UPDATED (Ar_zora-def2-tzvp_68.5179945_.scfp) ****
             **** ENERGY FILE WAS UPDATED (Ar_zora-def2-tzvp_68.5179945_.en.tmp) ****
             **** THE GBW FILE WAS UPDATED (Ar_zora-def2-tzvp_68.5179945_.gbw) ****
             **** DENSITY FILE WAS UPDATED (Ar_zora-def2-tzvp_68.5179945_.scfp) ****
----------------
ORBITAL ENERGIES
----------------

  NO   OCC          E(Eh)            E(eV) 
   0   2.0000    -151.444770     -4121.0217 
   1   0.0000     -34.983920      -951.9609 
   2   0.0000     -33.051127      -899.3669 
   3   0.0000     -33.051127      -899.3669 
   4   0.0000     -33.051127      -899.3669 
   5   0.0000     -15.059430      -409.7879 
   6   0.0000     -13.526409      -368.0723 
   7   0.0000     -13.526409      -368.0723 
   8   0.0000     -13.526409      -368.0723 
   9   0.0000     -12.025246      -327.2236 
  10   0.0000     -12.025246      -327.2236 
  11   0.0000     -12.025246      -327.2236 
  12   0.0000     -12.025246      -327.2236 
  13   0.0000     -12.025246      -327.2236 
  14   0.0000      -8.338173      -226.8932 
  15   0.0000      -7.248275      -197.2356 
  16   0.0000      -7.248275      -197.2356 
  17   0.0000      -7.248275      -197.2356 
  18   0.0000      -7.016044      -190.9163 
  19   0.0000      -7.016044      -190.9163 
  20   0.0000      -7.016044      -190.9163 
  21   0.0000      -7.016044      -190.9163 
  22   0.0000      -7.016044      -190.9163 
  23   0.0000      -7.016044      -190.9163 
  24   0.0000      -7.016044      -190.9163 
  25   0.0000      -6.253464      -170.1654 
  26   0.0000      -6.253464      -170.1654 
  27   0.0000      -6.253464      -170.1654 
  28   0.0000      -6.253464      -170.1654 
  29   0.0000      -6.253464      -170.1654 
  30   0.0000      -5.278776      -143.6428 
  31   0.0000      -4.346511      -118.2746 
  32   0.0000      -4.346511      -118.2746 
  33   0.0000      -4.346511      -118.2746 
  34   0.0000       4.890627       133.0807 
  35   0.0000     119.074963      3240.1945 
  36   0.0000     902.917106     24569.6236 

                    ********************************
                    * MULLIKEN POPULATION ANALYSIS *
                    ********************************

-----------------------
MULLIKEN ATOMIC CHARGES
-----------------------
   0 Ar:   16.000000
Sum of atomic charges:   16.0000000

--------------------------------
MULLIKEN REDUCED ORBITAL CHARGES
--------------------------------
  0 Ars       :     2.000000  s :     2.000000
      pz      :     0.000000  p :     0.000000
      px      :     0.000000
      py      :     0.000000
      dz2     :     0.000000  d :     0.000000
      dxz     :     0.000000
      dyz     :     0.000000
      dx2y2   :     0.000000
      dxy     :     0.000000
      f0      :     0.000000  f :     0.000000
      f+1     :     0.000000
      f-1     :     0.000000
      f+2     :     0.000000
      f-2     :     0.000000
      f+3     :     0.000000
      f-3     :     0.000000


                     *******************************
                     * LOEWDIN POPULATION ANALYSIS *
                     *******************************

----------------------
LOEWDIN ATOMIC CHARGES
----------------------
   0 Ar:   16.000000

-------------------------------
LOEWDIN REDUCED ORBITAL CHARGES
-------------------------------
  0 Ars       :     2.000000  s :     2.000000
      pz      :     0.000000  p :     0.000000
      px      :     0.000000
      py      :     0.000000
      dz2     :     0.000000  d :     0.000000
      dxz     :     0.000000
      dyz     :     0.000000
      dx2y2   :     0.000000
      dxy     :     0.000000
      f0      :     0.000000  f :     0.000000
      f+1     :     0.000000
      f-1     :     0.000000
      f+2     :     0.000000
      f-2     :     0.000000
      f+3     :     0.000000
      f-3     :     0.000000


                      *****************************
                      * MAYER POPULATION ANALYSIS *
                      *****************************

  NA   - Mulliken gross atomic population
  ZA   - Total nuclear charge
  QA   - Mulliken gross atomic charge
  VA   - Mayer's total valence
  BVA  - Mayer's bonded valence
  FA   - Mayer's free valence

  ATOM       NA         ZA         QA         VA         BVA        FA
  0 Ar     2.0000    18.0000    16.0000     0.0000     0.0000     0.0000

  Mayer bond orders larger than 0.100000


--------------------------
ATOM BASIS FOR ELEMENT Ar
--------------------------
 NewGTO Ar
 S 14
    1      79111.422997999995         0.000752578791
    2      11864.746009000000         0.005009834579
    3       2700.164297300000         0.024385221612
    4        763.959434850000         0.093432777747
    5        248.451505610000         0.263475252661
    6         88.283581000000         0.475275402551
    7         32.948607070000         0.359791212909
    8        142.553580000000        -0.035696660163
    9         44.163688010000        -0.043411659814
   10          8.952499500000         0.006187947357
   11          4.554692090000         0.011401779665
   12          2.144407900000        -0.007126551601
   13          0.607087770000         0.002212921454
   14          0.216514320000        -0.000737204686
 S 14
    1      79111.422997999995         0.000268070039
    2      11864.746009000000         0.001784512887
    3       2700.164297300000         0.008686063687
    4        763.959434850000         0.033280938385
    5        248.451505610000         0.093850400910
    6         88.283581000000         0.169294029028
    7         32.948607070000         0.128158334547
    8        142.553580000000         0.032671639626
    9         44.163688010000         0.106545378879
   10          8.952499500000        -0.667915437144
   11          4.554692090000        -0.403813994578
   12          2.144407900000        -0.103877238793
   13          0.607087770000         0.014804160844
   14          0.216514320000        -0.004706532352
 S 14
    1      79111.422997999995        -0.000143039882
    2      11864.746009000000        -0.000952200826
    3       2700.164297300000        -0.004634809350
    4        763.959434850000        -0.017758424296
    5        248.451505610000        -0.050077771860
    6         88.283581000000        -0.090333847066
    7         32.948607070000        -0.068384192046
    8        142.553580000000        -0.024115308752
    9         44.163688010000        -0.071033746733
   10          8.952499500000         0.610420699159
   11          4.554692090000         0.900400026254
   12          2.144407900000        -1.431705790243
   13          0.607087770000        -0.402317884066
   14          0.216514320000         0.077803915916
 S 14
    1      79111.422997999995         0.000094765115
    2      11864.746009000000         0.000630840992
    3       2700.164297300000         0.003070599869
    4        763.959434850000         0.011765104279
    5        248.451505610000         0.033176941723
    6         88.283581000000         0.059846927458
    7         32.948607070000         0.045305097852
    8        142.553580000000         0.017749576737
    9         44.163688010000         0.050005693838
   10          8.952499500000        -0.483570212992
   11          4.554692090000        -0.990716890625
   12          2.144407900000         2.514585085464
   13          0.607087770000        -1.507643081005
   14          0.216514320000        -0.197971779869
 S 14
    1      79111.422997999995         0.000060961570
    2      11864.746009000000         0.000405814497
    3       2700.164297300000         0.001975290061
    4        763.959434850000         0.007568388763
    5        248.451505610000         0.021342436666
    6         88.283581000000         0.038499005411
    7         32.948607070000         0.029144373511
    8        142.553580000000         0.010571018034
    9         44.163688010000         0.036863452746
   10          8.952499500000        -0.401516929698
   11          4.554692090000        -0.568276605013
   12          2.144407900000         2.071978988855
   13          0.607087770000        -2.930068345904
   14          0.216514320000         2.147203871818
 S 14
    1      79111.422997999995         0.000255547885
    2      11864.746009000000         0.001701154277
    3       2700.164297300000         0.008280318120
    4        763.959434850000         0.031726310914
    5        248.451505610000         0.089466437642
    6         88.283581000000         0.161385924241
    7         32.948607070000         0.122171770551
    8        142.553580000000        -0.000643832241
    9         44.163688010000         0.320522730590
   10          8.952499500000        -5.359091209746
   11          4.554692090000         9.218678795939
   12          2.144407900000        -5.954529800282
   13          0.607087770000         2.116233800604
   14          0.216514320000        -0.751168826564
 S 14
    1      79111.422997999995        -0.000519144119
    2      11864.746009000000        -0.003455885539
    3       2700.164297300000        -0.016821420629
    4        763.959434850000        -0.064451825783
    5        248.451505610000        -0.181750575033
    6         88.283581000000        -0.327854615719
    7         32.948607070000        -0.248191278602
    8        142.553580000000        -1.206511486484
    9         44.163688010000         2.978260100430
   10          8.952499500000        -3.709807742965
   11          4.554692090000         4.141077029619
   12          2.144407900000        -1.969184144318
   13          0.607087770000         0.549196684258
   14          0.216514320000        -0.179197788984
 S 14
    1      79111.422997999995        -0.006091700180
    2      11864.746009000000        -0.040551780857
    3       2700.164297300000        -0.197384593728
    4        763.959434850000        -0.756285555667
    5        248.451505610000        -2.132683333054
    6         88.283581000000        -3.847085900458
    7         32.948607070000        -2.912306622355
    8        142.553580000000         5.862619983897
    9         44.163688010000         2.805966899113
   10          8.952499500000         1.906005181199
   11          4.554692090000        -1.881567296046
   12          2.144407900000         0.855063440135
   13          0.607087770000        -0.234473350287
   14          0.216514320000         0.076234933117
 P 9
    1        776.775419980000         0.002761373836
    2        183.801070180000         0.020940671157
    3         58.694003170000         0.095926980704
    4         21.701591700000         0.278686146565
    5          8.582148960000         0.482360330673
    6          3.492267920000         0.390844999055
    7          1.263742700000        -0.222198989975
    8          0.466078700000         0.122337866897
    9          0.157660030000        -0.039045114930
 P 9
    1        776.775419980000         0.001160721898
    2        183.801070180000         0.008802247366
    3         58.694003170000         0.040322156194
    4         21.701591700000         0.117143542396
    5          8.582148960000         0.202756392963
    6          3.492267920000         0.164288638963
    7          1.263742700000        -1.341675801521
    8          0.466078700000         0.317120174507
    9          0.157660030000        -0.098145518215
 P 9
    1        776.775419980000         0.000538955798
    2        183.801070180000         0.004087130831
    3         58.694003170000         0.018722710337
    4         21.701591700000         0.054393038941
    5          8.582148960000         0.094145491526
    6          3.492267920000         0.076283832245
    7          1.263742700000        -1.192702994423
    8          0.466078700000         1.694158346242
    9          0.157660030000        -0.159436187742
 P 9
    1        776.775419980000         0.000236349727
    2        183.801070180000         0.001792340407
    3         58.694003170000         0.008210520205
    4         21.701591700000         0.023853124746
    5          8.582148960000         0.041285874026
    6          3.492267920000         0.033452952842
    7          1.263742700000        -0.657434370614
    8          0.466078700000         1.541246734885
    9          0.157660030000        -1.573455620799
 D 3
    1          5.551000000000         0.200663619969
    2          1.235000000000         1.003318099845
    3          0.412000000000        -0.199109280692
 D 3
    1          5.551000000000         0.094599018699
    2          1.235000000000         0.472995093495
    3          0.412000000000        -1.199419074351
 F 1
    1          0.890000000000         1.000000000000
 end
  // -----------------------------------------------
  // The basis set
  // -----------------------------------------------
  BAS[ATNO] = new BFNGauss[NSH];
  // Basis function   1 L = s
  InitBFNGauss(BAS[ATNO][  0]);
  BAS[ATNO][  0].l  = 0;
  BAS[ATNO][  0].ng = 14;
  BAS[ATNO][  0].a[  0] =     79111.422997999995;     BAS[ATNO][  0].d[  0] =         0.000752578791;
  BAS[ATNO][  0].a[  1] =     11864.746009000000;     BAS[ATNO][  0].d[  1] =         0.005009834579;
  BAS[ATNO][  0].a[  2] =      2700.164297300000;     BAS[ATNO][  0].d[  2] =         0.024385221612;
  BAS[ATNO][  0].a[  3] =       763.959434850000;     BAS[ATNO][  0].d[  3] =         0.093432777747;
  BAS[ATNO][  0].a[  4] =       248.451505610000;     BAS[ATNO][  0].d[  4] =         0.263475252661;
  BAS[ATNO][  0].a[  5] =        88.283581000000;     BAS[ATNO][  0].d[  5] =         0.475275402551;
  BAS[ATNO][  0].a[  6] =        32.948607070000;     BAS[ATNO][  0].d[  6] =         0.359791212909;
  BAS[ATNO][  0].a[  7] =       142.553580000000;     BAS[ATNO][  0].d[  7] =        -0.035696660163;
  BAS[ATNO][  0].a[  8] =        44.163688010000;     BAS[ATNO][  0].d[  8] =        -0.043411659814;
  BAS[ATNO][  0].a[  9] =         8.952499500000;     BAS[ATNO][  0].d[  9] =         0.006187947357;
  BAS[ATNO][  0].a[ 10] =         4.554692090000;     BAS[ATNO][  0].d[ 10] =         0.011401779665;
  BAS[ATNO][  0].a[ 11] =         2.144407900000;     BAS[ATNO][  0].d[ 11] =        -0.007126551601;
  BAS[ATNO][  0].a[ 12] =         0.607087770000;     BAS[ATNO][  0].d[ 12] =         0.002212921454;
  BAS[ATNO][  0].a[ 13] =         0.216514320000;     BAS[ATNO][  0].d[ 13] =        -0.000737204686;

  // Basis function   2 L = s
  InitBFNGauss(BAS[ATNO][  1]);
  BAS[ATNO][  1].l  = 0;
  BAS[ATNO][  1].ng = 14;
  BAS[ATNO][  1].a[  0] =     79111.422997999995;     BAS[ATNO][  1].d[  0] =        -0.000268070039;
  BAS[ATNO][  1].a[  1] =     11864.746009000000;     BAS[ATNO][  1].d[  1] =        -0.001784512887;
  BAS[ATNO][  1].a[  2] =      2700.164297300000;     BAS[ATNO][  1].d[  2] =        -0.008686063687;
  BAS[ATNO][  1].a[  3] =       763.959434850000;     BAS[ATNO][  1].d[  3] =        -0.033280938385;
  BAS[ATNO][  1].a[  4] =       248.451505610000;     BAS[ATNO][  1].d[  4] =        -0.093850400910;
  BAS[ATNO][  1].a[  5] =        88.283581000000;     BAS[ATNO][  1].d[  5] =        -0.169294029028;
  BAS[ATNO][  1].a[  6] =        32.948607070000;     BAS[ATNO][  1].d[  6] =        -0.128158334547;
  BAS[ATNO][  1].a[  7] =       142.553580000000;     BAS[ATNO][  1].d[  7] =        -0.032671639626;
  BAS[ATNO][  1].a[  8] =        44.163688010000;     BAS[ATNO][  1].d[  8] =        -0.106545378879;
  BAS[ATNO][  1].a[  9] =         8.952499500000;     BAS[ATNO][  1].d[  9] =         0.667915437144;
  BAS[ATNO][  1].a[ 10] =         4.554692090000;     BAS[ATNO][  1].d[ 10] =         0.403813994578;
  BAS[ATNO][  1].a[ 11] =         2.144407900000;     BAS[ATNO][  1].d[ 11] =         0.103877238793;
  BAS[ATNO][  1].a[ 12] =         0.607087770000;     BAS[ATNO][  1].d[ 12] =        -0.014804160844;
  BAS[ATNO][  1].a[ 13] =         0.216514320000;     BAS[ATNO][  1].d[ 13] =         0.004706532352;

  // Basis function   3 L = s
  InitBFNGauss(BAS[ATNO][  2]);
  BAS[ATNO][  2].l  = 0;
  BAS[ATNO][  2].ng = 14;
  BAS[ATNO][  2].a[  0] =     79111.422997999995;     BAS[ATNO][  2].d[  0] =         0.000143039882;
  BAS[ATNO][  2].a[  1] =     11864.746009000000;     BAS[ATNO][  2].d[  1] =         0.000952200826;
  BAS[ATNO][  2].a[  2] =      2700.164297300000;     BAS[ATNO][  2].d[  2] =         0.004634809350;
  BAS[ATNO][  2].a[  3] =       763.959434850000;     BAS[ATNO][  2].d[  3] =         0.017758424296;
  BAS[ATNO][  2].a[  4] =       248.451505610000;     BAS[ATNO][  2].d[  4] =         0.050077771860;
  BAS[ATNO][  2].a[  5] =        88.283581000000;     BAS[ATNO][  2].d[  5] =         0.090333847066;
  BAS[ATNO][  2].a[  6] =        32.948607070000;     BAS[ATNO][  2].d[  6] =         0.068384192046;
  BAS[ATNO][  2].a[  7] =       142.553580000000;     BAS[ATNO][  2].d[  7] =         0.024115308752;
  BAS[ATNO][  2].a[  8] =        44.163688010000;     BAS[ATNO][  2].d[  8] =         0.071033746733;
  BAS[ATNO][  2].a[  9] =         8.952499500000;     BAS[ATNO][  2].d[  9] =        -0.610420699159;
  BAS[ATNO][  2].a[ 10] =         4.554692090000;     BAS[ATNO][  2].d[ 10] =        -0.900400026254;
  BAS[ATNO][  2].a[ 11] =         2.144407900000;     BAS[ATNO][  2].d[ 11] =         1.431705790243;
  BAS[ATNO][  2].a[ 12] =         0.607087770000;     BAS[ATNO][  2].d[ 12] =         0.402317884066;
  BAS[ATNO][  2].a[ 13] =         0.216514320000;     BAS[ATNO][  2].d[ 13] =        -0.077803915916;

  // Basis function   4 L = s
  InitBFNGauss(BAS[ATNO][  3]);
  BAS[ATNO][  3].l  = 0;
  BAS[ATNO][  3].ng = 14;
  BAS[ATNO][  3].a[  0] =     79111.422997999995;     BAS[ATNO][  3].d[  0] =         0.000094765115;
  BAS[ATNO][  3].a[  1] =     11864.746009000000;     BAS[ATNO][  3].d[  1] =         0.000630840992;
  BAS[ATNO][  3].a[  2] =      2700.164297300000;     BAS[ATNO][  3].d[  2] =         0.003070599869;
  BAS[ATNO][  3].a[  3] =       763.959434850000;     BAS[ATNO][  3].d[  3] =         0.011765104279;
  BAS[ATNO][  3].a[  4] =       248.451505610000;     BAS[ATNO][  3].d[  4] =         0.033176941723;
  BAS[ATNO][  3].a[  5] =        88.283581000000;     BAS[ATNO][  3].d[  5] =         0.059846927458;
  BAS[ATNO][  3].a[  6] =        32.948607070000;     BAS[ATNO][  3].d[  6] =         0.045305097852;
  BAS[ATNO][  3].a[  7] =       142.553580000000;     BAS[ATNO][  3].d[  7] =         0.017749576737;
  BAS[ATNO][  3].a[  8] =        44.163688010000;     BAS[ATNO][  3].d[  8] =         0.050005693838;
  BAS[ATNO][  3].a[  9] =         8.952499500000;     BAS[ATNO][  3].d[  9] =        -0.483570212992;
  BAS[ATNO][  3].a[ 10] =         4.554692090000;     BAS[ATNO][  3].d[ 10] =        -0.990716890625;
  BAS[ATNO][  3].a[ 11] =         2.144407900000;     BAS[ATNO][  3].d[ 11] =         2.514585085464;
  BAS[ATNO][  3].a[ 12] =         0.607087770000;     BAS[ATNO][  3].d[ 12] =        -1.507643081005;
  BAS[ATNO][  3].a[ 13] =         0.216514320000;     BAS[ATNO][  3].d[ 13] =        -0.197971779869;

  // Basis function   5 L = s
  InitBFNGauss(BAS[ATNO][  4]);
  BAS[ATNO][  4].l  = 0;
  BAS[ATNO][  4].ng = 14;
  BAS[ATNO][  4].a[  0] =     79111.422997999995;     BAS[ATNO][  4].d[  0] =        -0.000060961570;
  BAS[ATNO][  4].a[  1] =     11864.746009000000;     BAS[ATNO][  4].d[  1] =        -0.000405814497;
  BAS[ATNO][  4].a[  2] =      2700.164297300000;     BAS[ATNO][  4].d[  2] =        -0.001975290061;
  BAS[ATNO][  4].a[  3] =       763.959434850000;     BAS[ATNO][  4].d[  3] =        -0.007568388763;
  BAS[ATNO][  4].a[  4] =       248.451505610000;     BAS[ATNO][  4].d[  4] =        -0.021342436666;
  BAS[ATNO][  4].a[  5] =        88.283581000000;     BAS[ATNO][  4].d[  5] =        -0.038499005411;
  BAS[ATNO][  4].a[  6] =        32.948607070000;     BAS[ATNO][  4].d[  6] =        -0.029144373511;
  BAS[ATNO][  4].a[  7] =       142.553580000000;     BAS[ATNO][  4].d[  7] =        -0.010571018034;
  BAS[ATNO][  4].a[  8] =        44.163688010000;     BAS[ATNO][  4].d[  8] =        -0.036863452746;
  BAS[ATNO][  4].a[  9] =         8.952499500000;     BAS[ATNO][  4].d[  9] =         0.401516929698;
  BAS[ATNO][  4].a[ 10] =         4.554692090000;     BAS[ATNO][  4].d[ 10] =         0.568276605013;
  BAS[ATNO][  4].a[ 11] =         2.144407900000;     BAS[ATNO][  4].d[ 11] =        -2.071978988855;
  BAS[ATNO][  4].a[ 12] =         0.607087770000;     BAS[ATNO][  4].d[ 12] =         2.930068345904;
  BAS[ATNO][  4].a[ 13] =         0.216514320000;     BAS[ATNO][  4].d[ 13] =        -2.147203871818;

  // Basis function   6 L = s
  InitBFNGauss(BAS[ATNO][  5]);
  BAS[ATNO][  5].l  = 0;
  BAS[ATNO][  5].ng = 14;
  BAS[ATNO][  5].a[  0] =     79111.422997999995;     BAS[ATNO][  5].d[  0] =         0.000255547885;
  BAS[ATNO][  5].a[  1] =     11864.746009000000;     BAS[ATNO][  5].d[  1] =         0.001701154277;
  BAS[ATNO][  5].a[  2] =      2700.164297300000;     BAS[ATNO][  5].d[  2] =         0.008280318120;
  BAS[ATNO][  5].a[  3] =       763.959434850000;     BAS[ATNO][  5].d[  3] =         0.031726310914;
  BAS[ATNO][  5].a[  4] =       248.451505610000;     BAS[ATNO][  5].d[  4] =         0.089466437642;
  BAS[ATNO][  5].a[  5] =        88.283581000000;     BAS[ATNO][  5].d[  5] =         0.161385924241;
  BAS[ATNO][  5].a[  6] =        32.948607070000;     BAS[ATNO][  5].d[  6] =         0.122171770551;
  BAS[ATNO][  5].a[  7] =       142.553580000000;     BAS[ATNO][  5].d[  7] =        -0.000643832241;
  BAS[ATNO][  5].a[  8] =        44.163688010000;     BAS[ATNO][  5].d[  8] =         0.320522730590;
  BAS[ATNO][  5].a[  9] =         8.952499500000;     BAS[ATNO][  5].d[  9] =        -5.359091209746;
  BAS[ATNO][  5].a[ 10] =         4.554692090000;     BAS[ATNO][  5].d[ 10] =         9.218678795939;
  BAS[ATNO][  5].a[ 11] =         2.144407900000;     BAS[ATNO][  5].d[ 11] =        -5.954529800282;
  BAS[ATNO][  5].a[ 12] =         0.607087770000;     BAS[ATNO][  5].d[ 12] =         2.116233800604;
  BAS[ATNO][  5].a[ 13] =         0.216514320000;     BAS[ATNO][  5].d[ 13] =        -0.751168826564;

  // Basis function   7 L = s
  InitBFNGauss(BAS[ATNO][  6]);
  BAS[ATNO][  6].l  = 0;
  BAS[ATNO][  6].ng = 14;
  BAS[ATNO][  6].a[  0] =     79111.422997999995;     BAS[ATNO][  6].d[  0] =        -0.000519144119;
  BAS[ATNO][  6].a[  1] =     11864.746009000000;     BAS[ATNO][  6].d[  1] =        -0.003455885539;
  BAS[ATNO][  6].a[  2] =      2700.164297300000;     BAS[ATNO][  6].d[  2] =        -0.016821420629;
  BAS[ATNO][  6].a[  3] =       763.959434850000;     BAS[ATNO][  6].d[  3] =        -0.064451825783;
  BAS[ATNO][  6].a[  4] =       248.451505610000;     BAS[ATNO][  6].d[  4] =        -0.181750575033;
  BAS[ATNO][  6].a[  5] =        88.283581000000;     BAS[ATNO][  6].d[  5] =        -0.327854615719;
  BAS[ATNO][  6].a[  6] =        32.948607070000;     BAS[ATNO][  6].d[  6] =        -0.248191278602;
  BAS[ATNO][  6].a[  7] =       142.553580000000;     BAS[ATNO][  6].d[  7] =        -1.206511486484;
  BAS[ATNO][  6].a[  8] =        44.163688010000;     BAS[ATNO][  6].d[  8] =         2.978260100430;
  BAS[ATNO][  6].a[  9] =         8.952499500000;     BAS[ATNO][  6].d[  9] =        -3.709807742965;
  BAS[ATNO][  6].a[ 10] =         4.554692090000;     BAS[ATNO][  6].d[ 10] =         4.141077029619;
  BAS[ATNO][  6].a[ 11] =         2.144407900000;     BAS[ATNO][  6].d[ 11] =        -1.969184144318;
  BAS[ATNO][  6].a[ 12] =         0.607087770000;     BAS[ATNO][  6].d[ 12] =         0.549196684258;
  BAS[ATNO][  6].a[ 13] =         0.216514320000;     BAS[ATNO][  6].d[ 13] =        -0.179197788984;

  // Basis function   8 L = s
  InitBFNGauss(BAS[ATNO][  7]);
  BAS[ATNO][  7].l  = 0;
  BAS[ATNO][  7].ng = 14;
  BAS[ATNO][  7].a[  0] =     79111.422997999995;     BAS[ATNO][  7].d[  0] =        -0.006091700180;
  BAS[ATNO][  7].a[  1] =     11864.746009000000;     BAS[ATNO][  7].d[  1] =        -0.040551780857;
  BAS[ATNO][  7].a[  2] =      2700.164297300000;     BAS[ATNO][  7].d[  2] =        -0.197384593728;
  BAS[ATNO][  7].a[  3] =       763.959434850000;     BAS[ATNO][  7].d[  3] =        -0.756285555667;
  BAS[ATNO][  7].a[  4] =       248.451505610000;     BAS[ATNO][  7].d[  4] =        -2.132683333054;
  BAS[ATNO][  7].a[  5] =        88.283581000000;     BAS[ATNO][  7].d[  5] =        -3.847085900458;
  BAS[ATNO][  7].a[  6] =        32.948607070000;     BAS[ATNO][  7].d[  6] =        -2.912306622355;
  BAS[ATNO][  7].a[  7] =       142.553580000000;     BAS[ATNO][  7].d[  7] =         5.862619983897;
  BAS[ATNO][  7].a[  8] =        44.163688010000;     BAS[ATNO][  7].d[  8] =         2.805966899113;
  BAS[ATNO][  7].a[  9] =         8.952499500000;     BAS[ATNO][  7].d[  9] =         1.906005181199;
  BAS[ATNO][  7].a[ 10] =         4.554692090000;     BAS[ATNO][  7].d[ 10] =        -1.881567296046;
  BAS[ATNO][  7].a[ 11] =         2.144407900000;     BAS[ATNO][  7].d[ 11] =         0.855063440135;
  BAS[ATNO][  7].a[ 12] =         0.607087770000;     BAS[ATNO][  7].d[ 12] =        -0.234473350287;
  BAS[ATNO][  7].a[ 13] =         0.216514320000;     BAS[ATNO][  7].d[ 13] =         0.076234933117;

  // Basis function   9 L = p
  InitBFNGauss(BAS[ATNO][  8]);
  BAS[ATNO][  8].l  = 1;
  BAS[ATNO][  8].ng = 9;
  BAS[ATNO][  8].a[  0] =       776.775419980000;     BAS[ATNO][  8].d[  0] =         0.002761373836;
  BAS[ATNO][  8].a[  1] =       183.801070180000;     BAS[ATNO][  8].d[  1] =         0.020940671157;
  BAS[ATNO][  8].a[  2] =        58.694003170000;     BAS[ATNO][  8].d[  2] =         0.095926980704;
  BAS[ATNO][  8].a[  3] =        21.701591700000;     BAS[ATNO][  8].d[  3] =         0.278686146565;
  BAS[ATNO][  8].a[  4] =         8.582148960000;     BAS[ATNO][  8].d[  4] =         0.482360330673;
  BAS[ATNO][  8].a[  5] =         3.492267920000;     BAS[ATNO][  8].d[  5] =         0.390844999055;
  BAS[ATNO][  8].a[  6] =         1.263742700000;     BAS[ATNO][  8].d[  6] =        -0.222198989975;
  BAS[ATNO][  8].a[  7] =         0.466078700000;     BAS[ATNO][  8].d[  7] =         0.122337866897;
  BAS[ATNO][  8].a[  8] =         0.157660030000;     BAS[ATNO][  8].d[  8] =        -0.039045114930;

  // Basis function  10 L = p
  InitBFNGauss(BAS[ATNO][  9]);
  BAS[ATNO][  9].l  = 1;
  BAS[ATNO][  9].ng = 9;
  BAS[ATNO][  9].a[  0] =       776.775419980000;     BAS[ATNO][  9].d[  0] =        -0.001160721898;
  BAS[ATNO][  9].a[  1] =       183.801070180000;     BAS[ATNO][  9].d[  1] =        -0.008802247366;
  BAS[ATNO][  9].a[  2] =        58.694003170000;     BAS[ATNO][  9].d[  2] =        -0.040322156194;
  BAS[ATNO][  9].a[  3] =        21.701591700000;     BAS[ATNO][  9].d[  3] =        -0.117143542396;
  BAS[ATNO][  9].a[  4] =         8.582148960000;     BAS[ATNO][  9].d[  4] =        -0.202756392963;
  BAS[ATNO][  9].a[  5] =         3.492267920000;     BAS[ATNO][  9].d[  5] =        -0.164288638963;
  BAS[ATNO][  9].a[  6] =         1.263742700000;     BAS[ATNO][  9].d[  6] =         1.341675801521;
  BAS[ATNO][  9].a[  7] =         0.466078700000;     BAS[ATNO][  9].d[  7] =        -0.317120174507;
  BAS[ATNO][  9].a[  8] =         0.157660030000;     BAS[ATNO][  9].d[  8] =         0.098145518215;

  // Basis function  11 L = p
  InitBFNGauss(BAS[ATNO][ 10]);
  BAS[ATNO][ 10].l  = 1;
  BAS[ATNO][ 10].ng = 9;
  BAS[ATNO][ 10].a[  0] =       776.775419980000;     BAS[ATNO][ 10].d[  0] =         0.000538955798;
  BAS[ATNO][ 10].a[  1] =       183.801070180000;     BAS[ATNO][ 10].d[  1] =         0.004087130831;
  BAS[ATNO][ 10].a[  2] =        58.694003170000;     BAS[ATNO][ 10].d[  2] =         0.018722710337;
  BAS[ATNO][ 10].a[  3] =        21.701591700000;     BAS[ATNO][ 10].d[  3] =         0.054393038941;
  BAS[ATNO][ 10].a[  4] =         8.582148960000;     BAS[ATNO][ 10].d[  4] =         0.094145491526;
  BAS[ATNO][ 10].a[  5] =         3.492267920000;     BAS[ATNO][ 10].d[  5] =         0.076283832245;
  BAS[ATNO][ 10].a[  6] =         1.263742700000;     BAS[ATNO][ 10].d[  6] =        -1.192702994423;
  BAS[ATNO][ 10].a[  7] =         0.466078700000;     BAS[ATNO][ 10].d[  7] =         1.694158346242;
  BAS[ATNO][ 10].a[  8] =         0.157660030000;     BAS[ATNO][ 10].d[  8] =        -0.159436187742;

  // Basis function  12 L = p
  InitBFNGauss(BAS[ATNO][ 11]);
  BAS[ATNO][ 11].l  = 1;
  BAS[ATNO][ 11].ng = 9;
  BAS[ATNO][ 11].a[  0] =       776.775419980000;     BAS[ATNO][ 11].d[  0] =        -0.000236349727;
  BAS[ATNO][ 11].a[  1] =       183.801070180000;     BAS[ATNO][ 11].d[  1] =        -0.001792340407;
  BAS[ATNO][ 11].a[  2] =        58.694003170000;     BAS[ATNO][ 11].d[  2] =        -0.008210520205;
  BAS[ATNO][ 11].a[  3] =        21.701591700000;     BAS[ATNO][ 11].d[  3] =        -0.023853124746;
  BAS[ATNO][ 11].a[  4] =         8.582148960000;     BAS[ATNO][ 11].d[  4] =        -0.041285874026;
  BAS[ATNO][ 11].a[  5] =         3.492267920000;     BAS[ATNO][ 11].d[  5] =        -0.033452952842;
  BAS[ATNO][ 11].a[  6] =         1.263742700000;     BAS[ATNO][ 11].d[  6] =         0.657434370614;
  BAS[ATNO][ 11].a[  7] =         0.466078700000;     BAS[ATNO][ 11].d[  7] =        -1.541246734885;
  BAS[ATNO][ 11].a[  8] =         0.157660030000;     BAS[ATNO][ 11].d[  8] =         1.573455620799;

  // Basis function  13 L = d
  InitBFNGauss(BAS[ATNO][ 12]);
  BAS[ATNO][ 12].l  = 2;
  BAS[ATNO][ 12].ng = 3;
  BAS[ATNO][ 12].a[  0] =         5.551000000000;     BAS[ATNO][ 12].d[  0] =         0.200663619969;
  BAS[ATNO][ 12].a[  1] =         1.235000000000;     BAS[ATNO][ 12].d[  1] =         1.003318099845;
  BAS[ATNO][ 12].a[  2] =         0.412000000000;     BAS[ATNO][ 12].d[  2] =        -0.199109280692;

  // Basis function  14 L = d
  InitBFNGauss(BAS[ATNO][ 13]);
  BAS[ATNO][ 13].l  = 2;
  BAS[ATNO][ 13].ng = 3;
  BAS[ATNO][ 13].a[  0] =         5.551000000000;     BAS[ATNO][ 13].d[  0] =        -0.094599018699;
  BAS[ATNO][ 13].a[  1] =         1.235000000000;     BAS[ATNO][ 13].d[  1] =        -0.472995093495;
  BAS[ATNO][ 13].a[  2] =         0.412000000000;     BAS[ATNO][ 13].d[  2] =         1.199419074351;

  // Basis function  15 L = f
  InitBFNGauss(BAS[ATNO][ 14]);
  BAS[ATNO][ 14].l  = 3;
  BAS[ATNO][ 14].ng = 1;
  BAS[ATNO][ 14].a[  0] =         0.890000000000;     BAS[ATNO][ 14].d[  0] =         1.000000000000;

-------
TIMINGS
-------

Total SCF time: 0 days 0 hours 0 min 1 sec 

Total time                  ....       1.639 sec
Sum of individual times     ....       1.450 sec  ( 88.5%)

Fock matrix formation       ....       0.987 sec  ( 60.2%)
  XC integration            ....       0.022 sec  (  2.3% of F)
    Basis function eval.    ....       0.003 sec  ( 12.3% of XC)
    Density eval.           ....       0.001 sec  (  5.5% of XC)
    XC-Functional eval.     ....       0.002 sec  (  7.7% of XC)
    XC-Potential eval.      ....       0.001 sec  (  4.7% of XC)
Diagonalization             ....       0.001 sec  (  0.1%)
Density matrix formation    ....       0.001 sec  (  0.0%)
Population analysis         ....       0.001 sec  (  0.0%)
Initial guess               ....       0.083 sec  (  5.1%)
Orbital Transformation      ....       0.000 sec  (  0.0%)
Orbital Orthonormalization  ....       0.000 sec  (  0.0%)
DIIS solution               ....       0.000 sec  (  0.0%)
SOSCF solution              ....       0.001 sec  (  0.0%)
Grid generation             ....       0.377 sec  ( 23.0%)

-------------------------   --------------------
FINAL SINGLE POINT ENERGY      -322.537801131777
-------------------------   --------------------


                            ***************************************
                            *     ORCA property calculations      *
                            ***************************************

                                    ---------------------
                                    Active property flags
                                    ---------------------
   (+) Dipole Moment


------------------------------------------------------------------------------
                       ORCA ELECTRIC PROPERTIES CALCULATION
------------------------------------------------------------------------------

Dipole Moment Calculation                       ... on
Quadrupole Moment Calculation                   ... off
Polarizability Calculation                      ... off
GBWName                                         ... Ar_zora-def2-tzvp_68.5179945_.gbw
Electron density file                           ... Ar_zora-def2-tzvp_68.5179945_.scfp
The origin for moment calculation is the CENTER OF MASS  = ( 0.000000,  0.000000  0.000000)

-------------
DIPOLE MOMENT
-------------
                                X             Y             Z
Electronic contribution:      0.00000      -0.00000      -0.00000
Nuclear contribution   :      0.00000       0.00000       0.00000
                        -----------------------------------------
Total Dipole Moment    :      0.00000      -0.00000      -0.00000
                        -----------------------------------------
Magnitude (a.u.)       :      0.00000
Magnitude (Debye)      :      0.00000



--------------------
Rotational spectrum 
--------------------
 
Rotational constants in cm-1:     0.000000     0.000000     0.000000 
Rotational constants in MHz :     0.000000     0.000000     0.000000 

 Dipole components along the rotational axes: 
x,y,z [a.u.] :     0.000000    -0.000000    -0.000000 
x,y,z [Debye]:     0.000000    -0.000000    -0.000000 

 

Timings for individual modules:

Sum of individual times         ...        2.757 sec (=   0.046 min)
GTO integral calculation        ...        0.487 sec (=   0.008 min)  17.6 %
Relativistic integrals          ...        0.379 sec (=   0.006 min)  13.7 %
SCF iterations                  ...        1.892 sec (=   0.032 min)  68.6 %
                             ****ORCA TERMINATED NORMALLY****
TOTAL RUN TIME: 0 days 0 hours 0 minutes 3 seconds 73 msec
