
                                 *****************
                                 * O   R   C   A *
                                 *****************

           --- An Ab Initio, DFT and Semiempirical electronic structure package ---

                  #######################################################
                  #                        -***-                        #
                  #          Department of theory and spectroscopy      #
                  #               Directorship: Frank Neese             #
                  #        Max Planck Institute fuer Kohlenforschung    #
                  #                Kaiser Wilhelm Platz 1               #
                  #                 D-45470 Muelheim/Ruhr               #
                  #                      Germany                        #
                  #                                                     #
                  #                  All rights reserved                #
                  #                        -***-                        #
                  #######################################################


                         Program Version 4.2.1 -  RELEASE  -


 With contributions from (in alphabetic order):
   Daniel Aravena         : Magnetic Suceptibility
   Michael Atanasov       : Ab Initio Ligand Field Theory (pilot matlab implementation)
   Alexander A. Auer      : GIAO ZORA, VPT2
   Ute Becker             : Parallelization
   Giovanni Bistoni       : ED, misc. LED, open-shell LED, HFLD
   Martin Brehm           : Molecular dynamics
   Dmytro Bykov           : SCF Hessian
   Vijay G. Chilkuri      : MRCI spin determinant printing, contributions to CSF-ICE
   Dipayan Datta          : RHF DLPNO-CCSD density
   Achintya Kumar Dutta   : EOM-CC, STEOM-CC
   Dmitry Ganyushin       : Spin-Orbit,Spin-Spin,Magnetic field MRCI
   Miquel Garcia          : C-PCM Hessian, Gaussian charge scheme
   Yang Guo               : DLPNO-NEVPT2, CIM, IAO-localization
   Andreas Hansen         : Spin unrestricted coupled pair/coupled cluster methods
   Benjamin Helmich-Paris : CASSCF linear response (MC-RPA)
   Lee Huntington         : MR-EOM, pCC
   Robert Izsak           : Overlap fitted RIJCOSX, COSX-SCS-MP3, EOM
   Christian Kollmar      : KDIIS, OOCD, Brueckner-CCSD(T), CCSD density
   Simone Kossmann        : Meta GGA functionals, TD-DFT gradient, OOMP2, MP2 Hessian
   Martin Krupicka        : AUTO-CI
   Lucas Lang             : DCDCAS
   Dagmar Lenk            : GEPOL surface, SMD
   Dimitrios Liakos       : Extrapolation schemes; Compound Job, initial MDCI parallelization
   Dimitrios Manganas     : Further ROCIS development; embedding schemes
   Dimitrios Pantazis     : SARC Basis sets
   Taras Petrenko         : DFT Hessian,TD-DFT gradient, ASA, ECA, R-Raman, ABS, FL, XAS/XES, NRVS
   Peter Pinski           : DLPNO-MP2, DLPNO-MP2 Gradient
   Christoph Reimann      : Effective Core Potentials
   Marius Retegan         : Local ZFS, SOC
   Christoph Riplinger    : Optimizer, TS searches, QM/MM, DLPNO-CCSD(T), (RO)-DLPNO pert. Triples
   Tobias Risthaus        : Range-separated hybrids, TD-DFT gradient, RPA, STAB
   Michael Roemelt        : Original ROCIS implementation
   Masaaki Saitow         : Open-shell DLPNO-CCSD energy and density
   Barbara Sandhoefer     : DKH picture change effects
   Avijit Sen             : IP-ROCIS
   Kantharuban Sivalingam : CASSCF convergence, NEVPT2, FIC-MRCI
   Bernardo de Souza      : ESD, SOC TD-DFT
   Georgi Stoychev        : AutoAux, RI-MP2 NMR
   Willem Van den Heuvel  : Paramagnetic NMR
   Boris Wezisla          : Elementary symmetry handling
   Frank Wennmohs         : Technical directorship


 We gratefully acknowledge several colleagues who have allowed us to
 interface, adapt or use parts of their codes:
   Stefan Grimme, W. Hujo, H. Kruse,             : VdW corrections, initial TS optimization,
                  C. Bannwarth                     DFT functionals, gCP, sTDA/sTD-DF
   Ed Valeev, F. Pavosevic, A. Kumar             : LibInt (2-el integral package), F12 methods
   Garnet Chan, S. Sharma, J. Yang, R. Olivares  : DMRG
   Ulf Ekstrom                                   : XCFun DFT Library
   Mihaly Kallay                                 : mrcc  (arbitrary order and MRCC methods)
   Andreas Klamt, Michael Diedenhofen            : otool_cosmo (COSMO solvation model)
   Jiri Pittner, Ondrej Demel                    : Mk-CCSD
   Frank Weinhold                                : gennbo (NPA and NBO analysis)
   Christopher J. Cramer and Donald G. Truhlar   : smd solvation model
   Lars Goerigk                                  : TD-DFT with DH, B97 family of functionals
   V. Asgeirsson, H. Jonsson                     : NEB implementation
   FAccTs GmbH                                   : IRC, NEB, NEB-TS, Multilevel, MM, QM/MM, CI optimization
   S Lehtola, MJT Oliveira, MAL Marques          : LibXC Library


 Your calculation uses the libint2 library for the computation of 2-el integrals
 For citations please refer to: http://libint.valeyev.net

 Your ORCA version has been built with support for libXC version: 4.2.3
 For citations please refer to: https://tddft.org/programs/libxc/

 This ORCA versions uses:
   CBLAS   interface :  Fast vector & matrix operations
   LAPACKE interface :  Fast linear algebra routines
   SCALAPACK package :  Parallel linear algebra routines


----- Orbital basis set information -----
Your calculation utilizes the basis: ZORA-def2-QZVPP 
   Exponents from def2-QZVPP [F. Weigend and R. Ahlrichs, Phys. Chem. Chem. Phys. 7, 3297 (2005)],
   recontracted for ZORA by D. A. Pantazis.

================================================================================
                                        WARNINGS
                       Please study these warnings very carefully!
================================================================================


INFO   : the flag for use of LIBINT has been found!

================================================================================
                                       INPUT FILE
================================================================================
NAME = Ar_zora-def2-qzvpp_4385.151648_.inp
|  1> ! LDA zora-def2-qzvpp nori grid5 finalgrid6 verytightscf
|  2> %Pal NProcs 18 End
|  3> 
|  4> % REL
|  5>   Method ZORA
|  6>   ModelPot 1, 0, 0, 0
|  7>   velit 4385.151648
|  8> END
|  9> 
| 10> *xyz 16 1
| 11> Ar 0.0 0.0 0.0
| 12> **                         ****END OF INPUT****
================================================================================

                       ****************************
                       * Single Point Calculation *
                       ****************************

---------------------------------
CARTESIAN COORDINATES (ANGSTROEM)
---------------------------------
  Ar     0.000000    0.000000    0.000000

----------------------------
CARTESIAN COORDINATES (A.U.)
----------------------------
  NO LB      ZA    FRAG     MASS         X           Y           Z
   0 Ar   18.0000    0    39.948    0.000000    0.000000    0.000000

--------------------------------
INTERNAL COORDINATES (ANGSTROEM)
--------------------------------
 Ar     0   0   0     0.000000000000     0.00000000     0.00000000

---------------------------
INTERNAL COORDINATES (A.U.)
---------------------------
 Ar     0   0   0     0.000000000000     0.00000000     0.00000000

---------------------
BASIS SET INFORMATION
---------------------
There are 1 groups of distinct atoms

 Group   1 Type Ar  : 20s14p4d2f1g contracted to 11s7p4d2f1g pattern {101111111111/8111111/1111/11/1}

Atom   0Ar   basis set group =>   1


           ************************************************************
           *        Program running with 18 parallel MPI-processes    *
           *              working on a common directory               *
           ************************************************************
------------------------------------------------------------------------------
                           ORCA GTO INTEGRAL CALCULATION
------------------------------------------------------------------------------

                         BASIS SET STATISTICS AND STARTUP INFO

 # of primitive gaussian shells          ...   41
 # of primitive gaussian functions       ...  105
 # of contracted shells                  ...   25
 # of contracted basis functions         ...   75
 Highest angular momentum                ...    4
 Maximum contraction depth               ...   10
 Integral package used                   ... LIBINT
 Integral threshhold            Thresh   ...  1.000e-12
 Primitive cut-off              TCut     ...  1.000e-14


------------------------------ INTEGRAL EVALUATION ----------------------------


 * One electron integrals 
 Pre-screening matrix                    ... done
 Shell pair data                         ... done (   0.000 sec)



           ************************************************************
           *        Program running with 18 parallel MPI-processes    *
           *              working on a common directory               *
           ************************************************************
------------------------------------------------------------------------------
                          ORCA RELATIVISTIC HAMILTONIAN
------------------------------------------------------------------------------

Relativistic Method            ... ZORA(MP)
Treatment of potential         ... Van Wuellen
Nucleus model                  ... Point Nucleus
Speed of light used            ... 4385.15164800000002


            *************************************************
            *         ZERO ORDER REGULAR APPROXIMATION      *
            *                     ZORA(MP)                  *
            *            Programmed by FN according to      *
            *                   C. van Wuellen              *
            *       J. Chem. Phys. (1998) vol 109, 392-399  *
            *************************************************

Terms included in model potential: +V(e,N)
Basis function cutoff value   ... 1.000000e-12
Loading the fitted atomic densities  (DKH4)  ... done
Calculating the cutoffs                      ... done
Number of fit functions                      ... 15
Setting up the integration grid ... done


           ************************************************************
           *        Program running with 18 parallel MPI-processes    *
           *              working on a common directory               *
           ************************************************************
-------------------------------------------------------------------------------
                                 ORCA SCF
-------------------------------------------------------------------------------

------------
SCF SETTINGS
------------
Hamiltonian:
 Density Functional     Method          .... DFT(GTOs)
 Exchange Functional    Exchange        .... Slater
   X-Alpha parameter    XAlpha          ....  0.666667
 Correlation Functional Correlation     .... VWN-5
 Gradients option       PostSCFGGA      .... off
   Density functional embedding theory  .... OFF

Relativistic Settings:
 Scalar relativistic method             .... ZORA
 Speed of light used       Velit        ....       4385.15165
Orbital energies will be scaled


General Settings:
 Integral files         IntName         .... Ar_zora-def2-qzvpp_4385.151648_
 Hartree-Fock type      HFTyp           .... RHF
 Total Charge           Charge          ....   16
 Multiplicity           Mult            ....    1
 Number of Electrons    NEL             ....    2
 Basis Dimension        Dim             ....   75
 Nuclear Repulsion      ENuc            ....      0.0000000000 Eh

Convergence Acceleration:
 DIIS                   CNVDIIS         .... on
   Start iteration      DIISMaxIt       ....    12
   Startup error        DIISStart       ....  0.200000
   # of expansion vecs  DIISMaxEq       ....     5
   Bias factor          DIISBfac        ....   1.050
   Max. coefficient     DIISMaxC        ....  10.000
 Newton-Raphson         CNVNR           .... off
 SOSCF                  CNVSOSCF        .... on
   Start iteration      SOSCFMaxIt      ....   150
   Startup grad/error   SOSCFStart      ....  0.003300
 Level Shifting         CNVShift        .... on
   Level shift para.    LevelShift      ....    0.2500
   Turn off err/grad.   ShiftErr        ....    0.0010
 Zerner damping         CNVZerner       .... off
 Static damping         CNVDamp         .... on
   Fraction old density DampFac         ....    0.7000
   Max. Damping (<1)    DampMax         ....    0.9800
   Min. Damping (>=0)   DampMin         ....    0.0000
   Turn off err/grad.   DampErr         ....    0.1000
 Fernandez-Rico         CNVRico         .... off

SCF Procedure:
 Maximum # iterations   MaxIter         ....   125
 SCF integral mode      SCFMode         .... Direct
   Integral package                     .... LIBINT
 Reset frequency        DirectResetFreq ....    20
 Integral Threshold     Thresh          ....  1.000e-12 Eh
 Primitive CutOff       TCut            ....  1.000e-14 Eh

Convergence Tolerance:
 Convergence Check Mode ConvCheckMode   .... Total+1el-Energy
 Convergence forced     ConvForced      .... 0
 Energy Change          TolE            ....  1.000e-09 Eh
 1-El. energy change                    ....  1.000e-06 Eh
 Orbital Gradient       TolG            ....  2.000e-06
 Orbital Rotation angle TolX            ....  2.000e-06
 DIIS Error             TolErr          ....  1.000e-08


Diagonalization of the overlap matrix:
Smallest eigenvalue                        ... 5.724e-04
Time for diagonalization                   ...    0.002 sec
Threshold for overlap eigenvalues          ... 1.000e-08
Number of eigenvalues below threshold      ... 0
Time for construction of square roots      ...    0.001 sec
Total time needed                          ...    0.004 sec

-------------------
DFT GRID GENERATION
-------------------

General Integration Accuracy     IntAcc      ...  5.010
Radial Grid Type                 RadialGrid  ... Gauss-Chebyshev
Angular Grid (max. acc.)         AngularGrid ... Lebedev-434
Angular grid pruning method      GridPruning ... 3 (G Style)
Weight generation scheme         WeightScheme... Becke
Basis function cutoff            BFCut       ...    1.0000e-12
Integration weight cutoff        WCut        ...    1.0000e-14
Grids for H and He will be reduced by one unit

# of grid points (after initial pruning)     ...  11992 (   0.0 sec)
# of grid points (after weights+screening)   ...  11992 (   0.0 sec)
Grid point division into batches done        ...    0.1 sec
Reduced shell lists constructed in    0.1 sec

Total number of grid points                  ...    11992
Total number of batches                      ...      188
Average number of points per batch           ...       63
Average number of grid points per atom       ...    11992
Average number of shells per batch           ...     0.42 ( 1.67%)
Average number of basis functions per batch  ...     1.25 ( 1.67%)
Average number of large shells per batch     ...     0.42 (100.00%)
Average number of large basis fcns per batch ...     1.25 (100.00%)
Maximum spatial batch extension              ...  18.71, 18.71, 18.71 au
Average spatial batch extension              ...   0.97,  0.98,  0.97 au

Time for grid setup =    0.158 sec

------------------------------
INITIAL GUESS: MODEL POTENTIAL
------------------------------
Loading ZORA relativistic densities                ... done
Calculating cut-offs                               ... done
Setting up the integral package                    ... done
Initializing the effective Hamiltonian             ... done
Starting the Coulomb interaction                   ... done (   0.0 sec)
Reading the grid                                   ... done
Mapping shells                                     ... done
Starting the XC term evaluation                    ... done (   0.0 sec)
  promolecular density results
     # of electrons  =     18.000000116
     EX              =    -28.047870263
     EC              =     -1.433252902
     EX+EC           =    -29.481123164
Transforming the Hamiltonian                       ... done (   0.0 sec)
Diagonalizing the Hamiltonian                      ... done (   0.0 sec)
Back transforming the eigenvectors                 ... done (   0.0 sec)
Now organizing SCF variables                       ... done
                      ------------------
                      INITIAL GUESS DONE (   0.2 sec)
                      ------------------
--------------
SCF ITERATIONS
--------------
ITER       Energy         Delta-E        Max-DP      RMS-DP      [F,P]     Damp
               ***  Starting incremental Fock matrix formation  ***
  0   -311.4966750228   0.000000000000 0.00537908  0.00010770  2.7007942 0.7000
  1   -311.5074620186  -0.010786995809 0.00371261  0.00007486  1.8737061 0.7000
  2   -311.5149227955  -0.007460776860 0.00255619  0.00005191  1.2988737 0.7000
  3   -311.5201023443  -0.005179548846 0.00175985  0.00003599  0.9004561 0.7000
                      *** Initiating the SOSCF procedure ***
                      *** Re-Reading the Fockian *** 
                      *** Removing any level shift *** 
ITER      Energy       Delta-E        Grad      Rot      Max-DP    RMS-DP
  4   -311.52370752  -0.0036051751  0.003284  0.003284  0.004038  0.000083
               *** Restarting incremental Fock matrix formation ***
  5   -311.53205590  -0.0083483804  0.007572  0.000040  0.000156  0.000002
  6   -311.53205719  -0.0000012920  0.000219  0.000001  0.000005  0.000000
                  ***Gradient check signals convergence***
              ***Rediagonalizing the Fockian in SOSCF/NRSCF***

               *****************************************************
               *                     SUCCESS                       *
               *           SCF CONVERGED AFTER   7 CYCLES          *
               *****************************************************

Setting up the final grid:

General Integration Accuracy     IntAcc      ...  5.340
Radial Grid Type                 RadialGrid  ... Gauss-Chebyshev
Angular Grid (max. acc.)         AngularGrid ... Lebedev-590
Angular grid pruning method      GridPruning ... 3 (G Style)
Weight generation scheme         WeightScheme... Becke
Basis function cutoff            BFCut       ...    1.0000e-12
Integration weight cutoff        WCut        ...    1.0000e-14
Grids for H and He will be reduced by one unit

# of grid points (after initial pruning)     ...  18110 (   0.0 sec)
# of grid points (after weights+screening)   ...  18110 (   0.0 sec)
Grid point division into batches done        ...    0.2 sec
Reduced shell lists constructed in    0.2 sec

Total number of grid points                  ...    18110
Total number of batches                      ...      283
Average number of points per batch           ...       63
Average number of grid points per atom       ...    18110
Average number of shells per batch           ...     0.00 ( 0.00%)
Average number of basis functions per batch  ...     0.00 ( 0.00%)
Average number of large shells per batch     ...     0.00 ( -nan%)
Average number of large basis fcns per batch ...     0.00 ( -nan%)
Maximum spatial batch extension              ...  19.03, 19.03, 19.03 au
Average spatial batch extension              ...   0.84,  0.84,  0.80 au

Final grid set up in    0.2 sec
Final integration                            ... done (   0.0 sec)
Change in XC energy                          ...    -0.000001098
Integrated number of electrons               ...     2.000000012
Previous integrated no of electrons          ...     1.999999889

----------------
TOTAL SCF ENERGY
----------------

Total Energy       :         -311.53205829 Eh           -8477.21828 eV

Components:
Nuclear Repulsion  :            0.00000000 Eh               0.00000 eV
Electronic Energy  :         -311.53205829 Eh           -8477.21828 eV
One Electron Energy:         -323.84855896 Eh           -8812.36730 eV
Two Electron Energy:           12.31650067 Eh             335.14902 eV

Virial components:
Potential Energy   :         -622.87540083 Eh          -16949.30134 eV
Kinetic Energy     :          311.34334254 Eh            8472.08306 eV
Virial Ratio       :            2.00060613


DFT components:
N(Alpha)           :        1.000000005893 electrons
N(Beta)            :        1.000000005893 electrons
N(Total)           :        2.000000011786 electrons
E(X)               :       -9.433821121022 Eh       
E(C)               :       -0.236902290016 Eh       
E(XC)              :       -9.670723411038 Eh       
DFET-embed. en.    :        0.000000000000 Eh       

---------------
SCF CONVERGENCE
---------------

  Last Energy change         ...   -1.1362e-09  Tolerance :   1.0000e-09
  Last MAX-Density change    ...    2.7411e-10  Tolerance :   1.0000e-08
  Last RMS-Density change    ...    5.7215e-12  Tolerance :   1.0000e-09
  Last Orbital Gradient      ...    1.7681e-08  Tolerance :   2.0000e-06
  Last Orbital Rotation      ...    3.7508e-11  Tolerance :   2.0000e-06

================================================================================
                                        WARNING
Number of found core electrons (2) does not match given number of chemical core electrons (10)
================================================================================
             **** THE GBW FILE WAS UPDATED (Ar_zora-def2-qzvpp_4385.151648_.gbw) ****
             **** DENSITY FILE WAS UPDATED (Ar_zora-def2-qzvpp_4385.151648_.scfp) ****
             **** ENERGY FILE WAS UPDATED (Ar_zora-def2-qzvpp_4385.151648_.en.tmp) ****
             **** THE GBW FILE WAS UPDATED (Ar_zora-def2-qzvpp_4385.151648_.gbw) ****
             **** DENSITY FILE WAS UPDATED (Ar_zora-def2-qzvpp_4385.151648_.scfp) ****
----------------
ORBITAL ENERGIES
----------------

  NO   OCC          E(Eh)            E(eV) 
   0   2.0000    -146.354270     -3982.5022 
   1   0.0000     -34.112762      -928.2555 
   2   0.0000     -33.032911      -898.8712 
   3   0.0000     -33.032911      -898.8712 
   4   0.0000     -33.032911      -898.8712 
   5   0.0000     -14.790975      -402.4829 
   6   0.0000     -13.990591      -380.7033 
   7   0.0000     -13.990591      -380.7033 
   8   0.0000     -13.990591      -380.7033 
   9   0.0000     -13.990591      -380.7033 
  10   0.0000     -13.990591      -380.7033 
  11   0.0000     -13.958204      -379.8220 
  12   0.0000     -13.958204      -379.8220 
  13   0.0000     -13.958204      -379.8220 
  14   0.0000      -8.207073      -223.3258 
  15   0.0000      -7.849401      -213.5931 
  16   0.0000      -7.849401      -213.5931 
  17   0.0000      -7.849401      -213.5931 
  18   0.0000      -7.849401      -213.5931 
  19   0.0000      -7.849401      -213.5931 
  20   0.0000      -7.673477      -208.8059 
  21   0.0000      -7.673477      -208.8059 
  22   0.0000      -7.673477      -208.8059 
  23   0.0000      -7.504748      -204.2146 
  24   0.0000      -7.504748      -204.2146 
  25   0.0000      -7.504748      -204.2146 
  26   0.0000      -7.504748      -204.2146 
  27   0.0000      -7.504748      -204.2146 
  28   0.0000      -7.504748      -204.2146 
  29   0.0000      -7.504748      -204.2146 
  30   0.0000      -5.125984      -139.4851 
  31   0.0000      -4.986226      -135.6821 
  32   0.0000      -4.986226      -135.6821 
  33   0.0000      -4.986226      -135.6821 
  34   0.0000      -4.986226      -135.6821 
  35   0.0000      -4.986226      -135.6821 
  36   0.0000      -4.873625      -132.6181 
  37   0.0000      -4.873625      -132.6181 
  38   0.0000      -4.873625      -132.6181 
  39   0.0000      -4.873625      -132.6181 
  40   0.0000      -4.873625      -132.6181 
  41   0.0000      -4.873625      -132.6181 
  42   0.0000      -4.873625      -132.6181 
  43   0.0000      -4.873625      -132.6181 
  44   0.0000      -4.873625      -132.6181 
  45   0.0000      -4.855857      -132.1346 
  46   0.0000      -4.855857      -132.1346 
  47   0.0000      -4.855857      -132.1346 
  48   0.0000      -4.680734      -127.3692 
  49   0.0000      -4.680734      -127.3692 
  50   0.0000      -4.680734      -127.3692 
  51   0.0000      -4.680734      -127.3692 
  52   0.0000      -4.680734      -127.3692 
  53   0.0000      -4.680734      -127.3692 
  54   0.0000      -4.680734      -127.3692 
  55   0.0000      -3.273430       -89.0746 
  56   0.0000      -3.273430       -89.0746 
  57   0.0000      -3.273430       -89.0746 
  58   0.0000      -3.270218       -88.9872 
  59   0.0000      -2.641287       -71.8731 
  60   0.0000      -2.641287       -71.8731 
  61   0.0000      -2.641287       -71.8731 
  62   0.0000      -2.641287       -71.8731 
  63   0.0000      -2.641287       -71.8731 
  64   0.0000      12.389071       337.1238 
  65   0.0000      17.908314       487.3100 
  66   0.0000      17.908314       487.3100 
  67   0.0000      17.908314       487.3100 
  68   0.0000      77.355512      2104.9505 
  69   0.0000     212.908962      5793.5474 
  70   0.0000     212.908962      5793.5474 
  71   0.0000     212.908962      5793.5474 
  72   0.0000     292.418915      7957.1232 
  73   0.0000    1057.094372     28765.0003 
  74   0.0000    5342.392968    145373.9033 

                    ********************************
                    * MULLIKEN POPULATION ANALYSIS *
                    ********************************

-----------------------
MULLIKEN ATOMIC CHARGES
-----------------------
   0 Ar:   16.000000
Sum of atomic charges:   16.0000000

--------------------------------
MULLIKEN REDUCED ORBITAL CHARGES
--------------------------------
  0 Ars       :     2.000000  s :     2.000000
      pz      :     0.000000  p :     0.000000
      px      :     0.000000
      py      :     0.000000
      dz2     :     0.000000  d :     0.000000
      dxz     :     0.000000
      dyz     :     0.000000
      dx2y2   :     0.000000
      dxy     :     0.000000
      f0      :     0.000000  f :     0.000000
      f+1     :     0.000000
      f-1     :     0.000000
      f+2     :     0.000000
      f-2     :     0.000000
      f+3     :     0.000000
      f-3     :     0.000000
      g0      :     0.000000  g :     0.000000
      g+1     :     0.000000
      g-1     :     0.000000
      g+2     :     0.000000
      g-2     :     0.000000
      g+3     :     0.000000
      g-3     :     0.000000
      g+4     :     0.000000
      g-4     :     0.000000


                     *******************************
                     * LOEWDIN POPULATION ANALYSIS *
                     *******************************

----------------------
LOEWDIN ATOMIC CHARGES
----------------------
   0 Ar:   16.000000

-------------------------------
LOEWDIN REDUCED ORBITAL CHARGES
-------------------------------
  0 Ars       :     2.000000  s :     2.000000
      pz      :     0.000000  p :     0.000000
      px      :     0.000000
      py      :     0.000000
      dz2     :     0.000000  d :     0.000000
      dxz     :     0.000000
      dyz     :     0.000000
      dx2y2   :     0.000000
      dxy     :     0.000000
      f0      :     0.000000  f :     0.000000
      f+1     :     0.000000
      f-1     :     0.000000
      f+2     :     0.000000
      f-2     :     0.000000
      f+3     :     0.000000
      f-3     :     0.000000
      g0      :     0.000000  g :     0.000000
      g+1     :     0.000000
      g-1     :     0.000000
      g+2     :     0.000000
      g-2     :     0.000000
      g+3     :     0.000000
      g-3     :     0.000000
      g+4     :     0.000000
      g-4     :     0.000000


                      *****************************
                      * MAYER POPULATION ANALYSIS *
                      *****************************

  NA   - Mulliken gross atomic population
  ZA   - Total nuclear charge
  QA   - Mulliken gross atomic charge
  VA   - Mayer's total valence
  BVA  - Mayer's bonded valence
  FA   - Mayer's free valence

  ATOM       NA         ZA         QA         VA         BVA        FA
  0 Ar     2.0000    18.0000    16.0000    -0.0000     0.0000    -0.0000

  Mayer bond orders larger than 0.100000


--------------------------
ATOM BASIS FOR ELEMENT Ar
--------------------------
 NewGTO Ar
 S 20
    1    1673421.949400000041         0.000023307753
    2     250601.753729999997         0.000120386874
    3      57030.912120000001         0.000531180415
    4      16153.303915000000         0.002049489809
    5       5269.410928800000         0.007053848948
    6       1902.031554100000         0.021883091864
    7        741.576771590000         0.060148471620
    8        307.209019060000         0.142376905099
    9        133.527862030000         0.264660627575
   10         60.253381291000         0.307745297023
   11        522.024262060000         0.007953672485
   12        161.512904690000         0.022980974734
   13         62.126369433000         0.066152348736
   14         27.590930012000         0.221881466675
   15         11.175528881000         0.025759676486
   16          5.295906513700        -0.004166033977
   17          2.478279889500         0.001553906775
   18          0.912620950600        -0.000607724704
   19          0.404260675500         0.000298232398
   20          0.165628863100        -0.000077942752
 S 20
    1    1673421.949400000041         0.000007996071
    2     250601.753729999997         0.000041300504
    3      57030.912120000001         0.000182229327
    4      16153.303915000000         0.000703107903
    5       5269.410928800000         0.002419927594
    6       1902.031554100000         0.007507319512
    7        741.576771590000         0.020634826076
    8        307.209019060000         0.048844510839
    9        133.527862030000         0.090795757102
   10         60.253381291000         0.105576592536
   11        522.024262060000         0.005560043564
   12        161.512904690000         0.033719431404
   13         62.126369433000         0.123602580433
   14         27.590930012000         0.172573254700
   15         11.175528881000        -0.400833080917
   16          5.295906513700        -0.677356746859
   17          2.478279889500        -0.124569433331
   18          0.912620950600         0.002747073299
   19          0.404260675500        -0.000838893391
   20          0.165628863100         0.000156975321
 S 20
    1    1673421.949400000041        -0.000004254906
    2     250601.753729999997        -0.000021977017
    3      57030.912120000001        -0.000096968718
    4      16153.303915000000        -0.000374141051
    5       5269.410928800000        -0.001287703137
    6       1902.031554100000        -0.003994829809
    7        741.576771590000        -0.010980299718
    8        307.209019060000        -0.025991368505
    9        133.527862030000        -0.048314660971
   10         60.253381291000        -0.056179907935
   11        522.024262060000        -0.003584887507
   12        161.512904690000        -0.019355490566
   13         62.126369433000        -0.087101349626
   14         27.590930012000        -0.091456321197
   15         11.175528881000         0.306659918730
   16          5.295906513700         1.147710933713
   17          2.478279889500        -0.945378796006
   18          0.912620950600        -0.873493660874
   19          0.404260675500         0.177806319187
   20          0.165628863100        -0.041293818365
 S 20
    1    1673421.949400000041        -0.000002742115
    2     250601.753729999997        -0.000014163298
    3      57030.912120000001        -0.000062492417
    4      16153.303915000000        -0.000241118776
    5       5269.410928800000        -0.000829872593
    6       1902.031554100000        -0.002574506248
    7        741.576771590000        -0.007076359087
    8        307.209019060000        -0.016750385822
    9        133.527862030000        -0.031136844987
   10         60.253381291000        -0.036205678558
   11        522.024262060000        -0.002920379046
   12        161.512904690000        -0.011020237167
   13         62.126369433000        -0.071807368364
   14         27.590930012000        -0.029789918420
   15         11.175528881000         0.129690810772
   16          5.295906513700         1.376895496823
   17          2.478279889500        -2.062939405373
   18          0.912620950600        -0.280798100334
   19          0.404260675500         1.669294583191
   20          0.165628863100        -0.191169798253
 S 20
    1    1673421.949400000041         0.000002046679
    2     250601.753729999997         0.000010571303
    3      57030.912120000001         0.000046643532
    4      16153.303915000000         0.000179967939
    5       5269.410928800000         0.000619406181
    6       1902.031554100000         0.001921578200
    7        741.576771590000         0.005281702995
    8        307.209019060000         0.012502271560
    9        133.527862030000         0.023240138806
   10         60.253381291000         0.027023450693
   11        522.024262060000         0.002801416745
   12        161.512904690000         0.006174253088
   13         62.126369433000         0.068489121113
   14         27.590930012000        -0.014311017946
   15         11.175528881000         0.017841629639
   16          5.295906513700        -1.580814650415
   17          2.478279889500         2.980186731320
   18          0.912620950600        -2.068939029054
   19          0.404260675500        -0.602230358273
   20          0.165628863100         1.603609625031
 S 20
    1    1673421.949400000041         0.000002591016
    2     250601.753729999997         0.000013382857
    3      57030.912120000001         0.000059048893
    4      16153.303915000000         0.000227832393
    5       5269.410928800000         0.000784144072
    6       1902.031554100000         0.002432643071
    7        741.576771590000         0.006686430036
    8        307.209019060000         0.015827388279
    9        133.527862030000         0.029421109498
   10         60.253381291000         0.034210634820
   11        522.024262060000         0.004151306943
   12        161.512904690000         0.005750457816
   13         62.126369433000         0.101239973136
   14         27.590930012000        -0.055436483882
   15         11.175528881000         0.147512242258
   16          5.295906513700        -2.592395965255
   17          2.478279889500         5.515859158983
   18          0.912620950600        -7.378687339219
   19          0.404260675500         6.595697938328
   20          0.165628863100        -2.658527120309
 S 20
    1    1673421.949400000041        -0.000008542660
    2     250601.753729999997        -0.000044123691
    3      57030.912120000001        -0.000194686010
    4      16153.303915000000        -0.000751170379
    5       5269.410928800000        -0.002585347028
    6       1902.031554100000        -0.008020498728
    7        741.576771590000        -0.022045364663
    8        307.209019060000        -0.052183384016
    9        133.527862030000        -0.097002299306
   10         60.253381291000        -0.112793511017
   11        522.024262060000         0.013588455800
   12        161.512904690000        -0.129479502968
   13         62.126369433000         0.295358994547
   14         27.590930012000        -1.784978966712
   15         11.175528881000         7.440198246085
   16          5.295906513700       -11.382454366519
   17          2.478279889500         8.627952176080
   18          0.912620950600        -4.756549330667
   19          0.404260675500         2.560665672993
   20          0.165628863100        -0.696780874876
 S 20
    1    1673421.949400000041        -0.000010382958
    2     250601.753729999997        -0.000053629016
    3      57030.912120000001        -0.000236626152
    4      16153.303915000000        -0.000912990904
    5       5269.410928800000        -0.003142294193
    6       1902.031554100000        -0.009748310887
    7        741.576771590000        -0.026794476959
    8        307.209019060000        -0.063424964931
    9        133.527862030000        -0.117898973930
   10         60.253381291000        -0.137091999982
   11        522.024262060000        -0.102618851638
   12        161.512904690000         0.277354692250
   13         62.126369433000        -2.992854727565
   14         27.590930012000         7.616583244801
   15         11.175528881000        -9.746882566566
   16          5.295906513700         8.491445079990
   17          2.478279889500        -4.642022638666
   18          0.912620950600         2.114808481568
   19          0.404260675500        -1.075613622842
   20          0.165628863100         0.285289188846
 S 20
    1    1673421.949400000041        -0.000041493299
    2     250601.753729999997        -0.000214317035
    3      57030.912120000001        -0.000945626443
    4      16153.303915000000        -0.003648575328
    5       5269.410928800000        -0.012557515106
    6       1902.031554100000        -0.038957065666
    7        741.576771590000        -0.107078468304
    8        307.209019060000        -0.253464477306
    9        133.527862030000        -0.471158349628
   10         60.253381291000        -0.547859224773
   11        522.024262060000         0.287551743944
   12        161.512904690000        -2.395613609713
   13         62.126369433000         7.502156783101
   14         27.590930012000        -7.423306613033
   15         11.175528881000         5.986206029024
   16          5.295906513700        -4.438190230732
   17          2.478279889500         2.294649370690
   18          0.912620950600        -1.032085559168
   19          0.404260675500         0.525251579575
   20          0.165628863100        -0.139440139891
 S 20
    1    1673421.949400000041        -0.000006870797
    2     250601.753729999997        -0.000035488354
    3      57030.912120000001        -0.000156584500
    4      16153.303915000000        -0.000604160712
    5       5269.410928800000        -0.002079375259
    6       1902.031554100000        -0.006450827081
    7        741.576771590000        -0.017730921756
    8        307.209019060000        -0.041970705093
    9        133.527862030000        -0.078018223123
   10         60.253381291000        -0.090718976481
   11        522.024262060000         2.220748503215
   12        161.512904690000        -4.151788204891
   13         62.126369433000         4.967295505091
   14         27.590930012000        -4.005223984441
   15         11.175528881000         2.934357307142
   16          5.295906513700        -2.152379908703
   17          2.478279889500         1.119472453097
   18          0.912620950600        -0.507921297016
   19          0.404260675500         0.259499898173
   20          0.165628863100        -0.069020120965
 S 20
    1    1673421.949400000041        -0.001097168081
    2     250601.753729999997        -0.005666982797
    3      57030.912120000001        -0.025004306239
    4      16153.303915000000        -0.096475828866
    5       5269.410928800000        -0.332046502898
    6       1902.031554100000        -1.030104866139
    7        741.576771590000        -2.831374729426
    8        307.209019060000        -6.702121605014
    9        133.527862030000       -12.458394911923
   10         60.253381291000       -14.486523657625
   11        522.024262060000         8.038026394571
   12        161.512904690000        12.096887819630
   13         62.126369433000        18.318933771829
   14         27.590930012000        -1.843497441702
   15         11.175528881000         1.390978838438
   16          5.295906513700        -1.030368456669
   17          2.478279889500         0.539726032090
   18          0.912620950600        -0.246157689405
   19          0.404260675500         0.126005067754
   20          0.165628863100        -0.033544030076
 P 14
    1       2868.450458100000         0.000422772802
    2        679.718695900000         0.003158751503
    3        220.367588240000         0.016571998679
    4         83.620439734000         0.064312959309
    5         34.964322657000         0.188322703349
    6         15.525131784000         0.391346151977
    7          7.099297980600         0.540954569562
    8          3.302133660200         0.401143274876
    9        128.787656670000        -0.005454198365
   10          8.435786797700        -0.245886205733
   11          1.461866185500        -0.356690622528
   12          0.646580101000         0.253670541939
   13          0.272292957500        -0.123923514300
   14          0.109051824500         0.037375906897
 P 14
    1       2868.450458100000         0.000249174342
    2        679.718695900000         0.001861708759
    3        220.367588240000         0.009767224507
    4         83.620439734000         0.037904849283
    5         34.964322657000         0.110993861326
    6         15.525131784000         0.230652065579
    7          7.099297980600         0.318828454614
    8          3.302133660200         0.236426305652
    9        128.787656670000        -0.008639847399
   10          8.435786797700        -0.258164945208
   11          1.461866185500        -1.551897283603
   12          0.646580101000         0.549820614964
   13          0.272292957500        -0.280929048826
   14          0.109051824500         0.083784600025
 P 14
    1       2868.450458100000         0.000153613919
    2        679.718695900000         0.001147728037
    3        220.367588240000         0.006021413048
    4         83.620439734000         0.023368025778
    5         34.964322657000         0.068426796616
    6         15.525131784000         0.142195088916
    7          7.099297980600         0.196555102765
    8          3.302133660200         0.145754860118
    9        128.787656670000        -0.006748837418
   10          8.435786797700        -0.199606008093
   11          1.461866185500        -1.647352325728
   12          0.646580101000         2.019382398849
   13          0.272292957500        -0.202491373672
   14          0.109051824500         0.082522694859
 P 14
    1       2868.450458100000         0.000098696336
    2        679.718695900000         0.000737410725
    3        220.367588240000         0.003868734072
    4         83.620439734000         0.015013864154
    5         34.964322657000         0.043963946232
    6         15.525131784000         0.091359782319
    7          7.099297980600         0.126285876251
    8          3.302133660200         0.093646921239
    9        128.787656670000        -0.004750774041
   10          8.435786797700        -0.142077439928
   11          1.461866185500        -1.339499371403
   12          0.646580101000         2.760982223870
   13          0.272292957500        -2.173561579967
   14          0.109051824500         0.083923916183
 P 14
    1       2868.450458100000         0.000054352527
    2        679.718695900000         0.000406095486
    3        220.367588240000         0.002130529690
    4         83.620439734000         0.008268204212
    5         34.964322657000         0.024211147888
    6         15.525131784000         0.050312253342
    7          7.099297980600         0.069546214299
    8          3.302133660200         0.051571791290
    9        128.787656670000        -0.002649877249
   10          8.435786797700        -0.082393089645
   11          1.461866185500        -0.807525082304
   12          0.646580101000         2.084370178349
   13          0.272292957500        -2.877438457519
   14          0.109051824500         2.025278679130
 P 14
    1       2868.450458100000        -0.001483479624
    2        679.718695900000        -0.011083833845
    3        220.367588240000        -0.058149961989
    4         83.620439734000        -0.225669589506
    5         34.964322657000        -0.660810940996
    6         15.525131784000        -1.373205749194
    7          7.099297980600        -1.898171021287
    8          3.302133660200        -1.407583155033
    9        128.787656670000         0.130336876338
   10          8.435786797700         4.661356504241
   11          1.461866185500         0.495281265560
   12          0.646580101000         0.019813333048
   13          0.272292957500        -0.092133288760
   14          0.109051824500         0.038466711820
 P 14
    1       2868.450458100000        -0.001333924102
    2        679.718695900000        -0.009966428164
    3        220.367588240000        -0.052287631431
    4         83.620439734000        -0.202918934385
    5         34.964322657000        -0.594191943498
    6         15.525131784000        -1.234767377953
    7          7.099297980600        -1.706808798490
    8          3.302133660200        -1.265679059828
    9        128.787656670000         1.437750919119
   10          8.435786797700         3.517645732473
   11          1.461866185500         1.178456297152
   12          0.646580101000        -0.748363427366
   13          0.272292957500         0.349898529141
   14          0.109051824500        -0.104207197987
 D 4
    1          6.315000000000         0.620446047319
    2          1.562000000000         0.655144732294
    3          0.715000000000        -0.194791672722
    4          0.297000000000         0.063841282826
 D 4
    1          6.315000000000         0.521520569083
    2          1.562000000000        -0.030446067210
    3          0.715000000000        -0.962713378318
    4          0.297000000000         0.044079371790
 D 4
    1          6.315000000000         0.423347993469
    2          1.562000000000        -0.482178550674
    3          0.715000000000        -0.410286110798
    4          0.297000000000         1.181839766491
 D 4
    1          6.315000000000         0.778867283417
    2          1.562000000000        -1.960308777179
    3          0.715000000000         2.378232284973
    4          0.297000000000        -1.204916599894
 F 2
    1          0.543000000000         0.135362245838
    2          1.325000000000         0.906929018989
 F 2
    1          0.543000000000        -1.306288201794
    2          1.325000000000         0.949837648370
 G 1
    1          1.007000000000         1.000000000000
 end
  // -----------------------------------------------
  // The basis set
  // -----------------------------------------------
  BAS[ATNO] = new BFNGauss[NSH];
  // Basis function   1 L = s
  InitBFNGauss(BAS[ATNO][  0]);
  BAS[ATNO][  0].l  = 0;
  BAS[ATNO][  0].ng = 20;
  BAS[ATNO][  0].a[  0] =   1673421.949400000041;     BAS[ATNO][  0].d[  0] =         0.000023307753;
  BAS[ATNO][  0].a[  1] =    250601.753729999997;     BAS[ATNO][  0].d[  1] =         0.000120386874;
  BAS[ATNO][  0].a[  2] =     57030.912120000001;     BAS[ATNO][  0].d[  2] =         0.000531180415;
  BAS[ATNO][  0].a[  3] =     16153.303915000000;     BAS[ATNO][  0].d[  3] =         0.002049489809;
  BAS[ATNO][  0].a[  4] =      5269.410928800000;     BAS[ATNO][  0].d[  4] =         0.007053848948;
  BAS[ATNO][  0].a[  5] =      1902.031554100000;     BAS[ATNO][  0].d[  5] =         0.021883091864;
  BAS[ATNO][  0].a[  6] =       741.576771590000;     BAS[ATNO][  0].d[  6] =         0.060148471620;
  BAS[ATNO][  0].a[  7] =       307.209019060000;     BAS[ATNO][  0].d[  7] =         0.142376905099;
  BAS[ATNO][  0].a[  8] =       133.527862030000;     BAS[ATNO][  0].d[  8] =         0.264660627575;
  BAS[ATNO][  0].a[  9] =        60.253381291000;     BAS[ATNO][  0].d[  9] =         0.307745297023;
  BAS[ATNO][  0].a[ 10] =       522.024262060000;     BAS[ATNO][  0].d[ 10] =         0.007953672485;
  BAS[ATNO][  0].a[ 11] =       161.512904690000;     BAS[ATNO][  0].d[ 11] =         0.022980974734;
  BAS[ATNO][  0].a[ 12] =        62.126369433000;     BAS[ATNO][  0].d[ 12] =         0.066152348736;
  BAS[ATNO][  0].a[ 13] =        27.590930012000;     BAS[ATNO][  0].d[ 13] =         0.221881466675;
  BAS[ATNO][  0].a[ 14] =        11.175528881000;     BAS[ATNO][  0].d[ 14] =         0.025759676486;
  BAS[ATNO][  0].a[ 15] =         5.295906513700;     BAS[ATNO][  0].d[ 15] =        -0.004166033977;
  BAS[ATNO][  0].a[ 16] =         2.478279889500;     BAS[ATNO][  0].d[ 16] =         0.001553906775;
  BAS[ATNO][  0].a[ 17] =         0.912620950600;     BAS[ATNO][  0].d[ 17] =        -0.000607724704;
  BAS[ATNO][  0].a[ 18] =         0.404260675500;     BAS[ATNO][  0].d[ 18] =         0.000298232398;
  BAS[ATNO][  0].a[ 19] =         0.165628863100;     BAS[ATNO][  0].d[ 19] =        -0.000077942752;

  // Basis function   2 L = s
  InitBFNGauss(BAS[ATNO][  1]);
  BAS[ATNO][  1].l  = 0;
  BAS[ATNO][  1].ng = 20;
  BAS[ATNO][  1].a[  0] =   1673421.949400000041;     BAS[ATNO][  1].d[  0] =        -0.000007996071;
  BAS[ATNO][  1].a[  1] =    250601.753729999997;     BAS[ATNO][  1].d[  1] =        -0.000041300504;
  BAS[ATNO][  1].a[  2] =     57030.912120000001;     BAS[ATNO][  1].d[  2] =        -0.000182229327;
  BAS[ATNO][  1].a[  3] =     16153.303915000000;     BAS[ATNO][  1].d[  3] =        -0.000703107903;
  BAS[ATNO][  1].a[  4] =      5269.410928800000;     BAS[ATNO][  1].d[  4] =        -0.002419927594;
  BAS[ATNO][  1].a[  5] =      1902.031554100000;     BAS[ATNO][  1].d[  5] =        -0.007507319512;
  BAS[ATNO][  1].a[  6] =       741.576771590000;     BAS[ATNO][  1].d[  6] =        -0.020634826076;
  BAS[ATNO][  1].a[  7] =       307.209019060000;     BAS[ATNO][  1].d[  7] =        -0.048844510839;
  BAS[ATNO][  1].a[  8] =       133.527862030000;     BAS[ATNO][  1].d[  8] =        -0.090795757102;
  BAS[ATNO][  1].a[  9] =        60.253381291000;     BAS[ATNO][  1].d[  9] =        -0.105576592536;
  BAS[ATNO][  1].a[ 10] =       522.024262060000;     BAS[ATNO][  1].d[ 10] =        -0.005560043564;
  BAS[ATNO][  1].a[ 11] =       161.512904690000;     BAS[ATNO][  1].d[ 11] =        -0.033719431404;
  BAS[ATNO][  1].a[ 12] =        62.126369433000;     BAS[ATNO][  1].d[ 12] =        -0.123602580433;
  BAS[ATNO][  1].a[ 13] =        27.590930012000;     BAS[ATNO][  1].d[ 13] =        -0.172573254700;
  BAS[ATNO][  1].a[ 14] =        11.175528881000;     BAS[ATNO][  1].d[ 14] =         0.400833080917;
  BAS[ATNO][  1].a[ 15] =         5.295906513700;     BAS[ATNO][  1].d[ 15] =         0.677356746859;
  BAS[ATNO][  1].a[ 16] =         2.478279889500;     BAS[ATNO][  1].d[ 16] =         0.124569433331;
  BAS[ATNO][  1].a[ 17] =         0.912620950600;     BAS[ATNO][  1].d[ 17] =        -0.002747073299;
  BAS[ATNO][  1].a[ 18] =         0.404260675500;     BAS[ATNO][  1].d[ 18] =         0.000838893391;
  BAS[ATNO][  1].a[ 19] =         0.165628863100;     BAS[ATNO][  1].d[ 19] =        -0.000156975321;

  // Basis function   3 L = s
  InitBFNGauss(BAS[ATNO][  2]);
  BAS[ATNO][  2].l  = 0;
  BAS[ATNO][  2].ng = 20;
  BAS[ATNO][  2].a[  0] =   1673421.949400000041;     BAS[ATNO][  2].d[  0] =        -0.000004254906;
  BAS[ATNO][  2].a[  1] =    250601.753729999997;     BAS[ATNO][  2].d[  1] =        -0.000021977017;
  BAS[ATNO][  2].a[  2] =     57030.912120000001;     BAS[ATNO][  2].d[  2] =        -0.000096968718;
  BAS[ATNO][  2].a[  3] =     16153.303915000000;     BAS[ATNO][  2].d[  3] =        -0.000374141051;
  BAS[ATNO][  2].a[  4] =      5269.410928800000;     BAS[ATNO][  2].d[  4] =        -0.001287703137;
  BAS[ATNO][  2].a[  5] =      1902.031554100000;     BAS[ATNO][  2].d[  5] =        -0.003994829809;
  BAS[ATNO][  2].a[  6] =       741.576771590000;     BAS[ATNO][  2].d[  6] =        -0.010980299718;
  BAS[ATNO][  2].a[  7] =       307.209019060000;     BAS[ATNO][  2].d[  7] =        -0.025991368505;
  BAS[ATNO][  2].a[  8] =       133.527862030000;     BAS[ATNO][  2].d[  8] =        -0.048314660971;
  BAS[ATNO][  2].a[  9] =        60.253381291000;     BAS[ATNO][  2].d[  9] =        -0.056179907935;
  BAS[ATNO][  2].a[ 10] =       522.024262060000;     BAS[ATNO][  2].d[ 10] =        -0.003584887507;
  BAS[ATNO][  2].a[ 11] =       161.512904690000;     BAS[ATNO][  2].d[ 11] =        -0.019355490566;
  BAS[ATNO][  2].a[ 12] =        62.126369433000;     BAS[ATNO][  2].d[ 12] =        -0.087101349626;
  BAS[ATNO][  2].a[ 13] =        27.590930012000;     BAS[ATNO][  2].d[ 13] =        -0.091456321197;
  BAS[ATNO][  2].a[ 14] =        11.175528881000;     BAS[ATNO][  2].d[ 14] =         0.306659918730;
  BAS[ATNO][  2].a[ 15] =         5.295906513700;     BAS[ATNO][  2].d[ 15] =         1.147710933713;
  BAS[ATNO][  2].a[ 16] =         2.478279889500;     BAS[ATNO][  2].d[ 16] =        -0.945378796006;
  BAS[ATNO][  2].a[ 17] =         0.912620950600;     BAS[ATNO][  2].d[ 17] =        -0.873493660874;
  BAS[ATNO][  2].a[ 18] =         0.404260675500;     BAS[ATNO][  2].d[ 18] =         0.177806319187;
  BAS[ATNO][  2].a[ 19] =         0.165628863100;     BAS[ATNO][  2].d[ 19] =        -0.041293818365;

  // Basis function   4 L = s
  InitBFNGauss(BAS[ATNO][  3]);
  BAS[ATNO][  3].l  = 0;
  BAS[ATNO][  3].ng = 20;
  BAS[ATNO][  3].a[  0] =   1673421.949400000041;     BAS[ATNO][  3].d[  0] =         0.000002742115;
  BAS[ATNO][  3].a[  1] =    250601.753729999997;     BAS[ATNO][  3].d[  1] =         0.000014163298;
  BAS[ATNO][  3].a[  2] =     57030.912120000001;     BAS[ATNO][  3].d[  2] =         0.000062492417;
  BAS[ATNO][  3].a[  3] =     16153.303915000000;     BAS[ATNO][  3].d[  3] =         0.000241118776;
  BAS[ATNO][  3].a[  4] =      5269.410928800000;     BAS[ATNO][  3].d[  4] =         0.000829872593;
  BAS[ATNO][  3].a[  5] =      1902.031554100000;     BAS[ATNO][  3].d[  5] =         0.002574506248;
  BAS[ATNO][  3].a[  6] =       741.576771590000;     BAS[ATNO][  3].d[  6] =         0.007076359087;
  BAS[ATNO][  3].a[  7] =       307.209019060000;     BAS[ATNO][  3].d[  7] =         0.016750385822;
  BAS[ATNO][  3].a[  8] =       133.527862030000;     BAS[ATNO][  3].d[  8] =         0.031136844987;
  BAS[ATNO][  3].a[  9] =        60.253381291000;     BAS[ATNO][  3].d[  9] =         0.036205678558;
  BAS[ATNO][  3].a[ 10] =       522.024262060000;     BAS[ATNO][  3].d[ 10] =         0.002920379046;
  BAS[ATNO][  3].a[ 11] =       161.512904690000;     BAS[ATNO][  3].d[ 11] =         0.011020237167;
  BAS[ATNO][  3].a[ 12] =        62.126369433000;     BAS[ATNO][  3].d[ 12] =         0.071807368364;
  BAS[ATNO][  3].a[ 13] =        27.590930012000;     BAS[ATNO][  3].d[ 13] =         0.029789918420;
  BAS[ATNO][  3].a[ 14] =        11.175528881000;     BAS[ATNO][  3].d[ 14] =        -0.129690810772;
  BAS[ATNO][  3].a[ 15] =         5.295906513700;     BAS[ATNO][  3].d[ 15] =        -1.376895496823;
  BAS[ATNO][  3].a[ 16] =         2.478279889500;     BAS[ATNO][  3].d[ 16] =         2.062939405373;
  BAS[ATNO][  3].a[ 17] =         0.912620950600;     BAS[ATNO][  3].d[ 17] =         0.280798100334;
  BAS[ATNO][  3].a[ 18] =         0.404260675500;     BAS[ATNO][  3].d[ 18] =        -1.669294583191;
  BAS[ATNO][  3].a[ 19] =         0.165628863100;     BAS[ATNO][  3].d[ 19] =         0.191169798253;

  // Basis function   5 L = s
  InitBFNGauss(BAS[ATNO][  4]);
  BAS[ATNO][  4].l  = 0;
  BAS[ATNO][  4].ng = 20;
  BAS[ATNO][  4].a[  0] =   1673421.949400000041;     BAS[ATNO][  4].d[  0] =         0.000002046679;
  BAS[ATNO][  4].a[  1] =    250601.753729999997;     BAS[ATNO][  4].d[  1] =         0.000010571303;
  BAS[ATNO][  4].a[  2] =     57030.912120000001;     BAS[ATNO][  4].d[  2] =         0.000046643532;
  BAS[ATNO][  4].a[  3] =     16153.303915000000;     BAS[ATNO][  4].d[  3] =         0.000179967939;
  BAS[ATNO][  4].a[  4] =      5269.410928800000;     BAS[ATNO][  4].d[  4] =         0.000619406181;
  BAS[ATNO][  4].a[  5] =      1902.031554100000;     BAS[ATNO][  4].d[  5] =         0.001921578200;
  BAS[ATNO][  4].a[  6] =       741.576771590000;     BAS[ATNO][  4].d[  6] =         0.005281702995;
  BAS[ATNO][  4].a[  7] =       307.209019060000;     BAS[ATNO][  4].d[  7] =         0.012502271560;
  BAS[ATNO][  4].a[  8] =       133.527862030000;     BAS[ATNO][  4].d[  8] =         0.023240138806;
  BAS[ATNO][  4].a[  9] =        60.253381291000;     BAS[ATNO][  4].d[  9] =         0.027023450693;
  BAS[ATNO][  4].a[ 10] =       522.024262060000;     BAS[ATNO][  4].d[ 10] =         0.002801416745;
  BAS[ATNO][  4].a[ 11] =       161.512904690000;     BAS[ATNO][  4].d[ 11] =         0.006174253088;
  BAS[ATNO][  4].a[ 12] =        62.126369433000;     BAS[ATNO][  4].d[ 12] =         0.068489121113;
  BAS[ATNO][  4].a[ 13] =        27.590930012000;     BAS[ATNO][  4].d[ 13] =        -0.014311017946;
  BAS[ATNO][  4].a[ 14] =        11.175528881000;     BAS[ATNO][  4].d[ 14] =         0.017841629639;
  BAS[ATNO][  4].a[ 15] =         5.295906513700;     BAS[ATNO][  4].d[ 15] =        -1.580814650415;
  BAS[ATNO][  4].a[ 16] =         2.478279889500;     BAS[ATNO][  4].d[ 16] =         2.980186731320;
  BAS[ATNO][  4].a[ 17] =         0.912620950600;     BAS[ATNO][  4].d[ 17] =        -2.068939029054;
  BAS[ATNO][  4].a[ 18] =         0.404260675500;     BAS[ATNO][  4].d[ 18] =        -0.602230358273;
  BAS[ATNO][  4].a[ 19] =         0.165628863100;     BAS[ATNO][  4].d[ 19] =         1.603609625031;

  // Basis function   6 L = s
  InitBFNGauss(BAS[ATNO][  5]);
  BAS[ATNO][  5].l  = 0;
  BAS[ATNO][  5].ng = 20;
  BAS[ATNO][  5].a[  0] =   1673421.949400000041;     BAS[ATNO][  5].d[  0] =        -0.000002591016;
  BAS[ATNO][  5].a[  1] =    250601.753729999997;     BAS[ATNO][  5].d[  1] =        -0.000013382857;
  BAS[ATNO][  5].a[  2] =     57030.912120000001;     BAS[ATNO][  5].d[  2] =        -0.000059048893;
  BAS[ATNO][  5].a[  3] =     16153.303915000000;     BAS[ATNO][  5].d[  3] =        -0.000227832393;
  BAS[ATNO][  5].a[  4] =      5269.410928800000;     BAS[ATNO][  5].d[  4] =        -0.000784144072;
  BAS[ATNO][  5].a[  5] =      1902.031554100000;     BAS[ATNO][  5].d[  5] =        -0.002432643071;
  BAS[ATNO][  5].a[  6] =       741.576771590000;     BAS[ATNO][  5].d[  6] =        -0.006686430036;
  BAS[ATNO][  5].a[  7] =       307.209019060000;     BAS[ATNO][  5].d[  7] =        -0.015827388279;
  BAS[ATNO][  5].a[  8] =       133.527862030000;     BAS[ATNO][  5].d[  8] =        -0.029421109498;
  BAS[ATNO][  5].a[  9] =        60.253381291000;     BAS[ATNO][  5].d[  9] =        -0.034210634820;
  BAS[ATNO][  5].a[ 10] =       522.024262060000;     BAS[ATNO][  5].d[ 10] =        -0.004151306943;
  BAS[ATNO][  5].a[ 11] =       161.512904690000;     BAS[ATNO][  5].d[ 11] =        -0.005750457816;
  BAS[ATNO][  5].a[ 12] =        62.126369433000;     BAS[ATNO][  5].d[ 12] =        -0.101239973136;
  BAS[ATNO][  5].a[ 13] =        27.590930012000;     BAS[ATNO][  5].d[ 13] =         0.055436483882;
  BAS[ATNO][  5].a[ 14] =        11.175528881000;     BAS[ATNO][  5].d[ 14] =        -0.147512242258;
  BAS[ATNO][  5].a[ 15] =         5.295906513700;     BAS[ATNO][  5].d[ 15] =         2.592395965255;
  BAS[ATNO][  5].a[ 16] =         2.478279889500;     BAS[ATNO][  5].d[ 16] =        -5.515859158983;
  BAS[ATNO][  5].a[ 17] =         0.912620950600;     BAS[ATNO][  5].d[ 17] =         7.378687339219;
  BAS[ATNO][  5].a[ 18] =         0.404260675500;     BAS[ATNO][  5].d[ 18] =        -6.595697938328;
  BAS[ATNO][  5].a[ 19] =         0.165628863100;     BAS[ATNO][  5].d[ 19] =         2.658527120309;

  // Basis function   7 L = s
  InitBFNGauss(BAS[ATNO][  6]);
  BAS[ATNO][  6].l  = 0;
  BAS[ATNO][  6].ng = 20;
  BAS[ATNO][  6].a[  0] =   1673421.949400000041;     BAS[ATNO][  6].d[  0] =         0.000008542660;
  BAS[ATNO][  6].a[  1] =    250601.753729999997;     BAS[ATNO][  6].d[  1] =         0.000044123691;
  BAS[ATNO][  6].a[  2] =     57030.912120000001;     BAS[ATNO][  6].d[  2] =         0.000194686010;
  BAS[ATNO][  6].a[  3] =     16153.303915000000;     BAS[ATNO][  6].d[  3] =         0.000751170379;
  BAS[ATNO][  6].a[  4] =      5269.410928800000;     BAS[ATNO][  6].d[  4] =         0.002585347028;
  BAS[ATNO][  6].a[  5] =      1902.031554100000;     BAS[ATNO][  6].d[  5] =         0.008020498728;
  BAS[ATNO][  6].a[  6] =       741.576771590000;     BAS[ATNO][  6].d[  6] =         0.022045364663;
  BAS[ATNO][  6].a[  7] =       307.209019060000;     BAS[ATNO][  6].d[  7] =         0.052183384016;
  BAS[ATNO][  6].a[  8] =       133.527862030000;     BAS[ATNO][  6].d[  8] =         0.097002299306;
  BAS[ATNO][  6].a[  9] =        60.253381291000;     BAS[ATNO][  6].d[  9] =         0.112793511017;
  BAS[ATNO][  6].a[ 10] =       522.024262060000;     BAS[ATNO][  6].d[ 10] =        -0.013588455800;
  BAS[ATNO][  6].a[ 11] =       161.512904690000;     BAS[ATNO][  6].d[ 11] =         0.129479502968;
  BAS[ATNO][  6].a[ 12] =        62.126369433000;     BAS[ATNO][  6].d[ 12] =        -0.295358994547;
  BAS[ATNO][  6].a[ 13] =        27.590930012000;     BAS[ATNO][  6].d[ 13] =         1.784978966712;
  BAS[ATNO][  6].a[ 14] =        11.175528881000;     BAS[ATNO][  6].d[ 14] =        -7.440198246085;
  BAS[ATNO][  6].a[ 15] =         5.295906513700;     BAS[ATNO][  6].d[ 15] =        11.382454366519;
  BAS[ATNO][  6].a[ 16] =         2.478279889500;     BAS[ATNO][  6].d[ 16] =        -8.627952176080;
  BAS[ATNO][  6].a[ 17] =         0.912620950600;     BAS[ATNO][  6].d[ 17] =         4.756549330667;
  BAS[ATNO][  6].a[ 18] =         0.404260675500;     BAS[ATNO][  6].d[ 18] =        -2.560665672993;
  BAS[ATNO][  6].a[ 19] =         0.165628863100;     BAS[ATNO][  6].d[ 19] =         0.696780874876;

  // Basis function   8 L = s
  InitBFNGauss(BAS[ATNO][  7]);
  BAS[ATNO][  7].l  = 0;
  BAS[ATNO][  7].ng = 20;
  BAS[ATNO][  7].a[  0] =   1673421.949400000041;     BAS[ATNO][  7].d[  0] =         0.000010382958;
  BAS[ATNO][  7].a[  1] =    250601.753729999997;     BAS[ATNO][  7].d[  1] =         0.000053629016;
  BAS[ATNO][  7].a[  2] =     57030.912120000001;     BAS[ATNO][  7].d[  2] =         0.000236626152;
  BAS[ATNO][  7].a[  3] =     16153.303915000000;     BAS[ATNO][  7].d[  3] =         0.000912990904;
  BAS[ATNO][  7].a[  4] =      5269.410928800000;     BAS[ATNO][  7].d[  4] =         0.003142294193;
  BAS[ATNO][  7].a[  5] =      1902.031554100000;     BAS[ATNO][  7].d[  5] =         0.009748310887;
  BAS[ATNO][  7].a[  6] =       741.576771590000;     BAS[ATNO][  7].d[  6] =         0.026794476959;
  BAS[ATNO][  7].a[  7] =       307.209019060000;     BAS[ATNO][  7].d[  7] =         0.063424964931;
  BAS[ATNO][  7].a[  8] =       133.527862030000;     BAS[ATNO][  7].d[  8] =         0.117898973930;
  BAS[ATNO][  7].a[  9] =        60.253381291000;     BAS[ATNO][  7].d[  9] =         0.137091999982;
  BAS[ATNO][  7].a[ 10] =       522.024262060000;     BAS[ATNO][  7].d[ 10] =         0.102618851638;
  BAS[ATNO][  7].a[ 11] =       161.512904690000;     BAS[ATNO][  7].d[ 11] =        -0.277354692250;
  BAS[ATNO][  7].a[ 12] =        62.126369433000;     BAS[ATNO][  7].d[ 12] =         2.992854727565;
  BAS[ATNO][  7].a[ 13] =        27.590930012000;     BAS[ATNO][  7].d[ 13] =        -7.616583244801;
  BAS[ATNO][  7].a[ 14] =        11.175528881000;     BAS[ATNO][  7].d[ 14] =         9.746882566566;
  BAS[ATNO][  7].a[ 15] =         5.295906513700;     BAS[ATNO][  7].d[ 15] =        -8.491445079990;
  BAS[ATNO][  7].a[ 16] =         2.478279889500;     BAS[ATNO][  7].d[ 16] =         4.642022638666;
  BAS[ATNO][  7].a[ 17] =         0.912620950600;     BAS[ATNO][  7].d[ 17] =        -2.114808481568;
  BAS[ATNO][  7].a[ 18] =         0.404260675500;     BAS[ATNO][  7].d[ 18] =         1.075613622842;
  BAS[ATNO][  7].a[ 19] =         0.165628863100;     BAS[ATNO][  7].d[ 19] =        -0.285289188846;

  // Basis function   9 L = s
  InitBFNGauss(BAS[ATNO][  8]);
  BAS[ATNO][  8].l  = 0;
  BAS[ATNO][  8].ng = 20;
  BAS[ATNO][  8].a[  0] =   1673421.949400000041;     BAS[ATNO][  8].d[  0] =        -0.000041493299;
  BAS[ATNO][  8].a[  1] =    250601.753729999997;     BAS[ATNO][  8].d[  1] =        -0.000214317035;
  BAS[ATNO][  8].a[  2] =     57030.912120000001;     BAS[ATNO][  8].d[  2] =        -0.000945626443;
  BAS[ATNO][  8].a[  3] =     16153.303915000000;     BAS[ATNO][  8].d[  3] =        -0.003648575328;
  BAS[ATNO][  8].a[  4] =      5269.410928800000;     BAS[ATNO][  8].d[  4] =        -0.012557515106;
  BAS[ATNO][  8].a[  5] =      1902.031554100000;     BAS[ATNO][  8].d[  5] =        -0.038957065666;
  BAS[ATNO][  8].a[  6] =       741.576771590000;     BAS[ATNO][  8].d[  6] =        -0.107078468304;
  BAS[ATNO][  8].a[  7] =       307.209019060000;     BAS[ATNO][  8].d[  7] =        -0.253464477306;
  BAS[ATNO][  8].a[  8] =       133.527862030000;     BAS[ATNO][  8].d[  8] =        -0.471158349628;
  BAS[ATNO][  8].a[  9] =        60.253381291000;     BAS[ATNO][  8].d[  9] =        -0.547859224773;
  BAS[ATNO][  8].a[ 10] =       522.024262060000;     BAS[ATNO][  8].d[ 10] =         0.287551743944;
  BAS[ATNO][  8].a[ 11] =       161.512904690000;     BAS[ATNO][  8].d[ 11] =        -2.395613609713;
  BAS[ATNO][  8].a[ 12] =        62.126369433000;     BAS[ATNO][  8].d[ 12] =         7.502156783101;
  BAS[ATNO][  8].a[ 13] =        27.590930012000;     BAS[ATNO][  8].d[ 13] =        -7.423306613033;
  BAS[ATNO][  8].a[ 14] =        11.175528881000;     BAS[ATNO][  8].d[ 14] =         5.986206029024;
  BAS[ATNO][  8].a[ 15] =         5.295906513700;     BAS[ATNO][  8].d[ 15] =        -4.438190230732;
  BAS[ATNO][  8].a[ 16] =         2.478279889500;     BAS[ATNO][  8].d[ 16] =         2.294649370690;
  BAS[ATNO][  8].a[ 17] =         0.912620950600;     BAS[ATNO][  8].d[ 17] =        -1.032085559168;
  BAS[ATNO][  8].a[ 18] =         0.404260675500;     BAS[ATNO][  8].d[ 18] =         0.525251579575;
  BAS[ATNO][  8].a[ 19] =         0.165628863100;     BAS[ATNO][  8].d[ 19] =        -0.139440139891;

  // Basis function  10 L = s
  InitBFNGauss(BAS[ATNO][  9]);
  BAS[ATNO][  9].l  = 0;
  BAS[ATNO][  9].ng = 20;
  BAS[ATNO][  9].a[  0] =   1673421.949400000041;     BAS[ATNO][  9].d[  0] =        -0.000006870797;
  BAS[ATNO][  9].a[  1] =    250601.753729999997;     BAS[ATNO][  9].d[  1] =        -0.000035488354;
  BAS[ATNO][  9].a[  2] =     57030.912120000001;     BAS[ATNO][  9].d[  2] =        -0.000156584500;
  BAS[ATNO][  9].a[  3] =     16153.303915000000;     BAS[ATNO][  9].d[  3] =        -0.000604160712;
  BAS[ATNO][  9].a[  4] =      5269.410928800000;     BAS[ATNO][  9].d[  4] =        -0.002079375259;
  BAS[ATNO][  9].a[  5] =      1902.031554100000;     BAS[ATNO][  9].d[  5] =        -0.006450827081;
  BAS[ATNO][  9].a[  6] =       741.576771590000;     BAS[ATNO][  9].d[  6] =        -0.017730921756;
  BAS[ATNO][  9].a[  7] =       307.209019060000;     BAS[ATNO][  9].d[  7] =        -0.041970705093;
  BAS[ATNO][  9].a[  8] =       133.527862030000;     BAS[ATNO][  9].d[  8] =        -0.078018223123;
  BAS[ATNO][  9].a[  9] =        60.253381291000;     BAS[ATNO][  9].d[  9] =        -0.090718976481;
  BAS[ATNO][  9].a[ 10] =       522.024262060000;     BAS[ATNO][  9].d[ 10] =         2.220748503215;
  BAS[ATNO][  9].a[ 11] =       161.512904690000;     BAS[ATNO][  9].d[ 11] =        -4.151788204891;
  BAS[ATNO][  9].a[ 12] =        62.126369433000;     BAS[ATNO][  9].d[ 12] =         4.967295505091;
  BAS[ATNO][  9].a[ 13] =        27.590930012000;     BAS[ATNO][  9].d[ 13] =        -4.005223984441;
  BAS[ATNO][  9].a[ 14] =        11.175528881000;     BAS[ATNO][  9].d[ 14] =         2.934357307142;
  BAS[ATNO][  9].a[ 15] =         5.295906513700;     BAS[ATNO][  9].d[ 15] =        -2.152379908703;
  BAS[ATNO][  9].a[ 16] =         2.478279889500;     BAS[ATNO][  9].d[ 16] =         1.119472453097;
  BAS[ATNO][  9].a[ 17] =         0.912620950600;     BAS[ATNO][  9].d[ 17] =        -0.507921297016;
  BAS[ATNO][  9].a[ 18] =         0.404260675500;     BAS[ATNO][  9].d[ 18] =         0.259499898173;
  BAS[ATNO][  9].a[ 19] =         0.165628863100;     BAS[ATNO][  9].d[ 19] =        -0.069020120965;

  // Basis function  11 L = s
  InitBFNGauss(BAS[ATNO][ 10]);
  BAS[ATNO][ 10].l  = 0;
  BAS[ATNO][ 10].ng = 20;
  BAS[ATNO][ 10].a[  0] =   1673421.949400000041;     BAS[ATNO][ 10].d[  0] =        -0.001097168081;
  BAS[ATNO][ 10].a[  1] =    250601.753729999997;     BAS[ATNO][ 10].d[  1] =        -0.005666982797;
  BAS[ATNO][ 10].a[  2] =     57030.912120000001;     BAS[ATNO][ 10].d[  2] =        -0.025004306239;
  BAS[ATNO][ 10].a[  3] =     16153.303915000000;     BAS[ATNO][ 10].d[  3] =        -0.096475828866;
  BAS[ATNO][ 10].a[  4] =      5269.410928800000;     BAS[ATNO][ 10].d[  4] =        -0.332046502898;
  BAS[ATNO][ 10].a[  5] =      1902.031554100000;     BAS[ATNO][ 10].d[  5] =        -1.030104866139;
  BAS[ATNO][ 10].a[  6] =       741.576771590000;     BAS[ATNO][ 10].d[  6] =        -2.831374729426;
  BAS[ATNO][ 10].a[  7] =       307.209019060000;     BAS[ATNO][ 10].d[  7] =        -6.702121605014;
  BAS[ATNO][ 10].a[  8] =       133.527862030000;     BAS[ATNO][ 10].d[  8] =       -12.458394911923;
  BAS[ATNO][ 10].a[  9] =        60.253381291000;     BAS[ATNO][ 10].d[  9] =       -14.486523657625;
  BAS[ATNO][ 10].a[ 10] =       522.024262060000;     BAS[ATNO][ 10].d[ 10] =         8.038026394571;
  BAS[ATNO][ 10].a[ 11] =       161.512904690000;     BAS[ATNO][ 10].d[ 11] =        12.096887819630;
  BAS[ATNO][ 10].a[ 12] =        62.126369433000;     BAS[ATNO][ 10].d[ 12] =        18.318933771829;
  BAS[ATNO][ 10].a[ 13] =        27.590930012000;     BAS[ATNO][ 10].d[ 13] =        -1.843497441702;
  BAS[ATNO][ 10].a[ 14] =        11.175528881000;     BAS[ATNO][ 10].d[ 14] =         1.390978838438;
  BAS[ATNO][ 10].a[ 15] =         5.295906513700;     BAS[ATNO][ 10].d[ 15] =        -1.030368456669;
  BAS[ATNO][ 10].a[ 16] =         2.478279889500;     BAS[ATNO][ 10].d[ 16] =         0.539726032090;
  BAS[ATNO][ 10].a[ 17] =         0.912620950600;     BAS[ATNO][ 10].d[ 17] =        -0.246157689405;
  BAS[ATNO][ 10].a[ 18] =         0.404260675500;     BAS[ATNO][ 10].d[ 18] =         0.126005067754;
  BAS[ATNO][ 10].a[ 19] =         0.165628863100;     BAS[ATNO][ 10].d[ 19] =        -0.033544030076;

  // Basis function  12 L = p
  InitBFNGauss(BAS[ATNO][ 11]);
  BAS[ATNO][ 11].l  = 1;
  BAS[ATNO][ 11].ng = 14;
  BAS[ATNO][ 11].a[  0] =      2868.450458100000;     BAS[ATNO][ 11].d[  0] =         0.000422772802;
  BAS[ATNO][ 11].a[  1] =       679.718695900000;     BAS[ATNO][ 11].d[  1] =         0.003158751503;
  BAS[ATNO][ 11].a[  2] =       220.367588240000;     BAS[ATNO][ 11].d[  2] =         0.016571998679;
  BAS[ATNO][ 11].a[  3] =        83.620439734000;     BAS[ATNO][ 11].d[  3] =         0.064312959309;
  BAS[ATNO][ 11].a[  4] =        34.964322657000;     BAS[ATNO][ 11].d[  4] =         0.188322703349;
  BAS[ATNO][ 11].a[  5] =        15.525131784000;     BAS[ATNO][ 11].d[  5] =         0.391346151977;
  BAS[ATNO][ 11].a[  6] =         7.099297980600;     BAS[ATNO][ 11].d[  6] =         0.540954569562;
  BAS[ATNO][ 11].a[  7] =         3.302133660200;     BAS[ATNO][ 11].d[  7] =         0.401143274876;
  BAS[ATNO][ 11].a[  8] =       128.787656670000;     BAS[ATNO][ 11].d[  8] =        -0.005454198365;
  BAS[ATNO][ 11].a[  9] =         8.435786797700;     BAS[ATNO][ 11].d[  9] =        -0.245886205733;
  BAS[ATNO][ 11].a[ 10] =         1.461866185500;     BAS[ATNO][ 11].d[ 10] =        -0.356690622528;
  BAS[ATNO][ 11].a[ 11] =         0.646580101000;     BAS[ATNO][ 11].d[ 11] =         0.253670541939;
  BAS[ATNO][ 11].a[ 12] =         0.272292957500;     BAS[ATNO][ 11].d[ 12] =        -0.123923514300;
  BAS[ATNO][ 11].a[ 13] =         0.109051824500;     BAS[ATNO][ 11].d[ 13] =         0.037375906897;

  // Basis function  13 L = p
  InitBFNGauss(BAS[ATNO][ 12]);
  BAS[ATNO][ 12].l  = 1;
  BAS[ATNO][ 12].ng = 14;
  BAS[ATNO][ 12].a[  0] =      2868.450458100000;     BAS[ATNO][ 12].d[  0] =        -0.000249174342;
  BAS[ATNO][ 12].a[  1] =       679.718695900000;     BAS[ATNO][ 12].d[  1] =        -0.001861708759;
  BAS[ATNO][ 12].a[  2] =       220.367588240000;     BAS[ATNO][ 12].d[  2] =        -0.009767224507;
  BAS[ATNO][ 12].a[  3] =        83.620439734000;     BAS[ATNO][ 12].d[  3] =        -0.037904849283;
  BAS[ATNO][ 12].a[  4] =        34.964322657000;     BAS[ATNO][ 12].d[  4] =        -0.110993861326;
  BAS[ATNO][ 12].a[  5] =        15.525131784000;     BAS[ATNO][ 12].d[  5] =        -0.230652065579;
  BAS[ATNO][ 12].a[  6] =         7.099297980600;     BAS[ATNO][ 12].d[  6] =        -0.318828454614;
  BAS[ATNO][ 12].a[  7] =         3.302133660200;     BAS[ATNO][ 12].d[  7] =        -0.236426305652;
  BAS[ATNO][ 12].a[  8] =       128.787656670000;     BAS[ATNO][ 12].d[  8] =         0.008639847399;
  BAS[ATNO][ 12].a[  9] =         8.435786797700;     BAS[ATNO][ 12].d[  9] =         0.258164945208;
  BAS[ATNO][ 12].a[ 10] =         1.461866185500;     BAS[ATNO][ 12].d[ 10] =         1.551897283603;
  BAS[ATNO][ 12].a[ 11] =         0.646580101000;     BAS[ATNO][ 12].d[ 11] =        -0.549820614964;
  BAS[ATNO][ 12].a[ 12] =         0.272292957500;     BAS[ATNO][ 12].d[ 12] =         0.280929048826;
  BAS[ATNO][ 12].a[ 13] =         0.109051824500;     BAS[ATNO][ 12].d[ 13] =        -0.083784600025;

  // Basis function  14 L = p
  InitBFNGauss(BAS[ATNO][ 13]);
  BAS[ATNO][ 13].l  = 1;
  BAS[ATNO][ 13].ng = 14;
  BAS[ATNO][ 13].a[  0] =      2868.450458100000;     BAS[ATNO][ 13].d[  0] =         0.000153613919;
  BAS[ATNO][ 13].a[  1] =       679.718695900000;     BAS[ATNO][ 13].d[  1] =         0.001147728037;
  BAS[ATNO][ 13].a[  2] =       220.367588240000;     BAS[ATNO][ 13].d[  2] =         0.006021413048;
  BAS[ATNO][ 13].a[  3] =        83.620439734000;     BAS[ATNO][ 13].d[  3] =         0.023368025778;
  BAS[ATNO][ 13].a[  4] =        34.964322657000;     BAS[ATNO][ 13].d[  4] =         0.068426796616;
  BAS[ATNO][ 13].a[  5] =        15.525131784000;     BAS[ATNO][ 13].d[  5] =         0.142195088916;
  BAS[ATNO][ 13].a[  6] =         7.099297980600;     BAS[ATNO][ 13].d[  6] =         0.196555102765;
  BAS[ATNO][ 13].a[  7] =         3.302133660200;     BAS[ATNO][ 13].d[  7] =         0.145754860118;
  BAS[ATNO][ 13].a[  8] =       128.787656670000;     BAS[ATNO][ 13].d[  8] =        -0.006748837418;
  BAS[ATNO][ 13].a[  9] =         8.435786797700;     BAS[ATNO][ 13].d[  9] =        -0.199606008093;
  BAS[ATNO][ 13].a[ 10] =         1.461866185500;     BAS[ATNO][ 13].d[ 10] =        -1.647352325728;
  BAS[ATNO][ 13].a[ 11] =         0.646580101000;     BAS[ATNO][ 13].d[ 11] =         2.019382398849;
  BAS[ATNO][ 13].a[ 12] =         0.272292957500;     BAS[ATNO][ 13].d[ 12] =        -0.202491373672;
  BAS[ATNO][ 13].a[ 13] =         0.109051824500;     BAS[ATNO][ 13].d[ 13] =         0.082522694859;

  // Basis function  15 L = p
  InitBFNGauss(BAS[ATNO][ 14]);
  BAS[ATNO][ 14].l  = 1;
  BAS[ATNO][ 14].ng = 14;
  BAS[ATNO][ 14].a[  0] =      2868.450458100000;     BAS[ATNO][ 14].d[  0] =         0.000098696336;
  BAS[ATNO][ 14].a[  1] =       679.718695900000;     BAS[ATNO][ 14].d[  1] =         0.000737410725;
  BAS[ATNO][ 14].a[  2] =       220.367588240000;     BAS[ATNO][ 14].d[  2] =         0.003868734072;
  BAS[ATNO][ 14].a[  3] =        83.620439734000;     BAS[ATNO][ 14].d[  3] =         0.015013864154;
  BAS[ATNO][ 14].a[  4] =        34.964322657000;     BAS[ATNO][ 14].d[  4] =         0.043963946232;
  BAS[ATNO][ 14].a[  5] =        15.525131784000;     BAS[ATNO][ 14].d[  5] =         0.091359782319;
  BAS[ATNO][ 14].a[  6] =         7.099297980600;     BAS[ATNO][ 14].d[  6] =         0.126285876251;
  BAS[ATNO][ 14].a[  7] =         3.302133660200;     BAS[ATNO][ 14].d[  7] =         0.093646921239;
  BAS[ATNO][ 14].a[  8] =       128.787656670000;     BAS[ATNO][ 14].d[  8] =        -0.004750774041;
  BAS[ATNO][ 14].a[  9] =         8.435786797700;     BAS[ATNO][ 14].d[  9] =        -0.142077439928;
  BAS[ATNO][ 14].a[ 10] =         1.461866185500;     BAS[ATNO][ 14].d[ 10] =        -1.339499371403;
  BAS[ATNO][ 14].a[ 11] =         0.646580101000;     BAS[ATNO][ 14].d[ 11] =         2.760982223870;
  BAS[ATNO][ 14].a[ 12] =         0.272292957500;     BAS[ATNO][ 14].d[ 12] =        -2.173561579967;
  BAS[ATNO][ 14].a[ 13] =         0.109051824500;     BAS[ATNO][ 14].d[ 13] =         0.083923916183;

  // Basis function  16 L = p
  InitBFNGauss(BAS[ATNO][ 15]);
  BAS[ATNO][ 15].l  = 1;
  BAS[ATNO][ 15].ng = 14;
  BAS[ATNO][ 15].a[  0] =      2868.450458100000;     BAS[ATNO][ 15].d[  0] =        -0.000054352527;
  BAS[ATNO][ 15].a[  1] =       679.718695900000;     BAS[ATNO][ 15].d[  1] =        -0.000406095486;
  BAS[ATNO][ 15].a[  2] =       220.367588240000;     BAS[ATNO][ 15].d[  2] =        -0.002130529690;
  BAS[ATNO][ 15].a[  3] =        83.620439734000;     BAS[ATNO][ 15].d[  3] =        -0.008268204212;
  BAS[ATNO][ 15].a[  4] =        34.964322657000;     BAS[ATNO][ 15].d[  4] =        -0.024211147888;
  BAS[ATNO][ 15].a[  5] =        15.525131784000;     BAS[ATNO][ 15].d[  5] =        -0.050312253342;
  BAS[ATNO][ 15].a[  6] =         7.099297980600;     BAS[ATNO][ 15].d[  6] =        -0.069546214299;
  BAS[ATNO][ 15].a[  7] =         3.302133660200;     BAS[ATNO][ 15].d[  7] =        -0.051571791290;
  BAS[ATNO][ 15].a[  8] =       128.787656670000;     BAS[ATNO][ 15].d[  8] =         0.002649877249;
  BAS[ATNO][ 15].a[  9] =         8.435786797700;     BAS[ATNO][ 15].d[  9] =         0.082393089645;
  BAS[ATNO][ 15].a[ 10] =         1.461866185500;     BAS[ATNO][ 15].d[ 10] =         0.807525082304;
  BAS[ATNO][ 15].a[ 11] =         0.646580101000;     BAS[ATNO][ 15].d[ 11] =        -2.084370178349;
  BAS[ATNO][ 15].a[ 12] =         0.272292957500;     BAS[ATNO][ 15].d[ 12] =         2.877438457519;
  BAS[ATNO][ 15].a[ 13] =         0.109051824500;     BAS[ATNO][ 15].d[ 13] =        -2.025278679130;

  // Basis function  17 L = p
  InitBFNGauss(BAS[ATNO][ 16]);
  BAS[ATNO][ 16].l  = 1;
  BAS[ATNO][ 16].ng = 14;
  BAS[ATNO][ 16].a[  0] =      2868.450458100000;     BAS[ATNO][ 16].d[  0] =        -0.001483479624;
  BAS[ATNO][ 16].a[  1] =       679.718695900000;     BAS[ATNO][ 16].d[  1] =        -0.011083833845;
  BAS[ATNO][ 16].a[  2] =       220.367588240000;     BAS[ATNO][ 16].d[  2] =        -0.058149961989;
  BAS[ATNO][ 16].a[  3] =        83.620439734000;     BAS[ATNO][ 16].d[  3] =        -0.225669589506;
  BAS[ATNO][ 16].a[  4] =        34.964322657000;     BAS[ATNO][ 16].d[  4] =        -0.660810940996;
  BAS[ATNO][ 16].a[  5] =        15.525131784000;     BAS[ATNO][ 16].d[  5] =        -1.373205749194;
  BAS[ATNO][ 16].a[  6] =         7.099297980600;     BAS[ATNO][ 16].d[  6] =        -1.898171021287;
  BAS[ATNO][ 16].a[  7] =         3.302133660200;     BAS[ATNO][ 16].d[  7] =        -1.407583155033;
  BAS[ATNO][ 16].a[  8] =       128.787656670000;     BAS[ATNO][ 16].d[  8] =         0.130336876338;
  BAS[ATNO][ 16].a[  9] =         8.435786797700;     BAS[ATNO][ 16].d[  9] =         4.661356504241;
  BAS[ATNO][ 16].a[ 10] =         1.461866185500;     BAS[ATNO][ 16].d[ 10] =         0.495281265560;
  BAS[ATNO][ 16].a[ 11] =         0.646580101000;     BAS[ATNO][ 16].d[ 11] =         0.019813333048;
  BAS[ATNO][ 16].a[ 12] =         0.272292957500;     BAS[ATNO][ 16].d[ 12] =        -0.092133288760;
  BAS[ATNO][ 16].a[ 13] =         0.109051824500;     BAS[ATNO][ 16].d[ 13] =         0.038466711820;

  // Basis function  18 L = p
  InitBFNGauss(BAS[ATNO][ 17]);
  BAS[ATNO][ 17].l  = 1;
  BAS[ATNO][ 17].ng = 14;
  BAS[ATNO][ 17].a[  0] =      2868.450458100000;     BAS[ATNO][ 17].d[  0] =        -0.001333924102;
  BAS[ATNO][ 17].a[  1] =       679.718695900000;     BAS[ATNO][ 17].d[  1] =        -0.009966428164;
  BAS[ATNO][ 17].a[  2] =       220.367588240000;     BAS[ATNO][ 17].d[  2] =        -0.052287631431;
  BAS[ATNO][ 17].a[  3] =        83.620439734000;     BAS[ATNO][ 17].d[  3] =        -0.202918934385;
  BAS[ATNO][ 17].a[  4] =        34.964322657000;     BAS[ATNO][ 17].d[  4] =        -0.594191943498;
  BAS[ATNO][ 17].a[  5] =        15.525131784000;     BAS[ATNO][ 17].d[  5] =        -1.234767377953;
  BAS[ATNO][ 17].a[  6] =         7.099297980600;     BAS[ATNO][ 17].d[  6] =        -1.706808798490;
  BAS[ATNO][ 17].a[  7] =         3.302133660200;     BAS[ATNO][ 17].d[  7] =        -1.265679059828;
  BAS[ATNO][ 17].a[  8] =       128.787656670000;     BAS[ATNO][ 17].d[  8] =         1.437750919119;
  BAS[ATNO][ 17].a[  9] =         8.435786797700;     BAS[ATNO][ 17].d[  9] =         3.517645732473;
  BAS[ATNO][ 17].a[ 10] =         1.461866185500;     BAS[ATNO][ 17].d[ 10] =         1.178456297152;
  BAS[ATNO][ 17].a[ 11] =         0.646580101000;     BAS[ATNO][ 17].d[ 11] =        -0.748363427366;
  BAS[ATNO][ 17].a[ 12] =         0.272292957500;     BAS[ATNO][ 17].d[ 12] =         0.349898529141;
  BAS[ATNO][ 17].a[ 13] =         0.109051824500;     BAS[ATNO][ 17].d[ 13] =        -0.104207197987;

  // Basis function  19 L = d
  InitBFNGauss(BAS[ATNO][ 18]);
  BAS[ATNO][ 18].l  = 2;
  BAS[ATNO][ 18].ng = 4;
  BAS[ATNO][ 18].a[  0] =         6.315000000000;     BAS[ATNO][ 18].d[  0] =         0.620446047319;
  BAS[ATNO][ 18].a[  1] =         1.562000000000;     BAS[ATNO][ 18].d[  1] =         0.655144732294;
  BAS[ATNO][ 18].a[  2] =         0.715000000000;     BAS[ATNO][ 18].d[  2] =        -0.194791672722;
  BAS[ATNO][ 18].a[  3] =         0.297000000000;     BAS[ATNO][ 18].d[  3] =         0.063841282826;

  // Basis function  20 L = d
  InitBFNGauss(BAS[ATNO][ 19]);
  BAS[ATNO][ 19].l  = 2;
  BAS[ATNO][ 19].ng = 4;
  BAS[ATNO][ 19].a[  0] =         6.315000000000;     BAS[ATNO][ 19].d[  0] =        -0.521520569083;
  BAS[ATNO][ 19].a[  1] =         1.562000000000;     BAS[ATNO][ 19].d[  1] =         0.030446067210;
  BAS[ATNO][ 19].a[  2] =         0.715000000000;     BAS[ATNO][ 19].d[  2] =         0.962713378318;
  BAS[ATNO][ 19].a[  3] =         0.297000000000;     BAS[ATNO][ 19].d[  3] =        -0.044079371790;

  // Basis function  21 L = d
  InitBFNGauss(BAS[ATNO][ 20]);
  BAS[ATNO][ 20].l  = 2;
  BAS[ATNO][ 20].ng = 4;
  BAS[ATNO][ 20].a[  0] =         6.315000000000;     BAS[ATNO][ 20].d[  0] =         0.423347993469;
  BAS[ATNO][ 20].a[  1] =         1.562000000000;     BAS[ATNO][ 20].d[  1] =        -0.482178550674;
  BAS[ATNO][ 20].a[  2] =         0.715000000000;     BAS[ATNO][ 20].d[  2] =        -0.410286110798;
  BAS[ATNO][ 20].a[  3] =         0.297000000000;     BAS[ATNO][ 20].d[  3] =         1.181839766491;

  // Basis function  22 L = d
  InitBFNGauss(BAS[ATNO][ 21]);
  BAS[ATNO][ 21].l  = 2;
  BAS[ATNO][ 21].ng = 4;
  BAS[ATNO][ 21].a[  0] =         6.315000000000;     BAS[ATNO][ 21].d[  0] =         0.778867283417;
  BAS[ATNO][ 21].a[  1] =         1.562000000000;     BAS[ATNO][ 21].d[  1] =        -1.960308777179;
  BAS[ATNO][ 21].a[  2] =         0.715000000000;     BAS[ATNO][ 21].d[  2] =         2.378232284973;
  BAS[ATNO][ 21].a[  3] =         0.297000000000;     BAS[ATNO][ 21].d[  3] =        -1.204916599894;

  // Basis function  23 L = f
  InitBFNGauss(BAS[ATNO][ 22]);
  BAS[ATNO][ 22].l  = 3;
  BAS[ATNO][ 22].ng = 2;
  BAS[ATNO][ 22].a[  0] =         0.543000000000;     BAS[ATNO][ 22].d[  0] =         0.135362245838;
  BAS[ATNO][ 22].a[  1] =         1.325000000000;     BAS[ATNO][ 22].d[  1] =         0.906929018989;

  // Basis function  24 L = f
  InitBFNGauss(BAS[ATNO][ 23]);
  BAS[ATNO][ 23].l  = 3;
  BAS[ATNO][ 23].ng = 2;
  BAS[ATNO][ 23].a[  0] =         0.543000000000;     BAS[ATNO][ 23].d[  0] =         1.306288201794;
  BAS[ATNO][ 23].a[  1] =         1.325000000000;     BAS[ATNO][ 23].d[  1] =        -0.949837648370;

  // Basis function  25 L = g
  InitBFNGauss(BAS[ATNO][ 24]);
  BAS[ATNO][ 24].l  = 4;
  BAS[ATNO][ 24].ng = 1;
  BAS[ATNO][ 24].a[  0] =         1.007000000000;     BAS[ATNO][ 24].d[  0] =         1.000000000000;

-------
TIMINGS
-------

Total SCF time: 0 days 0 hours 0 min 1 sec 

Total time                  ....       1.739 sec
Sum of individual times     ....       1.553 sec  ( 89.3%)

Fock matrix formation       ....       1.075 sec  ( 61.8%)
  XC integration            ....       0.027 sec  (  2.5% of F)
    Basis function eval.    ....       0.004 sec  ( 16.2% of XC)
    Density eval.           ....       0.002 sec  (  8.6% of XC)
    XC-Functional eval.     ....       0.002 sec  (  6.6% of XC)
    XC-Potential eval.      ....       0.004 sec  ( 13.6% of XC)
Diagonalization             ....       0.003 sec  (  0.2%)
Density matrix formation    ....       0.001 sec  (  0.0%)
Population analysis         ....       0.001 sec  (  0.1%)
Initial guess               ....       0.090 sec  (  5.2%)
Orbital Transformation      ....       0.000 sec  (  0.0%)
Orbital Orthonormalization  ....       0.000 sec  (  0.0%)
DIIS solution               ....       0.000 sec  (  0.0%)
SOSCF solution              ....       0.001 sec  (  0.1%)
Grid generation             ....       0.381 sec  ( 21.9%)

-------------------------   --------------------
FINAL SINGLE POINT ENERGY      -311.532058290783
-------------------------   --------------------


                            ***************************************
                            *     ORCA property calculations      *
                            ***************************************

                                    ---------------------
                                    Active property flags
                                    ---------------------
   (+) Dipole Moment


------------------------------------------------------------------------------
                       ORCA ELECTRIC PROPERTIES CALCULATION
------------------------------------------------------------------------------

Dipole Moment Calculation                       ... on
Quadrupole Moment Calculation                   ... off
Polarizability Calculation                      ... off
GBWName                                         ... Ar_zora-def2-qzvpp_4385.151648_.gbw
Electron density file                           ... Ar_zora-def2-qzvpp_4385.151648_.scfp
The origin for moment calculation is the CENTER OF MASS  = ( 0.000000,  0.000000  0.000000)

-------------
DIPOLE MOMENT
-------------
                                X             Y             Z
Electronic contribution:      0.00000      -0.00000      -0.00000
Nuclear contribution   :      0.00000       0.00000       0.00000
                        -----------------------------------------
Total Dipole Moment    :      0.00000      -0.00000      -0.00000
                        -----------------------------------------
Magnitude (a.u.)       :      0.00000
Magnitude (Debye)      :      0.00000



--------------------
Rotational spectrum 
--------------------
 
Rotational constants in cm-1:     0.000000     0.000000     0.000000 
Rotational constants in MHz :     0.000000     0.000000     0.000000 

 Dipole components along the rotational axes: 
x,y,z [a.u.] :     0.000000    -0.000000    -0.000000 
x,y,z [Debye]:     0.000000    -0.000000    -0.000000 

 

Timings for individual modules:

Sum of individual times         ...        2.921 sec (=   0.049 min)
GTO integral calculation        ...        0.545 sec (=   0.009 min)  18.7 %
Relativistic integrals          ...        0.379 sec (=   0.006 min)  13.0 %
SCF iterations                  ...        1.997 sec (=   0.033 min)  68.4 %
                             ****ORCA TERMINATED NORMALLY****
TOTAL RUN TIME: 0 days 0 hours 0 minutes 3 seconds 253 msec
