
                                 *****************
                                 * O   R   C   A *
                                 *****************

           --- An Ab Initio, DFT and Semiempirical electronic structure package ---

                  #######################################################
                  #                        -***-                        #
                  #          Department of theory and spectroscopy      #
                  #               Directorship: Frank Neese             #
                  #        Max Planck Institute fuer Kohlenforschung    #
                  #                Kaiser Wilhelm Platz 1               #
                  #                 D-45470 Muelheim/Ruhr               #
                  #                      Germany                        #
                  #                                                     #
                  #                  All rights reserved                #
                  #                        -***-                        #
                  #######################################################


                         Program Version 4.2.1 -  RELEASE  -


 With contributions from (in alphabetic order):
   Daniel Aravena         : Magnetic Suceptibility
   Michael Atanasov       : Ab Initio Ligand Field Theory (pilot matlab implementation)
   Alexander A. Auer      : GIAO ZORA, VPT2
   Ute Becker             : Parallelization
   Giovanni Bistoni       : ED, misc. LED, open-shell LED, HFLD
   Martin Brehm           : Molecular dynamics
   Dmytro Bykov           : SCF Hessian
   Vijay G. Chilkuri      : MRCI spin determinant printing, contributions to CSF-ICE
   Dipayan Datta          : RHF DLPNO-CCSD density
   Achintya Kumar Dutta   : EOM-CC, STEOM-CC
   Dmitry Ganyushin       : Spin-Orbit,Spin-Spin,Magnetic field MRCI
   Miquel Garcia          : C-PCM Hessian, Gaussian charge scheme
   Yang Guo               : DLPNO-NEVPT2, CIM, IAO-localization
   Andreas Hansen         : Spin unrestricted coupled pair/coupled cluster methods
   Benjamin Helmich-Paris : CASSCF linear response (MC-RPA)
   Lee Huntington         : MR-EOM, pCC
   Robert Izsak           : Overlap fitted RIJCOSX, COSX-SCS-MP3, EOM
   Christian Kollmar      : KDIIS, OOCD, Brueckner-CCSD(T), CCSD density
   Simone Kossmann        : Meta GGA functionals, TD-DFT gradient, OOMP2, MP2 Hessian
   Martin Krupicka        : AUTO-CI
   Lucas Lang             : DCDCAS
   Dagmar Lenk            : GEPOL surface, SMD
   Dimitrios Liakos       : Extrapolation schemes; Compound Job, initial MDCI parallelization
   Dimitrios Manganas     : Further ROCIS development; embedding schemes
   Dimitrios Pantazis     : SARC Basis sets
   Taras Petrenko         : DFT Hessian,TD-DFT gradient, ASA, ECA, R-Raman, ABS, FL, XAS/XES, NRVS
   Peter Pinski           : DLPNO-MP2, DLPNO-MP2 Gradient
   Christoph Reimann      : Effective Core Potentials
   Marius Retegan         : Local ZFS, SOC
   Christoph Riplinger    : Optimizer, TS searches, QM/MM, DLPNO-CCSD(T), (RO)-DLPNO pert. Triples
   Tobias Risthaus        : Range-separated hybrids, TD-DFT gradient, RPA, STAB
   Michael Roemelt        : Original ROCIS implementation
   Masaaki Saitow         : Open-shell DLPNO-CCSD energy and density
   Barbara Sandhoefer     : DKH picture change effects
   Avijit Sen             : IP-ROCIS
   Kantharuban Sivalingam : CASSCF convergence, NEVPT2, FIC-MRCI
   Bernardo de Souza      : ESD, SOC TD-DFT
   Georgi Stoychev        : AutoAux, RI-MP2 NMR
   Willem Van den Heuvel  : Paramagnetic NMR
   Boris Wezisla          : Elementary symmetry handling
   Frank Wennmohs         : Technical directorship


 We gratefully acknowledge several colleagues who have allowed us to
 interface, adapt or use parts of their codes:
   Stefan Grimme, W. Hujo, H. Kruse,             : VdW corrections, initial TS optimization,
                  C. Bannwarth                     DFT functionals, gCP, sTDA/sTD-DF
   Ed Valeev, F. Pavosevic, A. Kumar             : LibInt (2-el integral package), F12 methods
   Garnet Chan, S. Sharma, J. Yang, R. Olivares  : DMRG
   Ulf Ekstrom                                   : XCFun DFT Library
   Mihaly Kallay                                 : mrcc  (arbitrary order and MRCC methods)
   Andreas Klamt, Michael Diedenhofen            : otool_cosmo (COSMO solvation model)
   Jiri Pittner, Ondrej Demel                    : Mk-CCSD
   Frank Weinhold                                : gennbo (NPA and NBO analysis)
   Christopher J. Cramer and Donald G. Truhlar   : smd solvation model
   Lars Goerigk                                  : TD-DFT with DH, B97 family of functionals
   V. Asgeirsson, H. Jonsson                     : NEB implementation
   FAccTs GmbH                                   : IRC, NEB, NEB-TS, Multilevel, MM, QM/MM, CI optimization
   S Lehtola, MJT Oliveira, MAL Marques          : LibXC Library


 Your calculation uses the libint2 library for the computation of 2-el integrals
 For citations please refer to: http://libint.valeyev.net

 Your ORCA version has been built with support for libXC version: 4.2.3
 For citations please refer to: https://tddft.org/programs/libxc/

 This ORCA versions uses:
   CBLAS   interface :  Fast vector & matrix operations
   LAPACKE interface :  Fast linear algebra routines
   SCALAPACK package :  Parallel linear algebra routines


----- Orbital basis set information -----
Your calculation utilizes the basis: ZORA-def2-TZVP 
   Exponents from def2-TZVP [F. Weigend and R. Ahlrichs, Phys. Chem. Chem. Phys. 7, 3297 (2005)],
   recontracted for ZORA by D. A. Pantazis.

================================================================================
                                        WARNINGS
                       Please study these warnings very carefully!
================================================================================


INFO   : the flag for use of LIBINT has been found!

================================================================================
                                       INPUT FILE
================================================================================
NAME = Ar_zora-def2-tzvp_548.143956_.inp
|  1> ! LDA zora-def2-tzvp nori grid5 finalgrid6 verytightscf
|  2> %Pal NProcs 18 End
|  3> 
|  4> % REL
|  5>   Method ZORA
|  6>   ModelPot 1, 0, 0, 0
|  7>   velit 548.143956
|  8> END
|  9> 
| 10> *xyz 16 1
| 11> Ar 0.0 0.0 0.0
| 12> **                         ****END OF INPUT****
================================================================================

                       ****************************
                       * Single Point Calculation *
                       ****************************

---------------------------------
CARTESIAN COORDINATES (ANGSTROEM)
---------------------------------
  Ar     0.000000    0.000000    0.000000

----------------------------
CARTESIAN COORDINATES (A.U.)
----------------------------
  NO LB      ZA    FRAG     MASS         X           Y           Z
   0 Ar   18.0000    0    39.948    0.000000    0.000000    0.000000

--------------------------------
INTERNAL COORDINATES (ANGSTROEM)
--------------------------------
 Ar     0   0   0     0.000000000000     0.00000000     0.00000000

---------------------------
INTERNAL COORDINATES (A.U.)
---------------------------
 Ar     0   0   0     0.000000000000     0.00000000     0.00000000

---------------------
BASIS SET INFORMATION
---------------------
There are 1 groups of distinct atoms

 Group   1 Type Ar  : 14s9p3d1f contracted to 8s4p2d1f pattern {71111111/6111/21/1}

Atom   0Ar   basis set group =>   1


           ************************************************************
           *        Program running with 18 parallel MPI-processes    *
           *              working on a common directory               *
           ************************************************************
------------------------------------------------------------------------------
                           ORCA GTO INTEGRAL CALCULATION
------------------------------------------------------------------------------

                         BASIS SET STATISTICS AND STARTUP INFO

 # of primitive gaussian shells          ...   27
 # of primitive gaussian functions       ...   63
 # of contracted shells                  ...   15
 # of contracted basis functions         ...   37
 Highest angular momentum                ...    3
 Maximum contraction depth               ...    7
 Integral package used                   ... LIBINT
 Integral threshhold            Thresh   ...  1.000e-12
 Primitive cut-off              TCut     ...  1.000e-14


------------------------------ INTEGRAL EVALUATION ----------------------------


 * One electron integrals 
 Pre-screening matrix                    ... done
 Shell pair data                         ... done (   0.000 sec)



           ************************************************************
           *        Program running with 18 parallel MPI-processes    *
           *              working on a common directory               *
           ************************************************************
------------------------------------------------------------------------------
                          ORCA RELATIVISTIC HAMILTONIAN
------------------------------------------------------------------------------

Relativistic Method            ... ZORA(MP)
Treatment of potential         ... Van Wuellen
Nucleus model                  ... Point Nucleus
Speed of light used            ... 548.14395600000000


            *************************************************
            *         ZERO ORDER REGULAR APPROXIMATION      *
            *                     ZORA(MP)                  *
            *            Programmed by FN according to      *
            *                   C. van Wuellen              *
            *       J. Chem. Phys. (1998) vol 109, 392-399  *
            *************************************************

Terms included in model potential: +V(e,N)
Basis function cutoff value   ... 1.000000e-12
Loading the fitted atomic densities  (DKH4)  ... done
Calculating the cutoffs                      ... done
Number of fit functions                      ... 15
Setting up the integration grid ... done


           ************************************************************
           *        Program running with 18 parallel MPI-processes    *
           *              working on a common directory               *
           ************************************************************
-------------------------------------------------------------------------------
                                 ORCA SCF
-------------------------------------------------------------------------------

------------
SCF SETTINGS
------------
Hamiltonian:
 Density Functional     Method          .... DFT(GTOs)
 Exchange Functional    Exchange        .... Slater
   X-Alpha parameter    XAlpha          ....  0.666667
 Correlation Functional Correlation     .... VWN-5
 Gradients option       PostSCFGGA      .... off
   Density functional embedding theory  .... OFF

Relativistic Settings:
 Scalar relativistic method             .... ZORA
 Speed of light used       Velit        ....       548.143956
Orbital energies will be scaled


General Settings:
 Integral files         IntName         .... Ar_zora-def2-tzvp_548.143956_
 Hartree-Fock type      HFTyp           .... RHF
 Total Charge           Charge          ....   16
 Multiplicity           Mult            ....    1
 Number of Electrons    NEL             ....    2
 Basis Dimension        Dim             ....   37
 Nuclear Repulsion      ENuc            ....      0.0000000000 Eh

Convergence Acceleration:
 DIIS                   CNVDIIS         .... on
   Start iteration      DIISMaxIt       ....    12
   Startup error        DIISStart       ....  0.200000
   # of expansion vecs  DIISMaxEq       ....     5
   Bias factor          DIISBfac        ....   1.050
   Max. coefficient     DIISMaxC        ....  10.000
 Newton-Raphson         CNVNR           .... off
 SOSCF                  CNVSOSCF        .... on
   Start iteration      SOSCFMaxIt      ....   150
   Startup grad/error   SOSCFStart      ....  0.003300
 Level Shifting         CNVShift        .... on
   Level shift para.    LevelShift      ....    0.2500
   Turn off err/grad.   ShiftErr        ....    0.0010
 Zerner damping         CNVZerner       .... off
 Static damping         CNVDamp         .... on
   Fraction old density DampFac         ....    0.7000
   Max. Damping (<1)    DampMax         ....    0.9800
   Min. Damping (>=0)   DampMin         ....    0.0000
   Turn off err/grad.   DampErr         ....    0.1000
 Fernandez-Rico         CNVRico         .... off

SCF Procedure:
 Maximum # iterations   MaxIter         ....   125
 SCF integral mode      SCFMode         .... Direct
   Integral package                     .... LIBINT
 Reset frequency        DirectResetFreq ....    20
 Integral Threshold     Thresh          ....  1.000e-12 Eh
 Primitive CutOff       TCut            ....  1.000e-14 Eh

Convergence Tolerance:
 Convergence Check Mode ConvCheckMode   .... Total+1el-Energy
 Convergence forced     ConvForced      .... 0
 Energy Change          TolE            ....  1.000e-09 Eh
 1-El. energy change                    ....  1.000e-06 Eh
 Orbital Gradient       TolG            ....  2.000e-06
 Orbital Rotation angle TolX            ....  2.000e-06
 DIIS Error             TolErr          ....  1.000e-08


Diagonalization of the overlap matrix:
Smallest eigenvalue                        ... 4.699e-03
Time for diagonalization                   ...    0.001 sec
Threshold for overlap eigenvalues          ... 1.000e-08
Number of eigenvalues below threshold      ... 0
Time for construction of square roots      ...    0.001 sec
Total time needed                          ...    0.002 sec

-------------------
DFT GRID GENERATION
-------------------

General Integration Accuracy     IntAcc      ...  5.010
Radial Grid Type                 RadialGrid  ... Gauss-Chebyshev
Angular Grid (max. acc.)         AngularGrid ... Lebedev-434
Angular grid pruning method      GridPruning ... 3 (G Style)
Weight generation scheme         WeightScheme... Becke
Basis function cutoff            BFCut       ...    1.0000e-12
Integration weight cutoff        WCut        ...    1.0000e-14
Grids for H and He will be reduced by one unit

# of grid points (after initial pruning)     ...  11992 (   0.0 sec)
# of grid points (after weights+screening)   ...  11992 (   0.0 sec)
Grid point division into batches done        ...    0.1 sec
Reduced shell lists constructed in    0.1 sec

Total number of grid points                  ...    11992
Total number of batches                      ...      188
Average number of points per batch           ...       63
Average number of grid points per atom       ...    11992
Average number of shells per batch           ...     0.00 ( 0.00%)
Average number of basis functions per batch  ...     0.00 ( 0.00%)
Average number of large shells per batch     ...     0.00 ( -nan%)
Average number of large basis fcns per batch ...     0.00 ( -nan%)
Maximum spatial batch extension              ...  18.71, 18.71, 18.71 au
Average spatial batch extension              ...   0.97,  0.98,  0.97 au

Time for grid setup =    0.155 sec

------------------------------
INITIAL GUESS: MODEL POTENTIAL
------------------------------
Loading ZORA relativistic densities                ... done
Calculating cut-offs                               ... done
Setting up the integral package                    ... done
Initializing the effective Hamiltonian             ... done
Starting the Coulomb interaction                   ... done (   0.0 sec)
Reading the grid                                   ... done
Mapping shells                                     ... done
Starting the XC term evaluation                    ... done (   0.0 sec)
  promolecular density results
     # of electrons  =     18.000000116
     EX              =    -28.047870263
     EC              =     -1.433252902
     EX+EC           =    -29.481123164
Transforming the Hamiltonian                       ... done (   0.0 sec)
Diagonalizing the Hamiltonian                      ... done (   0.0 sec)
Back transforming the eigenvectors                 ... done (   0.0 sec)
Now organizing SCF variables                       ... done
                      ------------------
                      INITIAL GUESS DONE (   0.2 sec)
                      ------------------
--------------
SCF ITERATIONS
--------------
ITER       Energy         Delta-E        Max-DP      RMS-DP      [F,P]     Damp
               ***  Starting incremental Fock matrix formation  ***
  0   -311.6502785893   0.000000000000 0.01175829  0.00047000  2.5539993 0.7000
  1   -311.6608495313  -0.010570941979 0.00821376  0.00032677  1.7735044 0.7000
  2   -311.6681610212  -0.007311489898 0.00572047  0.00022660  1.2305312 0.7000
  3   -311.6732369835  -0.005075962326 0.00398423  0.00015715  0.8538588 0.7000
  4   -311.6767700771  -0.003533093654 0.00277513  0.00010900  0.5925272 0.7000
                      *** Initiating the SOSCF procedure ***
                      *** Re-Reading the Fockian *** 
                      *** Removing any level shift *** 
ITER      Energy       Delta-E        Grad      Rot      Max-DP    RMS-DP
  5   -311.67923366  -0.0024635815  0.002659  0.002659  0.006444  0.000252
               *** Restarting incremental Fock matrix formation ***
  6   -311.68495223  -0.0057185716  0.006125  0.000027  0.000226  0.000007
  7   -311.68495283  -0.0000005979  0.000176  0.000001  0.000007  0.000000
                 **** Energy Check signals convergence ****
              ***Rediagonalizing the Fockian in SOSCF/NRSCF***

               *****************************************************
               *                     SUCCESS                       *
               *           SCF CONVERGED AFTER   8 CYCLES          *
               *****************************************************

Setting up the final grid:

General Integration Accuracy     IntAcc      ...  5.340
Radial Grid Type                 RadialGrid  ... Gauss-Chebyshev
Angular Grid (max. acc.)         AngularGrid ... Lebedev-590
Angular grid pruning method      GridPruning ... 3 (G Style)
Weight generation scheme         WeightScheme... Becke
Basis function cutoff            BFCut       ...    1.0000e-12
Integration weight cutoff        WCut        ...    1.0000e-14
Grids for H and He will be reduced by one unit

# of grid points (after initial pruning)     ...  18110 (   0.0 sec)
# of grid points (after weights+screening)   ...  18110 (   0.0 sec)
Grid point division into batches done        ...    0.2 sec
Reduced shell lists constructed in    0.2 sec

Total number of grid points                  ...    18110
Total number of batches                      ...      283
Average number of points per batch           ...       63
Average number of grid points per atom       ...    18110
Average number of shells per batch           ...     0.00 ( 0.00%)
Average number of basis functions per batch  ...     0.00 ( 0.00%)
Average number of large shells per batch     ...     0.00 ( -nan%)
Average number of large basis fcns per batch ...     0.00 ( -nan%)
Maximum spatial batch extension              ...  19.03, 19.03, 19.03 au
Average spatial batch extension              ...   0.84,  0.84,  0.80 au

Final grid set up in    0.2 sec
Final integration                            ... done (   0.0 sec)
Change in XC energy                          ...    -0.000001884
Integrated number of electrons               ...     1.999999213
Previous integrated no of electrons          ...     1.999998880

----------------
TOTAL SCF ENERGY
----------------

Total Energy       :         -311.68495471 Eh           -8481.37880 eV

Components:
Nuclear Repulsion  :            0.00000000 Eh               0.00000 eV
Electronic Energy  :         -311.68495471 Eh           -8481.37880 eV
One Electron Energy:         -324.00737970 Eh           -8816.68903 eV
Two Electron Energy:           12.32242499 Eh             335.31023 eV

Virial components:
Potential Energy   :         -623.39791404 Eh          -16963.51965 eV
Kinetic Energy     :          311.71295932 Eh            8482.14085 eV
Virial Ratio       :            1.99991016


DFT components:
N(Alpha)           :        0.999999606279 electrons
N(Beta)            :        0.999999606279 electrons
N(Total)           :        1.999999212558 electrons
E(X)               :       -9.438310838616 Eh       
E(C)               :       -0.236933277062 Eh       
E(XC)              :       -9.675244115678 Eh       
DFET-embed. en.    :        0.000000000000 Eh       

---------------
SCF CONVERGENCE
---------------

  Last Energy change         ...   -5.1494e-10  Tolerance :   1.0000e-09
  Last MAX-Density change    ...    2.0358e-10  Tolerance :   1.0000e-08
  Last RMS-Density change    ...    1.0207e-11  Tolerance :   1.0000e-09
  Last Orbital Gradient      ...    7.9974e-09  Tolerance :   2.0000e-06
  Last Orbital Rotation      ...    2.7559e-11  Tolerance :   2.0000e-06

================================================================================
                                        WARNING
Number of found core electrons (2) does not match given number of chemical core electrons (10)
================================================================================
             **** THE GBW FILE WAS UPDATED (Ar_zora-def2-tzvp_548.143956_.gbw) ****
             **** DENSITY FILE WAS UPDATED (Ar_zora-def2-tzvp_548.143956_.scfp) ****
             **** ENERGY FILE WAS UPDATED (Ar_zora-def2-tzvp_548.143956_.en.tmp) ****
             **** THE GBW FILE WAS UPDATED (Ar_zora-def2-tzvp_548.143956_.gbw) ****
             **** DENSITY FILE WAS UPDATED (Ar_zora-def2-tzvp_548.143956_.scfp) ****
----------------
ORBITAL ENERGIES
----------------

  NO   OCC          E(Eh)            E(eV) 
   0   2.0000    -146.426244     -3984.4607 
   1   0.0000     -34.123365      -928.5440 
   2   0.0000     -32.763042      -891.5277 
   3   0.0000     -32.763042      -891.5277 
   4   0.0000     -32.763042      -891.5277 
   5   0.0000     -14.782141      -402.2425 
   6   0.0000     -13.474990      -366.6731 
   7   0.0000     -13.474990      -366.6731 
   8   0.0000     -13.474990      -366.6731 
   9   0.0000     -12.009119      -326.7847 
  10   0.0000     -12.009119      -326.7847 
  11   0.0000     -12.009119      -326.7847 
  12   0.0000     -12.009119      -326.7847 
  13   0.0000     -12.009119      -326.7847 
  14   0.0000      -8.209658      -223.3961 
  15   0.0000      -7.236144      -196.9055 
  16   0.0000      -7.236144      -196.9055 
  17   0.0000      -7.236144      -196.9055 
  18   0.0000      -7.010254      -190.7587 
  19   0.0000      -7.010254      -190.7587 
  20   0.0000      -7.010254      -190.7587 
  21   0.0000      -7.010254      -190.7587 
  22   0.0000      -7.010254      -190.7587 
  23   0.0000      -7.010254      -190.7587 
  24   0.0000      -7.010254      -190.7587 
  25   0.0000      -6.250160      -170.0755 
  26   0.0000      -6.250160      -170.0755 
  27   0.0000      -6.250160      -170.0755 
  28   0.0000      -6.250160      -170.0755 
  29   0.0000      -6.250160      -170.0755 
  30   0.0000      -5.223874      -142.1488 
  31   0.0000      -4.343814      -118.2012 
  32   0.0000      -4.343814      -118.2012 
  33   0.0000      -4.343814      -118.2012 
  34   0.0000       5.760300       156.7457 
  35   0.0000     127.580282      3471.6360 
  36   0.0000    1022.331679     27819.0593 

                    ********************************
                    * MULLIKEN POPULATION ANALYSIS *
                    ********************************

-----------------------
MULLIKEN ATOMIC CHARGES
-----------------------
   0 Ar:   16.000000
Sum of atomic charges:   16.0000000

--------------------------------
MULLIKEN REDUCED ORBITAL CHARGES
--------------------------------
  0 Ars       :     2.000000  s :     2.000000
      pz      :     0.000000  p :     0.000000
      px      :     0.000000
      py      :     0.000000
      dz2     :     0.000000  d :     0.000000
      dxz     :     0.000000
      dyz     :     0.000000
      dx2y2   :     0.000000
      dxy     :     0.000000
      f0      :     0.000000  f :     0.000000
      f+1     :     0.000000
      f-1     :     0.000000
      f+2     :     0.000000
      f-2     :     0.000000
      f+3     :     0.000000
      f-3     :     0.000000


                     *******************************
                     * LOEWDIN POPULATION ANALYSIS *
                     *******************************

----------------------
LOEWDIN ATOMIC CHARGES
----------------------
   0 Ar:   16.000000

-------------------------------
LOEWDIN REDUCED ORBITAL CHARGES
-------------------------------
  0 Ars       :     2.000000  s :     2.000000
      pz      :     0.000000  p :     0.000000
      px      :     0.000000
      py      :     0.000000
      dz2     :     0.000000  d :     0.000000
      dxz     :     0.000000
      dyz     :     0.000000
      dx2y2   :     0.000000
      dxy     :     0.000000
      f0      :     0.000000  f :     0.000000
      f+1     :     0.000000
      f-1     :     0.000000
      f+2     :     0.000000
      f-2     :     0.000000
      f+3     :     0.000000
      f-3     :     0.000000


                      *****************************
                      * MAYER POPULATION ANALYSIS *
                      *****************************

  NA   - Mulliken gross atomic population
  ZA   - Total nuclear charge
  QA   - Mulliken gross atomic charge
  VA   - Mayer's total valence
  BVA  - Mayer's bonded valence
  FA   - Mayer's free valence

  ATOM       NA         ZA         QA         VA         BVA        FA
  0 Ar     2.0000    18.0000    16.0000     0.0000     0.0000     0.0000

  Mayer bond orders larger than 0.100000


--------------------------
ATOM BASIS FOR ELEMENT Ar
--------------------------
 NewGTO Ar
 S 14
    1      79111.422997999995         0.000638089532
    2      11864.746009000000         0.004247692123
    3       2700.164297300000         0.020675515755
    4        763.959434850000         0.079218917881
    5        248.451505610000         0.223392955956
    6         88.283581000000         0.402972104578
    7         32.948607070000         0.305056439901
    8        142.553580000000         0.028937403576
    9         44.163688010000         0.053141277570
   10          8.952499500000         0.046975238351
   11          4.554692090000        -0.023601284177
   12          2.144407900000         0.008310348909
   13          0.607087770000        -0.001992550592
   14          0.216514320000         0.000628056507
 S 14
    1      79111.422997999995         0.000224940563
    2      11864.746009000000         0.001497404689
    3       2700.164297300000         0.007288573026
    4        763.959434850000         0.027926407004
    5        248.451505610000         0.078750919311
    6         88.283581000000         0.142056510047
    7         32.948607070000         0.107539089499
    8        142.553580000000         0.051022914352
    9         44.163688010000         0.156913424384
   10          8.952499500000        -0.577149519947
   11          4.554692090000        -0.502088435283
   12          2.144407900000        -0.087889474660
   13          0.607087770000         0.007377949904
   14          0.216514320000        -0.002269394054
 S 14
    1      79111.422997999995        -0.000120175651
    2      11864.746009000000        -0.000799996147
    3       2700.164297300000        -0.003893957582
    4        763.959434850000        -0.014919826405
    5        248.451505610000        -0.042073083200
    6         88.283581000000        -0.075894420263
    7         32.948607070000        -0.057453311013
    8        142.553580000000        -0.033520753414
    9         44.163688010000        -0.100662572250
   10          8.952499500000         0.512533140332
   11          4.554692090000         1.050870899234
   12          2.144407900000        -1.449810639465
   13          0.607087770000        -0.437766561322
   14          0.216514320000         0.082928604202
 S 14
    1      79111.422997999995         0.000080280617
    2      11864.746009000000         0.000534419275
    3       2700.164297300000         0.002601270013
    4        763.959434850000         0.009966851517
    5        248.451505610000         0.028105968645
    6         88.283581000000         0.050699545506
    7         32.948607070000         0.038380380877
    8        142.553580000000         0.024388373355
    9         44.163688010000         0.070162269350
   10          8.952499500000        -0.390158174698
   11          4.554692090000        -1.197050498254
   12          2.144407900000         2.620682021416
   13          0.607087770000        -1.459483306560
   14          0.216514320000        -0.243286020699
 S 14
    1      79111.422997999995         0.000052760787
    2      11864.746009000000         0.000351222783
    3       2700.164297300000         0.001709566505
    4        763.959434850000         0.006550260229
    5        248.451505610000         0.018471370653
    6         88.283581000000         0.033319972309
    7         32.948607070000         0.025223761185
    8        142.553580000000         0.015349503968
    9         44.163688010000         0.050404365654
   10          8.952499500000        -0.331078811917
   11          4.554692090000        -0.780238298467
   12          2.144407900000         2.268791901997
   13          0.607087770000        -3.004519889945
   14          0.216514320000         2.153937500953
 S 14
    1      79111.422997999995         0.000227171172
    2      11864.746009000000         0.001512253612
    3       2700.164297300000         0.007360849721
    4        763.959434850000         0.028203337537
    5        248.451505610000         0.079531848057
    6         88.283581000000         0.143465204868
    7         32.948607070000         0.108605494399
    8        142.553580000000         0.015401817328
    9         44.163688010000         0.400929202606
   10          8.952499500000        -5.458133722958
   11          4.554692090000         9.213396579947
   12          2.144407900000        -5.852549139195
   13          0.607087770000         2.041873347889
   14          0.216514320000        -0.718721507582
 S 14
    1      79111.422997999995         0.000412938001
    2      11864.746009000000         0.002748883044
    3       2700.164297300000         0.013380106900
    4        763.959434850000         0.051266319174
    5        248.451505610000         0.144568177496
    6         88.283581000000         0.260782362145
    7         32.948607070000         0.197416491318
    8        142.553580000000         1.332648484257
    9         44.163688010000        -2.907539455728
   10          8.952499500000         3.630793416098
   11          4.554692090000        -4.033339416320
   12          2.144407900000         1.913950171788
   13          0.607087770000        -0.533372007324
   14          0.216514320000         0.174002811271
 S 14
    1      79111.422997999995        -0.006116491481
    2      11864.746009000000        -0.040716813836
    3       2700.164297300000        -0.198187886870
    4        763.959434850000        -0.759363399732
    5        248.451505610000        -2.141362682660
    6         88.283581000000        -3.862742328666
    7         32.948607070000        -2.924158793253
    8        142.553580000000         5.835044947222
    9         44.163688010000         2.865098257380
   10          8.952499500000         1.869622146870
   11          4.554692090000        -1.843378109892
   12          2.144407900000         0.837514473450
   13          0.607087770000        -0.229674629401
   14          0.216514320000         0.074676153880
 P 9
    1        776.775419980000         0.002753746746
    2        183.801070180000         0.020882831698
    3         58.694003170000         0.095662024312
    4         21.701591700000         0.277916397791
    5          8.582148960000         0.481028020912
    6          3.492267920000         0.389765460431
    7          1.263742700000        -0.212124661633
    8          0.466078700000         0.116404226358
    9          0.157660030000        -0.037101323308
 P 9
    1        776.775419980000         0.001173738966
    2        183.801070180000         0.008900961321
    3         58.694003170000         0.040774354294
    4         21.701591700000         0.118457263988
    5          8.582148960000         0.205030231075
    6          3.492267920000         0.166131075412
    7          1.263742700000        -1.337790645453
    8          0.466078700000         0.309932007344
    9          0.157660030000        -0.096123672477
 P 9
    1        776.775419980000         0.000547880217
    2        183.801070180000         0.004154808493
    3         58.694003170000         0.019032734487
    4         21.701591700000         0.055293718137
    5          8.582148960000         0.095704420523
    6          3.492267920000         0.077546994995
    7          1.263742700000        -1.196857782648
    8          0.466078700000         1.692786491109
    9          0.157660030000        -0.157064555642
 P 9
    1        776.775419980000         0.000240495936
    2        183.801070180000         0.001823782875
    3         58.694003170000         0.008354554799
    4         21.701591700000         0.024271572669
    5          8.582148960000         0.042010139230
    6          3.492267920000         0.034039807554
    7          1.263742700000        -0.661118368435
    8          0.466078700000         1.544672088542
    9          0.157660030000        -1.573865943812
 D 3
    1          5.551000000000         0.200581916316
    2          1.235000000000         1.002909581578
    3          0.412000000000        -0.198074234762
 D 3
    1          5.551000000000         0.094772134961
    2          1.235000000000         0.473860674805
    3          0.412000000000        -1.199590438066
 F 1
    1          0.890000000000         1.000000000000
 end
  // -----------------------------------------------
  // The basis set
  // -----------------------------------------------
  BAS[ATNO] = new BFNGauss[NSH];
  // Basis function   1 L = s
  InitBFNGauss(BAS[ATNO][  0]);
  BAS[ATNO][  0].l  = 0;
  BAS[ATNO][  0].ng = 14;
  BAS[ATNO][  0].a[  0] =     79111.422997999995;     BAS[ATNO][  0].d[  0] =         0.000638089532;
  BAS[ATNO][  0].a[  1] =     11864.746009000000;     BAS[ATNO][  0].d[  1] =         0.004247692123;
  BAS[ATNO][  0].a[  2] =      2700.164297300000;     BAS[ATNO][  0].d[  2] =         0.020675515755;
  BAS[ATNO][  0].a[  3] =       763.959434850000;     BAS[ATNO][  0].d[  3] =         0.079218917881;
  BAS[ATNO][  0].a[  4] =       248.451505610000;     BAS[ATNO][  0].d[  4] =         0.223392955956;
  BAS[ATNO][  0].a[  5] =        88.283581000000;     BAS[ATNO][  0].d[  5] =         0.402972104578;
  BAS[ATNO][  0].a[  6] =        32.948607070000;     BAS[ATNO][  0].d[  6] =         0.305056439901;
  BAS[ATNO][  0].a[  7] =       142.553580000000;     BAS[ATNO][  0].d[  7] =         0.028937403576;
  BAS[ATNO][  0].a[  8] =        44.163688010000;     BAS[ATNO][  0].d[  8] =         0.053141277570;
  BAS[ATNO][  0].a[  9] =         8.952499500000;     BAS[ATNO][  0].d[  9] =         0.046975238351;
  BAS[ATNO][  0].a[ 10] =         4.554692090000;     BAS[ATNO][  0].d[ 10] =        -0.023601284177;
  BAS[ATNO][  0].a[ 11] =         2.144407900000;     BAS[ATNO][  0].d[ 11] =         0.008310348909;
  BAS[ATNO][  0].a[ 12] =         0.607087770000;     BAS[ATNO][  0].d[ 12] =        -0.001992550592;
  BAS[ATNO][  0].a[ 13] =         0.216514320000;     BAS[ATNO][  0].d[ 13] =         0.000628056507;

  // Basis function   2 L = s
  InitBFNGauss(BAS[ATNO][  1]);
  BAS[ATNO][  1].l  = 0;
  BAS[ATNO][  1].ng = 14;
  BAS[ATNO][  1].a[  0] =     79111.422997999995;     BAS[ATNO][  1].d[  0] =        -0.000224940563;
  BAS[ATNO][  1].a[  1] =     11864.746009000000;     BAS[ATNO][  1].d[  1] =        -0.001497404689;
  BAS[ATNO][  1].a[  2] =      2700.164297300000;     BAS[ATNO][  1].d[  2] =        -0.007288573026;
  BAS[ATNO][  1].a[  3] =       763.959434850000;     BAS[ATNO][  1].d[  3] =        -0.027926407004;
  BAS[ATNO][  1].a[  4] =       248.451505610000;     BAS[ATNO][  1].d[  4] =        -0.078750919311;
  BAS[ATNO][  1].a[  5] =        88.283581000000;     BAS[ATNO][  1].d[  5] =        -0.142056510047;
  BAS[ATNO][  1].a[  6] =        32.948607070000;     BAS[ATNO][  1].d[  6] =        -0.107539089499;
  BAS[ATNO][  1].a[  7] =       142.553580000000;     BAS[ATNO][  1].d[  7] =        -0.051022914352;
  BAS[ATNO][  1].a[  8] =        44.163688010000;     BAS[ATNO][  1].d[  8] =        -0.156913424384;
  BAS[ATNO][  1].a[  9] =         8.952499500000;     BAS[ATNO][  1].d[  9] =         0.577149519947;
  BAS[ATNO][  1].a[ 10] =         4.554692090000;     BAS[ATNO][  1].d[ 10] =         0.502088435283;
  BAS[ATNO][  1].a[ 11] =         2.144407900000;     BAS[ATNO][  1].d[ 11] =         0.087889474660;
  BAS[ATNO][  1].a[ 12] =         0.607087770000;     BAS[ATNO][  1].d[ 12] =        -0.007377949904;
  BAS[ATNO][  1].a[ 13] =         0.216514320000;     BAS[ATNO][  1].d[ 13] =         0.002269394054;

  // Basis function   3 L = s
  InitBFNGauss(BAS[ATNO][  2]);
  BAS[ATNO][  2].l  = 0;
  BAS[ATNO][  2].ng = 14;
  BAS[ATNO][  2].a[  0] =     79111.422997999995;     BAS[ATNO][  2].d[  0] =         0.000120175651;
  BAS[ATNO][  2].a[  1] =     11864.746009000000;     BAS[ATNO][  2].d[  1] =         0.000799996147;
  BAS[ATNO][  2].a[  2] =      2700.164297300000;     BAS[ATNO][  2].d[  2] =         0.003893957582;
  BAS[ATNO][  2].a[  3] =       763.959434850000;     BAS[ATNO][  2].d[  3] =         0.014919826405;
  BAS[ATNO][  2].a[  4] =       248.451505610000;     BAS[ATNO][  2].d[  4] =         0.042073083200;
  BAS[ATNO][  2].a[  5] =        88.283581000000;     BAS[ATNO][  2].d[  5] =         0.075894420263;
  BAS[ATNO][  2].a[  6] =        32.948607070000;     BAS[ATNO][  2].d[  6] =         0.057453311013;
  BAS[ATNO][  2].a[  7] =       142.553580000000;     BAS[ATNO][  2].d[  7] =         0.033520753414;
  BAS[ATNO][  2].a[  8] =        44.163688010000;     BAS[ATNO][  2].d[  8] =         0.100662572250;
  BAS[ATNO][  2].a[  9] =         8.952499500000;     BAS[ATNO][  2].d[  9] =        -0.512533140332;
  BAS[ATNO][  2].a[ 10] =         4.554692090000;     BAS[ATNO][  2].d[ 10] =        -1.050870899234;
  BAS[ATNO][  2].a[ 11] =         2.144407900000;     BAS[ATNO][  2].d[ 11] =         1.449810639465;
  BAS[ATNO][  2].a[ 12] =         0.607087770000;     BAS[ATNO][  2].d[ 12] =         0.437766561322;
  BAS[ATNO][  2].a[ 13] =         0.216514320000;     BAS[ATNO][  2].d[ 13] =        -0.082928604202;

  // Basis function   4 L = s
  InitBFNGauss(BAS[ATNO][  3]);
  BAS[ATNO][  3].l  = 0;
  BAS[ATNO][  3].ng = 14;
  BAS[ATNO][  3].a[  0] =     79111.422997999995;     BAS[ATNO][  3].d[  0] =         0.000080280617;
  BAS[ATNO][  3].a[  1] =     11864.746009000000;     BAS[ATNO][  3].d[  1] =         0.000534419275;
  BAS[ATNO][  3].a[  2] =      2700.164297300000;     BAS[ATNO][  3].d[  2] =         0.002601270013;
  BAS[ATNO][  3].a[  3] =       763.959434850000;     BAS[ATNO][  3].d[  3] =         0.009966851517;
  BAS[ATNO][  3].a[  4] =       248.451505610000;     BAS[ATNO][  3].d[  4] =         0.028105968645;
  BAS[ATNO][  3].a[  5] =        88.283581000000;     BAS[ATNO][  3].d[  5] =         0.050699545506;
  BAS[ATNO][  3].a[  6] =        32.948607070000;     BAS[ATNO][  3].d[  6] =         0.038380380877;
  BAS[ATNO][  3].a[  7] =       142.553580000000;     BAS[ATNO][  3].d[  7] =         0.024388373355;
  BAS[ATNO][  3].a[  8] =        44.163688010000;     BAS[ATNO][  3].d[  8] =         0.070162269350;
  BAS[ATNO][  3].a[  9] =         8.952499500000;     BAS[ATNO][  3].d[  9] =        -0.390158174698;
  BAS[ATNO][  3].a[ 10] =         4.554692090000;     BAS[ATNO][  3].d[ 10] =        -1.197050498254;
  BAS[ATNO][  3].a[ 11] =         2.144407900000;     BAS[ATNO][  3].d[ 11] =         2.620682021416;
  BAS[ATNO][  3].a[ 12] =         0.607087770000;     BAS[ATNO][  3].d[ 12] =        -1.459483306560;
  BAS[ATNO][  3].a[ 13] =         0.216514320000;     BAS[ATNO][  3].d[ 13] =        -0.243286020699;

  // Basis function   5 L = s
  InitBFNGauss(BAS[ATNO][  4]);
  BAS[ATNO][  4].l  = 0;
  BAS[ATNO][  4].ng = 14;
  BAS[ATNO][  4].a[  0] =     79111.422997999995;     BAS[ATNO][  4].d[  0] =        -0.000052760787;
  BAS[ATNO][  4].a[  1] =     11864.746009000000;     BAS[ATNO][  4].d[  1] =        -0.000351222783;
  BAS[ATNO][  4].a[  2] =      2700.164297300000;     BAS[ATNO][  4].d[  2] =        -0.001709566505;
  BAS[ATNO][  4].a[  3] =       763.959434850000;     BAS[ATNO][  4].d[  3] =        -0.006550260229;
  BAS[ATNO][  4].a[  4] =       248.451505610000;     BAS[ATNO][  4].d[  4] =        -0.018471370653;
  BAS[ATNO][  4].a[  5] =        88.283581000000;     BAS[ATNO][  4].d[  5] =        -0.033319972309;
  BAS[ATNO][  4].a[  6] =        32.948607070000;     BAS[ATNO][  4].d[  6] =        -0.025223761185;
  BAS[ATNO][  4].a[  7] =       142.553580000000;     BAS[ATNO][  4].d[  7] =        -0.015349503968;
  BAS[ATNO][  4].a[  8] =        44.163688010000;     BAS[ATNO][  4].d[  8] =        -0.050404365654;
  BAS[ATNO][  4].a[  9] =         8.952499500000;     BAS[ATNO][  4].d[  9] =         0.331078811917;
  BAS[ATNO][  4].a[ 10] =         4.554692090000;     BAS[ATNO][  4].d[ 10] =         0.780238298467;
  BAS[ATNO][  4].a[ 11] =         2.144407900000;     BAS[ATNO][  4].d[ 11] =        -2.268791901997;
  BAS[ATNO][  4].a[ 12] =         0.607087770000;     BAS[ATNO][  4].d[ 12] =         3.004519889945;
  BAS[ATNO][  4].a[ 13] =         0.216514320000;     BAS[ATNO][  4].d[ 13] =        -2.153937500953;

  // Basis function   6 L = s
  InitBFNGauss(BAS[ATNO][  5]);
  BAS[ATNO][  5].l  = 0;
  BAS[ATNO][  5].ng = 14;
  BAS[ATNO][  5].a[  0] =     79111.422997999995;     BAS[ATNO][  5].d[  0] =         0.000227171172;
  BAS[ATNO][  5].a[  1] =     11864.746009000000;     BAS[ATNO][  5].d[  1] =         0.001512253612;
  BAS[ATNO][  5].a[  2] =      2700.164297300000;     BAS[ATNO][  5].d[  2] =         0.007360849721;
  BAS[ATNO][  5].a[  3] =       763.959434850000;     BAS[ATNO][  5].d[  3] =         0.028203337537;
  BAS[ATNO][  5].a[  4] =       248.451505610000;     BAS[ATNO][  5].d[  4] =         0.079531848057;
  BAS[ATNO][  5].a[  5] =        88.283581000000;     BAS[ATNO][  5].d[  5] =         0.143465204868;
  BAS[ATNO][  5].a[  6] =        32.948607070000;     BAS[ATNO][  5].d[  6] =         0.108605494399;
  BAS[ATNO][  5].a[  7] =       142.553580000000;     BAS[ATNO][  5].d[  7] =         0.015401817328;
  BAS[ATNO][  5].a[  8] =        44.163688010000;     BAS[ATNO][  5].d[  8] =         0.400929202606;
  BAS[ATNO][  5].a[  9] =         8.952499500000;     BAS[ATNO][  5].d[  9] =        -5.458133722958;
  BAS[ATNO][  5].a[ 10] =         4.554692090000;     BAS[ATNO][  5].d[ 10] =         9.213396579947;
  BAS[ATNO][  5].a[ 11] =         2.144407900000;     BAS[ATNO][  5].d[ 11] =        -5.852549139195;
  BAS[ATNO][  5].a[ 12] =         0.607087770000;     BAS[ATNO][  5].d[ 12] =         2.041873347889;
  BAS[ATNO][  5].a[ 13] =         0.216514320000;     BAS[ATNO][  5].d[ 13] =        -0.718721507582;

  // Basis function   7 L = s
  InitBFNGauss(BAS[ATNO][  6]);
  BAS[ATNO][  6].l  = 0;
  BAS[ATNO][  6].ng = 14;
  BAS[ATNO][  6].a[  0] =     79111.422997999995;     BAS[ATNO][  6].d[  0] =        -0.000412938001;
  BAS[ATNO][  6].a[  1] =     11864.746009000000;     BAS[ATNO][  6].d[  1] =        -0.002748883044;
  BAS[ATNO][  6].a[  2] =      2700.164297300000;     BAS[ATNO][  6].d[  2] =        -0.013380106900;
  BAS[ATNO][  6].a[  3] =       763.959434850000;     BAS[ATNO][  6].d[  3] =        -0.051266319174;
  BAS[ATNO][  6].a[  4] =       248.451505610000;     BAS[ATNO][  6].d[  4] =        -0.144568177496;
  BAS[ATNO][  6].a[  5] =        88.283581000000;     BAS[ATNO][  6].d[  5] =        -0.260782362145;
  BAS[ATNO][  6].a[  6] =        32.948607070000;     BAS[ATNO][  6].d[  6] =        -0.197416491318;
  BAS[ATNO][  6].a[  7] =       142.553580000000;     BAS[ATNO][  6].d[  7] =        -1.332648484257;
  BAS[ATNO][  6].a[  8] =        44.163688010000;     BAS[ATNO][  6].d[  8] =         2.907539455728;
  BAS[ATNO][  6].a[  9] =         8.952499500000;     BAS[ATNO][  6].d[  9] =        -3.630793416098;
  BAS[ATNO][  6].a[ 10] =         4.554692090000;     BAS[ATNO][  6].d[ 10] =         4.033339416320;
  BAS[ATNO][  6].a[ 11] =         2.144407900000;     BAS[ATNO][  6].d[ 11] =        -1.913950171788;
  BAS[ATNO][  6].a[ 12] =         0.607087770000;     BAS[ATNO][  6].d[ 12] =         0.533372007324;
  BAS[ATNO][  6].a[ 13] =         0.216514320000;     BAS[ATNO][  6].d[ 13] =        -0.174002811271;

  // Basis function   8 L = s
  InitBFNGauss(BAS[ATNO][  7]);
  BAS[ATNO][  7].l  = 0;
  BAS[ATNO][  7].ng = 14;
  BAS[ATNO][  7].a[  0] =     79111.422997999995;     BAS[ATNO][  7].d[  0] =        -0.006116491481;
  BAS[ATNO][  7].a[  1] =     11864.746009000000;     BAS[ATNO][  7].d[  1] =        -0.040716813836;
  BAS[ATNO][  7].a[  2] =      2700.164297300000;     BAS[ATNO][  7].d[  2] =        -0.198187886870;
  BAS[ATNO][  7].a[  3] =       763.959434850000;     BAS[ATNO][  7].d[  3] =        -0.759363399732;
  BAS[ATNO][  7].a[  4] =       248.451505610000;     BAS[ATNO][  7].d[  4] =        -2.141362682660;
  BAS[ATNO][  7].a[  5] =        88.283581000000;     BAS[ATNO][  7].d[  5] =        -3.862742328666;
  BAS[ATNO][  7].a[  6] =        32.948607070000;     BAS[ATNO][  7].d[  6] =        -2.924158793253;
  BAS[ATNO][  7].a[  7] =       142.553580000000;     BAS[ATNO][  7].d[  7] =         5.835044947222;
  BAS[ATNO][  7].a[  8] =        44.163688010000;     BAS[ATNO][  7].d[  8] =         2.865098257380;
  BAS[ATNO][  7].a[  9] =         8.952499500000;     BAS[ATNO][  7].d[  9] =         1.869622146870;
  BAS[ATNO][  7].a[ 10] =         4.554692090000;     BAS[ATNO][  7].d[ 10] =        -1.843378109892;
  BAS[ATNO][  7].a[ 11] =         2.144407900000;     BAS[ATNO][  7].d[ 11] =         0.837514473450;
  BAS[ATNO][  7].a[ 12] =         0.607087770000;     BAS[ATNO][  7].d[ 12] =        -0.229674629401;
  BAS[ATNO][  7].a[ 13] =         0.216514320000;     BAS[ATNO][  7].d[ 13] =         0.074676153880;

  // Basis function   9 L = p
  InitBFNGauss(BAS[ATNO][  8]);
  BAS[ATNO][  8].l  = 1;
  BAS[ATNO][  8].ng = 9;
  BAS[ATNO][  8].a[  0] =       776.775419980000;     BAS[ATNO][  8].d[  0] =         0.002753746746;
  BAS[ATNO][  8].a[  1] =       183.801070180000;     BAS[ATNO][  8].d[  1] =         0.020882831698;
  BAS[ATNO][  8].a[  2] =        58.694003170000;     BAS[ATNO][  8].d[  2] =         0.095662024312;
  BAS[ATNO][  8].a[  3] =        21.701591700000;     BAS[ATNO][  8].d[  3] =         0.277916397791;
  BAS[ATNO][  8].a[  4] =         8.582148960000;     BAS[ATNO][  8].d[  4] =         0.481028020912;
  BAS[ATNO][  8].a[  5] =         3.492267920000;     BAS[ATNO][  8].d[  5] =         0.389765460431;
  BAS[ATNO][  8].a[  6] =         1.263742700000;     BAS[ATNO][  8].d[  6] =        -0.212124661633;
  BAS[ATNO][  8].a[  7] =         0.466078700000;     BAS[ATNO][  8].d[  7] =         0.116404226358;
  BAS[ATNO][  8].a[  8] =         0.157660030000;     BAS[ATNO][  8].d[  8] =        -0.037101323308;

  // Basis function  10 L = p
  InitBFNGauss(BAS[ATNO][  9]);
  BAS[ATNO][  9].l  = 1;
  BAS[ATNO][  9].ng = 9;
  BAS[ATNO][  9].a[  0] =       776.775419980000;     BAS[ATNO][  9].d[  0] =        -0.001173738966;
  BAS[ATNO][  9].a[  1] =       183.801070180000;     BAS[ATNO][  9].d[  1] =        -0.008900961321;
  BAS[ATNO][  9].a[  2] =        58.694003170000;     BAS[ATNO][  9].d[  2] =        -0.040774354294;
  BAS[ATNO][  9].a[  3] =        21.701591700000;     BAS[ATNO][  9].d[  3] =        -0.118457263988;
  BAS[ATNO][  9].a[  4] =         8.582148960000;     BAS[ATNO][  9].d[  4] =        -0.205030231075;
  BAS[ATNO][  9].a[  5] =         3.492267920000;     BAS[ATNO][  9].d[  5] =        -0.166131075412;
  BAS[ATNO][  9].a[  6] =         1.263742700000;     BAS[ATNO][  9].d[  6] =         1.337790645453;
  BAS[ATNO][  9].a[  7] =         0.466078700000;     BAS[ATNO][  9].d[  7] =        -0.309932007344;
  BAS[ATNO][  9].a[  8] =         0.157660030000;     BAS[ATNO][  9].d[  8] =         0.096123672477;

  // Basis function  11 L = p
  InitBFNGauss(BAS[ATNO][ 10]);
  BAS[ATNO][ 10].l  = 1;
  BAS[ATNO][ 10].ng = 9;
  BAS[ATNO][ 10].a[  0] =       776.775419980000;     BAS[ATNO][ 10].d[  0] =         0.000547880217;
  BAS[ATNO][ 10].a[  1] =       183.801070180000;     BAS[ATNO][ 10].d[  1] =         0.004154808493;
  BAS[ATNO][ 10].a[  2] =        58.694003170000;     BAS[ATNO][ 10].d[  2] =         0.019032734487;
  BAS[ATNO][ 10].a[  3] =        21.701591700000;     BAS[ATNO][ 10].d[  3] =         0.055293718137;
  BAS[ATNO][ 10].a[  4] =         8.582148960000;     BAS[ATNO][ 10].d[  4] =         0.095704420523;
  BAS[ATNO][ 10].a[  5] =         3.492267920000;     BAS[ATNO][ 10].d[  5] =         0.077546994995;
  BAS[ATNO][ 10].a[  6] =         1.263742700000;     BAS[ATNO][ 10].d[  6] =        -1.196857782648;
  BAS[ATNO][ 10].a[  7] =         0.466078700000;     BAS[ATNO][ 10].d[  7] =         1.692786491109;
  BAS[ATNO][ 10].a[  8] =         0.157660030000;     BAS[ATNO][ 10].d[  8] =        -0.157064555642;

  // Basis function  12 L = p
  InitBFNGauss(BAS[ATNO][ 11]);
  BAS[ATNO][ 11].l  = 1;
  BAS[ATNO][ 11].ng = 9;
  BAS[ATNO][ 11].a[  0] =       776.775419980000;     BAS[ATNO][ 11].d[  0] =        -0.000240495936;
  BAS[ATNO][ 11].a[  1] =       183.801070180000;     BAS[ATNO][ 11].d[  1] =        -0.001823782875;
  BAS[ATNO][ 11].a[  2] =        58.694003170000;     BAS[ATNO][ 11].d[  2] =        -0.008354554799;
  BAS[ATNO][ 11].a[  3] =        21.701591700000;     BAS[ATNO][ 11].d[  3] =        -0.024271572669;
  BAS[ATNO][ 11].a[  4] =         8.582148960000;     BAS[ATNO][ 11].d[  4] =        -0.042010139230;
  BAS[ATNO][ 11].a[  5] =         3.492267920000;     BAS[ATNO][ 11].d[  5] =        -0.034039807554;
  BAS[ATNO][ 11].a[  6] =         1.263742700000;     BAS[ATNO][ 11].d[  6] =         0.661118368435;
  BAS[ATNO][ 11].a[  7] =         0.466078700000;     BAS[ATNO][ 11].d[  7] =        -1.544672088542;
  BAS[ATNO][ 11].a[  8] =         0.157660030000;     BAS[ATNO][ 11].d[  8] =         1.573865943812;

  // Basis function  13 L = d
  InitBFNGauss(BAS[ATNO][ 12]);
  BAS[ATNO][ 12].l  = 2;
  BAS[ATNO][ 12].ng = 3;
  BAS[ATNO][ 12].a[  0] =         5.551000000000;     BAS[ATNO][ 12].d[  0] =         0.200581916316;
  BAS[ATNO][ 12].a[  1] =         1.235000000000;     BAS[ATNO][ 12].d[  1] =         1.002909581578;
  BAS[ATNO][ 12].a[  2] =         0.412000000000;     BAS[ATNO][ 12].d[  2] =        -0.198074234762;

  // Basis function  14 L = d
  InitBFNGauss(BAS[ATNO][ 13]);
  BAS[ATNO][ 13].l  = 2;
  BAS[ATNO][ 13].ng = 3;
  BAS[ATNO][ 13].a[  0] =         5.551000000000;     BAS[ATNO][ 13].d[  0] =        -0.094772134961;
  BAS[ATNO][ 13].a[  1] =         1.235000000000;     BAS[ATNO][ 13].d[  1] =        -0.473860674805;
  BAS[ATNO][ 13].a[  2] =         0.412000000000;     BAS[ATNO][ 13].d[  2] =         1.199590438066;

  // Basis function  15 L = f
  InitBFNGauss(BAS[ATNO][ 14]);
  BAS[ATNO][ 14].l  = 3;
  BAS[ATNO][ 14].ng = 1;
  BAS[ATNO][ 14].a[  0] =         0.890000000000;     BAS[ATNO][ 14].d[  0] =         1.000000000000;

-------
TIMINGS
-------

Total SCF time: 0 days 0 hours 0 min 1 sec 

Total time                  ....       1.713 sec
Sum of individual times     ....       1.543 sec  ( 90.1%)

Fock matrix formation       ....       1.072 sec  ( 62.6%)
  XC integration            ....       0.024 sec  (  2.2% of F)
    Basis function eval.    ....       0.004 sec  ( 14.8% of XC)
    Density eval.           ....       0.002 sec  (  6.7% of XC)
    XC-Functional eval.     ....       0.002 sec  (  9.3% of XC)
    XC-Potential eval.      ....       0.001 sec  (  5.9% of XC)
Diagonalization             ....       0.002 sec  (  0.1%)
Density matrix formation    ....       0.001 sec  (  0.0%)
Population analysis         ....       0.001 sec  (  0.0%)
Initial guess               ....       0.088 sec  (  5.2%)
Orbital Transformation      ....       0.000 sec  (  0.0%)
Orbital Orthonormalization  ....       0.000 sec  (  0.0%)
DIIS solution               ....       0.000 sec  (  0.0%)
SOSCF solution              ....       0.001 sec  (  0.0%)
Grid generation             ....       0.379 sec  ( 22.1%)

-------------------------   --------------------
FINAL SINGLE POINT ENERGY      -311.684954712923
-------------------------   --------------------


                            ***************************************
                            *     ORCA property calculations      *
                            ***************************************

                                    ---------------------
                                    Active property flags
                                    ---------------------
   (+) Dipole Moment


------------------------------------------------------------------------------
                       ORCA ELECTRIC PROPERTIES CALCULATION
------------------------------------------------------------------------------

Dipole Moment Calculation                       ... on
Quadrupole Moment Calculation                   ... off
Polarizability Calculation                      ... off
GBWName                                         ... Ar_zora-def2-tzvp_548.143956_.gbw
Electron density file                           ... Ar_zora-def2-tzvp_548.143956_.scfp
The origin for moment calculation is the CENTER OF MASS  = ( 0.000000,  0.000000  0.000000)

-------------
DIPOLE MOMENT
-------------
                                X             Y             Z
Electronic contribution:      0.00000      -0.00000      -0.00000
Nuclear contribution   :      0.00000       0.00000       0.00000
                        -----------------------------------------
Total Dipole Moment    :      0.00000      -0.00000      -0.00000
                        -----------------------------------------
Magnitude (a.u.)       :      0.00000
Magnitude (Debye)      :      0.00000



--------------------
Rotational spectrum 
--------------------
 
Rotational constants in cm-1:     0.000000     0.000000     0.000000 
Rotational constants in MHz :     0.000000     0.000000     0.000000 

 Dipole components along the rotational axes: 
x,y,z [a.u.] :     0.000000    -0.000000    -0.000000 
x,y,z [Debye]:     0.000000    -0.000000    -0.000000 

 

Timings for individual modules:

Sum of individual times         ...        2.805 sec (=   0.047 min)
GTO integral calculation        ...        0.481 sec (=   0.008 min)  17.2 %
Relativistic integrals          ...        0.364 sec (=   0.006 min)  13.0 %
SCF iterations                  ...        1.960 sec (=   0.033 min)  69.9 %
                             ****ORCA TERMINATED NORMALLY****
TOTAL RUN TIME: 0 days 0 hours 0 minutes 3 seconds 113 msec
