
                                 *****************
                                 * O   R   C   A *
                                 *****************

           --- An Ab Initio, DFT and Semiempirical electronic structure package ---

                  #######################################################
                  #                        -***-                        #
                  #          Department of theory and spectroscopy      #
                  #               Directorship: Frank Neese             #
                  #        Max Planck Institute fuer Kohlenforschung    #
                  #                Kaiser Wilhelm Platz 1               #
                  #                 D-45470 Muelheim/Ruhr               #
                  #                      Germany                        #
                  #                                                     #
                  #                  All rights reserved                #
                  #                        -***-                        #
                  #######################################################


                         Program Version 4.2.1 -  RELEASE  -


 With contributions from (in alphabetic order):
   Daniel Aravena         : Magnetic Suceptibility
   Michael Atanasov       : Ab Initio Ligand Field Theory (pilot matlab implementation)
   Alexander A. Auer      : GIAO ZORA, VPT2
   Ute Becker             : Parallelization
   Giovanni Bistoni       : ED, misc. LED, open-shell LED, HFLD
   Martin Brehm           : Molecular dynamics
   Dmytro Bykov           : SCF Hessian
   Vijay G. Chilkuri      : MRCI spin determinant printing, contributions to CSF-ICE
   Dipayan Datta          : RHF DLPNO-CCSD density
   Achintya Kumar Dutta   : EOM-CC, STEOM-CC
   Dmitry Ganyushin       : Spin-Orbit,Spin-Spin,Magnetic field MRCI
   Miquel Garcia          : C-PCM Hessian, Gaussian charge scheme
   Yang Guo               : DLPNO-NEVPT2, CIM, IAO-localization
   Andreas Hansen         : Spin unrestricted coupled pair/coupled cluster methods
   Benjamin Helmich-Paris : CASSCF linear response (MC-RPA)
   Lee Huntington         : MR-EOM, pCC
   Robert Izsak           : Overlap fitted RIJCOSX, COSX-SCS-MP3, EOM
   Christian Kollmar      : KDIIS, OOCD, Brueckner-CCSD(T), CCSD density
   Simone Kossmann        : Meta GGA functionals, TD-DFT gradient, OOMP2, MP2 Hessian
   Martin Krupicka        : AUTO-CI
   Lucas Lang             : DCDCAS
   Dagmar Lenk            : GEPOL surface, SMD
   Dimitrios Liakos       : Extrapolation schemes; Compound Job, initial MDCI parallelization
   Dimitrios Manganas     : Further ROCIS development; embedding schemes
   Dimitrios Pantazis     : SARC Basis sets
   Taras Petrenko         : DFT Hessian,TD-DFT gradient, ASA, ECA, R-Raman, ABS, FL, XAS/XES, NRVS
   Peter Pinski           : DLPNO-MP2, DLPNO-MP2 Gradient
   Christoph Reimann      : Effective Core Potentials
   Marius Retegan         : Local ZFS, SOC
   Christoph Riplinger    : Optimizer, TS searches, QM/MM, DLPNO-CCSD(T), (RO)-DLPNO pert. Triples
   Tobias Risthaus        : Range-separated hybrids, TD-DFT gradient, RPA, STAB
   Michael Roemelt        : Original ROCIS implementation
   Masaaki Saitow         : Open-shell DLPNO-CCSD energy and density
   Barbara Sandhoefer     : DKH picture change effects
   Avijit Sen             : IP-ROCIS
   Kantharuban Sivalingam : CASSCF convergence, NEVPT2, FIC-MRCI
   Bernardo de Souza      : ESD, SOC TD-DFT
   Georgi Stoychev        : AutoAux, RI-MP2 NMR
   Willem Van den Heuvel  : Paramagnetic NMR
   Boris Wezisla          : Elementary symmetry handling
   Frank Wennmohs         : Technical directorship


 We gratefully acknowledge several colleagues who have allowed us to
 interface, adapt or use parts of their codes:
   Stefan Grimme, W. Hujo, H. Kruse,             : VdW corrections, initial TS optimization,
                  C. Bannwarth                     DFT functionals, gCP, sTDA/sTD-DF
   Ed Valeev, F. Pavosevic, A. Kumar             : LibInt (2-el integral package), F12 methods
   Garnet Chan, S. Sharma, J. Yang, R. Olivares  : DMRG
   Ulf Ekstrom                                   : XCFun DFT Library
   Mihaly Kallay                                 : mrcc  (arbitrary order and MRCC methods)
   Andreas Klamt, Michael Diedenhofen            : otool_cosmo (COSMO solvation model)
   Jiri Pittner, Ondrej Demel                    : Mk-CCSD
   Frank Weinhold                                : gennbo (NPA and NBO analysis)
   Christopher J. Cramer and Donald G. Truhlar   : smd solvation model
   Lars Goerigk                                  : TD-DFT with DH, B97 family of functionals
   V. Asgeirsson, H. Jonsson                     : NEB implementation
   FAccTs GmbH                                   : IRC, NEB, NEB-TS, Multilevel, MM, QM/MM, CI optimization
   S Lehtola, MJT Oliveira, MAL Marques          : LibXC Library


 Your calculation uses the libint2 library for the computation of 2-el integrals
 For citations please refer to: http://libint.valeyev.net

 Your ORCA version has been built with support for libXC version: 4.2.3
 For citations please refer to: https://tddft.org/programs/libxc/

 This ORCA versions uses:
   CBLAS   interface :  Fast vector & matrix operations
   LAPACKE interface :  Fast linear algebra routines
   SCALAPACK package :  Parallel linear algebra routines


----- Orbital basis set information -----
Your calculation utilizes the basis: ANO-RCC-QZP
   H, He:       P.-O. Widmark, P.-A. Malmqvist, and B. O. Roos, Theor. Chim. Acta 77, 291 (1990).
   s block:     B. O. Roos, V. Veryazov and P.-O. Widmark, Theor. Chem. Acc. 111, 345 (2004).
   p block:     B. O. Roos, R. Lindh, P.-A. Malmqvist, V. Veryazov, and P.-O. Widmark, J. Phys. Chem. A 108, 2851 (2004).
   d block:     B. O. Roos, R. Lindh, P.-A. Malmqvist, V. Veryazov, and P.-O. Widmark, J. Phys. Chem. A 109, 6575 (2005).
   actinides:   B. O. Roos, R. Lindh, P.-A. Malmqvist, V. Veryazov, and P.-O. Widmark, Chem. Phys. Letters 409, 295 (2005).
   lanthanides: B. O. Roos, R. Lindh, P.-A. Malmqvist, V. Veryazov, P.-O. Widmark and A. C. Borin, J. Phys. Chem. A 112, 11431 (2008).

================================================================================
                                        WARNINGS
                       Please study these warnings very carefully!
================================================================================


INFO   : the flag for use of LIBINT has been found!

================================================================================
                                       INPUT FILE
================================================================================
NAME = He_ano-rcc-qzp_4385.151648_.inp
|  1> ! LDA ano-rcc-qzp nori grid5 finalgrid6 verytightscf
|  2> %Pal NProcs 18 End
|  3> 
|  4> % REL
|  5>   Method ZORA
|  6>   ModelPot 1, 0, 0, 0
|  7>   velit 4385.151648
|  8> END
|  9> 
| 10> *xyz 0 1
| 11> He 0.0 0.0 0.0
| 12> **                         ****END OF INPUT****
================================================================================

                       ****************************
                       * Single Point Calculation *
                       ****************************

---------------------------------
CARTESIAN COORDINATES (ANGSTROEM)
---------------------------------
  He     0.000000    0.000000    0.000000

----------------------------
CARTESIAN COORDINATES (A.U.)
----------------------------
  NO LB      ZA    FRAG     MASS         X           Y           Z
   0 He    2.0000    0     4.003    0.000000    0.000000    0.000000

--------------------------------
INTERNAL COORDINATES (ANGSTROEM)
--------------------------------
 He     0   0   0     0.000000000000     0.00000000     0.00000000

---------------------------
INTERNAL COORDINATES (A.U.)
---------------------------
 He     0   0   0     0.000000000000     0.00000000     0.00000000

---------------------
BASIS SET INFORMATION
---------------------
There are 1 groups of distinct atoms

 Group   1 Type He  : 45s16p9d1f contracted to 5s4p3d1f pattern {99999/4444/333/1}

Atom   0He   basis set group =>   1


           ************************************************************
           *        Program running with 18 parallel MPI-processes    *
           *              working on a common directory               *
           ************************************************************


------------------------------------------------------------------------------
                       ORCA GTO INTEGRAL CALCULATION
                     -- ANO INTEGRAL GENERATION BRANCH --
------------------------------------------------------------------------------


Gathering ANO information                         ... done
Calculation Information:
Number of atoms                                   ... 1
Number of basis functions                         ... 39
Highest angular momentum                          ... 3
Number of primitive shells                        ... 17
Total number of shells                            ... 13
Maximum number of shells                          ... 13

Getting memory                                    ... done
Making prescreening integrals                     ... done
Gathering atom contracted prescreening            ... done
Making one-electron integrals                     ... done

Timings:

Total time                                        ...    0.1 sec
Prescreening matrix                               ...    0.0 sec
One-electron matrix                               ...    0.0 sec
Two-index integrals + Cholesky                    ...    0.0 sec


           ************************************************************
           *        Program running with 18 parallel MPI-processes    *
           *              working on a common directory               *
           ************************************************************
------------------------------------------------------------------------------
                          ORCA RELATIVISTIC HAMILTONIAN
------------------------------------------------------------------------------

Relativistic Method            ... ZORA(MP)
Treatment of potential         ... Van Wuellen
Nucleus model                  ... Point Nucleus
Speed of light used            ... 4385.15164800000002


            *************************************************
            *         ZERO ORDER REGULAR APPROXIMATION      *
            *                     ZORA(MP)                  *
            *            Programmed by FN according to      *
            *                   C. van Wuellen              *
            *       J. Chem. Phys. (1998) vol 109, 392-399  *
            *************************************************

Terms included in model potential: +V(e,N)
Basis function cutoff value   ... 1.000000e-12
Loading the fitted atomic densities  (DKH4)  ... done
Calculating the cutoffs                      ... done
Number of fit functions                      ... 6
Setting up the integration grid ... done


           ************************************************************
           *        Program running with 18 parallel MPI-processes    *
           *              working on a common directory               *
           ************************************************************
-------------------------------------------------------------------------------
                                 ORCA SCF
-------------------------------------------------------------------------------

------------
SCF SETTINGS
------------
Hamiltonian:
 Density Functional     Method          .... DFT(GTOs)
 Exchange Functional    Exchange        .... Slater
   X-Alpha parameter    XAlpha          ....  0.666667
 Correlation Functional Correlation     .... VWN-5
 Gradients option       PostSCFGGA      .... off
   Density functional embedding theory  .... OFF

Relativistic Settings:
 Scalar relativistic method             .... ZORA
 Speed of light used       Velit        ....       4385.15165
Orbital energies will be scaled


General Settings:
 Integral files         IntName         .... He_ano-rcc-qzp_4385.151648_
 Hartree-Fock type      HFTyp           .... RHF
 Total Charge           Charge          ....    0
 Multiplicity           Mult            ....    1
 Number of Electrons    NEL             ....    2
 Basis Dimension        Dim             ....   39
 Nuclear Repulsion      ENuc            ....      0.0000000000 Eh

Convergence Acceleration:
 DIIS                   CNVDIIS         .... on
   Start iteration      DIISMaxIt       ....    12
   Startup error        DIISStart       ....  0.200000
   # of expansion vecs  DIISMaxEq       ....     5
   Bias factor          DIISBfac        ....   1.050
   Max. coefficient     DIISMaxC        ....  10.000
 Newton-Raphson         CNVNR           .... off
 SOSCF                  CNVSOSCF        .... on
   Start iteration      SOSCFMaxIt      ....   150
   Startup grad/error   SOSCFStart      ....  0.003300
 Level Shifting         CNVShift        .... on
   Level shift para.    LevelShift      ....    0.2500
   Turn off err/grad.   ShiftErr        ....    0.0010
 Zerner damping         CNVZerner       .... off
 Static damping         CNVDamp         .... on
   Fraction old density DampFac         ....    0.7000
   Max. Damping (<1)    DampMax         ....    0.9800
   Min. Damping (>=0)   DampMin         ....    0.0000
   Turn off err/grad.   DampErr         ....    0.1000
 Fernandez-Rico         CNVRico         .... off

SCF Procedure:
 Maximum # iterations   MaxIter         ....   125
 SCF integral mode      SCFMode         .... Direct
   Integral package                     .... LIBINT
 Reset frequency        DirectResetFreq ....    20
 Integral Threshold     Thresh          ....  1.000e-12 Eh
 Primitive CutOff       TCut            ....  1.000e-14 Eh

Convergence Tolerance:
 Convergence Check Mode ConvCheckMode   .... Total+1el-Energy
 Convergence forced     ConvForced      .... 0
 Energy Change          TolE            ....  1.000e-09 Eh
 1-El. energy change                    ....  1.000e-06 Eh
 Orbital Gradient       TolG            ....  2.000e-06
 Orbital Rotation angle TolX            ....  2.000e-06
 DIIS Error             TolErr          ....  1.000e-08


Diagonalization of the overlap matrix:
Smallest eigenvalue                        ... 1.000e+00
Time for diagonalization                   ...    0.001 sec
Threshold for overlap eigenvalues          ... 1.000e-08
Number of eigenvalues below threshold      ... 0
Time for construction of square roots      ...    0.001 sec
Total time needed                          ...    0.002 sec

-------------------
DFT GRID GENERATION
-------------------

General Integration Accuracy     IntAcc      ...  5.010
Radial Grid Type                 RadialGrid  ... Gauss-Chebyshev
Angular Grid (max. acc.)         AngularGrid ... Lebedev-434
Angular grid pruning method      GridPruning ... 3 (G Style)
Weight generation scheme         WeightScheme... Becke
Basis function cutoff            BFCut       ...    1.0000e-12
Integration weight cutoff        WCut        ...    1.0000e-14
Grids for H and He will be reduced by one unit

# of grid points (after initial pruning)     ...   6764 (   0.0 sec)
# of grid points (after weights+screening)   ...   6764 (   0.0 sec)
Grid point division into batches done        ...    0.0 sec
Reduced shell lists constructed in    0.0 sec

Total number of grid points                  ...     6764
Total number of batches                      ...      106
Average number of points per batch           ...       63
Average number of grid points per atom       ...     6764
Average number of shells per batch           ...     7.71 (59.34%)
Average number of basis functions per batch  ...    14.57 (37.36%)
Average number of large shells per batch     ...     6.86 (88.89%)
Average number of large basis fcns per batch ...    12.00 (82.35%)
Maximum spatial batch extension              ...  15.22, 15.22, 15.22 au
Average spatial batch extension              ...   0.77,  0.77,  0.77 au

Time for grid setup =    0.049 sec

------------------------------
INITIAL GUESS: MODEL POTENTIAL
------------------------------
Loading ZORA relativistic densities                ... done
Calculating cut-offs                               ... done
Setting up the integral package                    ... done
Initializing the effective Hamiltonian             ... done
Starting the Coulomb interaction                   ... done (   0.0 sec)
Reading the grid                                   ... done
Mapping shells                                     ... done
Starting the XC term evaluation                    ... done (   0.0 sec)
  promolecular density results
     # of electrons  =      1.999920377
     EX              =     -0.884114011
     EC              =     -0.112857661
     EX+EC           =     -0.996971673
Transforming the Hamiltonian                       ... done (   0.0 sec)
Diagonalizing the Hamiltonian                      ... done (   0.0 sec)
Back transforming the eigenvectors                 ... done (   0.0 sec)
Now organizing SCF variables                       ... done
                      ------------------
                      INITIAL GUESS DONE (   0.1 sec)
                      ------------------
--------------
SCF ITERATIONS
--------------
ITER       Energy         Delta-E        Max-DP      RMS-DP      [F,P]     Damp
               ***  Starting incremental Fock matrix formation  ***
  0     -2.8345337712   0.000000000000 0.00580129  0.00015314  0.0331088 0.7000
                      *** Initiating the SOSCF procedure ***
                      *** Re-Reading the Fockian *** 
                      *** Removing any level shift *** 
ITER      Energy       Delta-E        Grad      Rot      Max-DP    RMS-DP
  1     -2.83462881  -0.0000950363  0.001186  0.001186  0.015085  0.000409
               *** Restarting incremental Fock matrix formation ***
  2     -2.83477031  -0.0001415012  0.003184  0.002643  0.005966  0.000158
  3     -2.83478357  -0.0000132637  0.001274  0.000843  0.001806  0.000049
  4     -2.83478651  -0.0000029357  0.000003  0.000001  0.000001  0.000000
                 **** Energy Check signals convergence ****
              ***Rediagonalizing the Fockian in SOSCF/NRSCF***

               *****************************************************
               *                     SUCCESS                       *
               *           SCF CONVERGED AFTER   5 CYCLES          *
               *****************************************************

Setting up the final grid:

General Integration Accuracy     IntAcc      ...  5.340
Radial Grid Type                 RadialGrid  ... Gauss-Chebyshev
Angular Grid (max. acc.)         AngularGrid ... Lebedev-590
Angular grid pruning method      GridPruning ... 3 (G Style)
Weight generation scheme         WeightScheme... Becke
Basis function cutoff            BFCut       ...    1.0000e-12
Integration weight cutoff        WCut        ...    1.0000e-14
Grids for H and He will be reduced by one unit

# of grid points (after initial pruning)     ...  11406 (   0.0 sec)
# of grid points (after weights+screening)   ...  11406 (   0.0 sec)
Grid point division into batches done        ...    0.1 sec
Reduced shell lists constructed in    0.1 sec

Total number of grid points                  ...    11406
Total number of batches                      ...      179
Average number of points per batch           ...       63
Average number of grid points per atom       ...    11406
Average number of shells per batch           ...     6.00 (46.15%)
Average number of basis functions per batch  ...     8.91 (22.84%)
Average number of large shells per batch     ...     4.00 (66.67%)
Average number of large basis fcns per batch ...     4.00 (44.90%)
Maximum spatial batch extension              ...  16.29, 16.29, 16.29 au
Average spatial batch extension              ...   0.81,  0.81,  0.81 au

Final grid set up in    0.1 sec
Final integration                            ... done (   0.0 sec)
Change in XC energy                          ...     0.000000004
Integrated number of electrons               ...     1.999999999
Previous integrated no of electrons          ...     2.000000002

----------------
TOTAL SCF ENERGY
----------------

Total Energy       :           -2.83478650 Eh             -77.13846 eV

Components:
Nuclear Repulsion  :            0.00000000 Eh               0.00000 eV
Electronic Energy  :           -2.83478650 Eh             -77.13846 eV
One Electron Energy:           -3.85757604 Eh            -104.96998 eV
Two Electron Energy:            1.02278954 Eh              27.83152 eV

Virial components:
Potential Energy   :           -5.60255080 Eh            -152.45316 eV
Kinetic Energy     :            2.76776429 Eh              75.31470 eV
Virial Ratio       :            2.02421529


DFT components:
N(Alpha)           :        0.999999999540 electrons
N(Beta)            :        0.999999999540 electrons
N(Total)           :        1.999999999079 electrons
E(X)               :       -0.861830666308 Eh       
E(C)               :       -0.111466447103 Eh       
E(XC)              :       -0.973297113411 Eh       
DFET-embed. en.    :        0.000000000000 Eh       

---------------
SCF CONVERGENCE
---------------

  Last Energy change         ...   -4.3916e-12  Tolerance :   1.0000e-09
  Last MAX-Density change    ...    4.0411e-08  Tolerance :   1.0000e-08
  Last RMS-Density change    ...    1.2225e-09  Tolerance :   1.0000e-09
  Last Orbital Gradient      ...    3.0713e-08  Tolerance :   2.0000e-06
  Last Orbital Rotation      ...    1.7838e-08  Tolerance :   2.0000e-06

             **** THE GBW FILE WAS UPDATED (He_ano-rcc-qzp_4385.151648_.gbw) ****
             **** DENSITY FILE WAS UPDATED (He_ano-rcc-qzp_4385.151648_.scfp) ****
             **** ENERGY FILE WAS UPDATED (He_ano-rcc-qzp_4385.151648_.en.tmp) ****
             **** THE GBW FILE WAS UPDATED (He_ano-rcc-qzp_4385.151648_.gbw) ****
             **** DENSITY FILE WAS UPDATED (He_ano-rcc-qzp_4385.151648_.scfp) ****
----------------
ORBITAL ENERGIES
----------------

  NO   OCC          E(Eh)            E(eV) 
   0   2.0000      -0.570414       -15.5218 
   1   0.0000       0.188545         5.1306 
   2   0.0000       0.264824         7.2062 
   3   0.0000       0.264824         7.2062 
   4   0.0000       0.264824         7.2062 
   5   0.0000       1.296191        35.2711 
   6   0.0000       1.296191        35.2711 
   7   0.0000       1.296191        35.2711 
   8   0.0000       1.394356        37.9423 
   9   0.0000       1.433858        39.0173 
  10   0.0000       1.433858        39.0173 
  11   0.0000       1.433858        39.0173 
  12   0.0000       1.433858        39.0173 
  13   0.0000       1.433858        39.0173 
  14   0.0000       4.470131       121.6384 
  15   0.0000       4.470131       121.6384 
  16   0.0000       4.470131       121.6384 
  17   0.0000       5.044385       137.2647 
  18   0.0000       5.044385       137.2647 
  19   0.0000       5.044385       137.2647 
  20   0.0000       5.044385       137.2647 
  21   0.0000       5.044385       137.2647 
  22   0.0000       5.684671       154.6878 
  23   0.0000       7.410537       201.6510 
  24   0.0000       7.410537       201.6510 
  25   0.0000       7.410537       201.6510 
  26   0.0000       7.410537       201.6510 
  27   0.0000       7.410537       201.6510 
  28   0.0000       7.410537       201.6510 
  29   0.0000       7.410537       201.6510 
  30   0.0000      14.349193       390.4614 
  31   0.0000      14.349193       390.4614 
  32   0.0000      14.349193       390.4614 
  33   0.0000      14.642491       398.4424 
  34   0.0000      14.642491       398.4424 
  35   0.0000      14.642491       398.4424 
  36   0.0000      14.642491       398.4424 
  37   0.0000      14.642491       398.4424 
  38   0.0000      20.574004       559.8471 

                    ********************************
                    * MULLIKEN POPULATION ANALYSIS *
                    ********************************

-----------------------
MULLIKEN ATOMIC CHARGES
-----------------------
   0 He:   -0.000000
Sum of atomic charges:   -0.0000000

--------------------------------
MULLIKEN REDUCED ORBITAL CHARGES
--------------------------------
  0 Hes       :     2.000000  s :     2.000000
      pz      :     0.000000  p :     0.000000
      px      :     0.000000
      py      :     0.000000
      dz2     :     0.000000  d :     0.000000
      dxz     :     0.000000
      dyz     :     0.000000
      dx2y2   :     0.000000
      dxy     :     0.000000
      f0      :     0.000000  f :     0.000000
      f+1     :     0.000000
      f-1     :     0.000000
      f+2     :     0.000000
      f-2     :     0.000000
      f+3     :     0.000000
      f-3     :     0.000000


                     *******************************
                     * LOEWDIN POPULATION ANALYSIS *
                     *******************************

----------------------
LOEWDIN ATOMIC CHARGES
----------------------
   0 He:   -0.000000

-------------------------------
LOEWDIN REDUCED ORBITAL CHARGES
-------------------------------
  0 Hes       :     2.000000  s :     2.000000
      pz      :     0.000000  p :     0.000000
      px      :     0.000000
      py      :     0.000000
      dz2     :     0.000000  d :     0.000000
      dxz     :     0.000000
      dyz     :     0.000000
      dx2y2   :     0.000000
      dxy     :     0.000000
      f0      :     0.000000  f :     0.000000
      f+1     :     0.000000
      f-1     :     0.000000
      f+2     :     0.000000
      f-2     :     0.000000
      f+3     :     0.000000
      f-3     :     0.000000


                      *****************************
                      * MAYER POPULATION ANALYSIS *
                      *****************************

  NA   - Mulliken gross atomic population
  ZA   - Total nuclear charge
  QA   - Mulliken gross atomic charge
  VA   - Mayer's total valence
  BVA  - Mayer's bonded valence
  FA   - Mayer's free valence

  ATOM       NA         ZA         QA         VA         BVA        FA
  0 He     2.0000     2.0000    -0.0000    -0.0000     0.0000    -0.0000

  Mayer bond orders larger than 0.100000


--------------------------
ATOM BASIS FOR ELEMENT He
--------------------------
 NewGTO He
 S 45
    1       1149.270500000000         0.000357619964
    2        172.044570000000         0.002771959588
    3         39.080465000000         0.014293582341
    4         11.036173000000         0.055848744299
    5          3.564152000000         0.163308025457
    6          1.240443000000         0.331220285496
    7          0.447316000000         0.414158267259
    8          0.164206000000         0.188968852368
    9          0.057472000000         0.005154329943
   10       1149.270500000000        -0.000011251504
   11        172.044570000000        -0.000085520759
   12         39.080465000000        -0.000478822949
   13         11.036173000000        -0.002176199027
   14          3.564152000000        -0.009705883074
   15          1.240443000000        -0.012849643572
   16          0.447316000000         0.012114840642
   17          0.164206000000         0.011611641202
   18          0.057472000000         0.000247231969
   19       1149.270500000000         0.000009192435
   20        172.044570000000         0.000091892943
   21         39.080465000000         0.000407347063
   22         11.036173000000         0.004195646588
   23          3.564152000000         0.013092662454
   24          1.240443000000        -0.016820185370
   25          0.447316000000        -0.006158211995
   26          0.164206000000         0.012419485617
   27          0.057472000000         0.000659578044
   28       1149.270500000000        -0.000003250373
   29        172.044570000000        -0.000072085031
   30         39.080465000000        -0.000133607383
   31         11.036173000000        -0.004906091149
   32          3.564152000000        -0.000069749471
   33          1.240443000000         0.013314921305
   34          0.447316000000        -0.017495422878
   35          0.164206000000         0.006182319649
   36          0.057472000000         0.003744325943
   37       1149.270500000000         0.000001898084
   38        172.044570000000         0.000027402035
   39         39.080465000000         0.000150262701
   40         11.036173000000         0.002988829079
   41          3.564152000000        -0.005310462906
   42          1.240443000000         0.003959881588
   43          0.447316000000        -0.000284618306
   44          0.164206000000        -0.002841949652
   45          0.057472000000         0.002504587684
 S 45
    1       1149.270500000000         0.000008865206
    2        172.044570000000         0.000068715384
    3         39.080465000000         0.000354330201
    4         11.036173000000         0.001384460264
    5          3.564152000000         0.004048317915
    6          1.240443000000         0.008210772322
    7          0.447316000000         0.010266760180
    8          0.164206000000         0.004684435980
    9          0.057472000000         0.000127773061
   10       1149.270500000000         0.000349205618
   11        172.044570000000         0.002654252276
   12         39.080465000000         0.014860916961
   13         11.036173000000         0.067541276222
   14          3.564152000000         0.301235191031
   15          1.240443000000         0.398806044385
   16          0.447316000000        -0.376000442939
   17          0.164206000000        -0.360382968650
   18          0.057472000000        -0.007673178104
   19       1149.270500000000        -0.000383378292
   20        172.044570000000        -0.003832473182
   21         39.080465000000        -0.016988754903
   22         11.036173000000        -0.174983001080
   23          3.564152000000        -0.546040597147
   24          1.240443000000         0.701500103270
   25          0.447316000000         0.256833456671
   26          0.164206000000        -0.517965185931
   27          0.057472000000        -0.027508261988
   28       1149.270500000000         0.000234616108
   29        172.044570000000         0.005203191036
   30         39.080465000000         0.009643954248
   31         11.036173000000         0.354128023205
   32          3.564152000000         0.005034607288
   33          1.240443000000        -0.961088291684
   34          0.447316000000         1.262842318151
   35          0.164206000000        -0.446247851868
   36          0.057472000000        -0.270270303639
   37       1149.270500000000        -0.000144775043
   38        172.044570000000        -0.002090071196
   39         39.080465000000        -0.011461183196
   40         11.036173000000        -0.227970862891
   41          3.564152000000         0.405051871149
   42          1.240443000000        -0.302037218814
   43          0.447316000000         0.021709063697
   44          0.164206000000         0.216767736524
   45          0.057472000000        -0.191035686688
 S 45
    1       1149.270500000000        -0.000002652984
    2        172.044570000000        -0.000020563626
    3         39.080465000000        -0.000106036134
    4         11.036173000000        -0.000414310758
    5          3.564152000000        -0.001211491372
    6          1.240443000000        -0.002457138998
    7          0.447316000000        -0.003072409736
    8          0.164206000000        -0.001401854768
    9          0.057472000000        -0.000038237106
   10       1149.270500000000        -0.000371516000
   11        172.044570000000        -0.002823829678
   12         39.080465000000        -0.015810365402
   13         11.036173000000        -0.071856417716
   14          3.564152000000        -0.320480792314
   15          1.240443000000        -0.424285345436
   16          0.447316000000         0.400022717967
   17          0.164206000000         0.383407459580
   18          0.057472000000         0.008163409427
   19       1149.270500000000        -0.000138524101
   20        172.044570000000        -0.001384767764
   21         39.080465000000        -0.006138459169
   22         11.036173000000        -0.063225705096
   23          3.564152000000        -0.197298032109
   24          1.240443000000         0.253469413488
   25          0.447316000000         0.092800307973
   26          0.164206000000        -0.187153688607
   27          0.057472000000        -0.009939418397
   28       1149.270500000000         0.000294404961
   29        172.044570000000         0.006529156367
   30         39.080465000000         0.012101590131
   31         11.036173000000         0.444372928404
   32          3.564152000000         0.006317611252
   33          1.240443000000        -1.206009100225
   34          0.447316000000         1.584661202323
   35          0.164206000000        -0.559968293199
   36          0.057472000000        -0.339145163383
   37       1149.270500000000        -0.000268106337
   38        172.044570000000        -0.003870565813
   39         39.080465000000        -0.021224762080
   40         11.036173000000        -0.422175201571
   41          3.564152000000         0.750108383066
   42          1.240443000000        -0.559337373723
   43          0.447316000000         0.040202630398
   44          0.164206000000         0.401428330360
   45          0.057472000000        -0.353775603215
 S 45
    1       1149.270500000000         0.000000354464
    2        172.044570000000         0.000002747497
    3         39.080465000000         0.000014167442
    4         11.036173000000         0.000055355880
    5          3.564152000000         0.000161866836
    6          1.240443000000         0.000328297274
    7          0.447316000000         0.000410503330
    8          0.164206000000         0.000187301207
    9          0.057472000000         0.000005108843
   10       1149.270500000000        -0.000145300503
   11        172.044570000000        -0.001104404317
   12         39.080465000000        -0.006183459269
   13         11.036173000000        -0.028103160228
   14          3.564152000000        -0.125340551932
   15          1.240443000000        -0.165938679162
   16          0.447316000000         0.156449526641
   17          0.164206000000         0.149951272435
   18          0.057472000000         0.003192722521
   19       1149.270500000000        -0.000544640525
   20        172.044570000000        -0.005444544588
   21         39.080465000000        -0.024134815604
   22         11.036173000000        -0.248586932309
   23          3.564152000000        -0.775724248203
   24          1.240443000000         0.996575425098
   25          0.447316000000         0.364866533972
   26          0.164206000000        -0.735839343357
   27          0.057472000000        -0.039079192942
   28       1149.270500000000        -0.000159133533
   29        172.044570000000        -0.003529178699
   30         39.080465000000        -0.006541223967
   31         11.036173000000        -0.240195116349
   32          3.564152000000        -0.003414833066
   33          1.240443000000         0.651879260931
   34          0.447316000000        -0.856550562682
   35          0.164206000000         0.302677415160
   36          0.057472000000         0.183316774652
   37       1149.270500000000         0.000433412187
   38        172.044570000000         0.006257033725
   39         39.080465000000         0.034311276064
   40         11.036173000000         0.682475018279
   41          3.564152000000        -1.212601380989
   42          1.240443000000         0.904207028114
   43          0.447316000000        -0.064990295056
   44          0.164206000000        -0.648936285412
   45          0.057472000000         0.571902400644
 S 45
    1       1149.270500000000        -0.000000338474
    2        172.044570000000        -0.000002623556
    3         39.080465000000        -0.000013528343
    4         11.036173000000        -0.000052858754
    5          3.564152000000        -0.000154564956
    6          1.240443000000        -0.000313487649
    7          0.447316000000        -0.000391985356
    8          0.164206000000        -0.000178851972
    9          0.057472000000        -0.000004878381
   10       1149.270500000000         0.000018133567
   11        172.044570000000         0.000137830144
   12         39.080465000000         0.000771698432
   13         11.036173000000         0.003507286735
   14          3.564152000000         0.015642555910
   15          1.240443000000         0.020709220013
   16          0.447316000000        -0.019524969612
   17          0.164206000000        -0.018713984634
   18          0.057472000000        -0.000398453172
   19       1149.270500000000         0.000186440164
   20        172.044570000000         0.001863764703
   21         39.080465000000         0.008261777769
   22         11.036173000000         0.085095739890
   23          3.564152000000         0.265544243369
   24          1.240443000000        -0.341145539579
   25          0.447316000000        -0.124900321111
   26          0.164206000000         0.251890929188
   27          0.057472000000         0.013377504629
   28       1149.270500000000         0.000236473662
   29        172.044570000000         0.005244386887
   30         39.080465000000         0.009720309489
   31         11.036173000000         0.356931803667
   32          3.564152000000         0.005074468391
   33          1.240443000000        -0.968697631804
   34          0.447316000000         1.272840771778
   35          0.164206000000        -0.449780983747
   36          0.057472000000        -0.272410147275
   37       1149.270500000000         0.000769112976
   38        172.044570000000         0.011103439112
   39         39.080465000000         0.060887184144
   40         11.036173000000         1.211088215830
   41          3.564152000000        -2.151825640032
   42          1.240443000000         1.604563459598
   43          0.447316000000        -0.115328734940
   44          0.164206000000        -1.151571950675
   45          0.057472000000         1.014871225281
 P 16
    1          4.550000000000         0.061915007717
    2          1.592500000000         0.263932886336
    3          0.557375000000         0.311531611817
    4          0.195081000000         0.192593084952
    5          4.550000000000        -0.129793625743
    6          1.592500000000        -0.355690557060
    7          0.557375000000        -0.137728250286
    8          0.195081000000         0.692204701069
    9          4.550000000000         0.151357154089
   10          1.592500000000         0.019345539944
   11          0.557375000000        -0.223755661501
   12          0.195081000000         0.159774198072
   13          4.550000000000        -0.092374777601
   14          1.592500000000         0.157606349385
   15          0.557375000000        -0.136395609196
   16          0.195081000000         0.060489515641
 P 16
    1          4.550000000000        -0.057140325045
    2          1.592500000000        -0.243579246314
    3          0.557375000000        -0.287507313934
    4          0.195081000000        -0.177740936831
    5          4.550000000000        -0.088877304317
    6          1.592500000000        -0.243562175735
    7          0.557375000000        -0.094310606885
    8          0.195081000000         0.473993137292
    9          4.550000000000         0.458246902813
   10          1.592500000000         0.058570298947
   11          0.557375000000        -0.677439659109
   12          0.195081000000         0.483730233016
   13          4.550000000000        -0.385105428824
   14          1.592500000000         0.657052307369
   15          0.557375000000        -0.568625883963
   16          0.195081000000         0.252177504136
 P 16
    1          4.550000000000        -0.028939427073
    2          1.592500000000        -0.123363733574
    3          0.557375000000        -0.145611648830
    4          0.195081000000        -0.090019104288
    5          4.550000000000        -0.097059163812
    6          1.592500000000        -0.265984002270
    7          0.557375000000        -0.102992644897
    8          0.195081000000         0.517627958140
    9          4.550000000000        -0.480846334068
   10          1.592500000000        -0.061458819167
   11          0.557375000000         0.710849052411
   12          0.195081000000        -0.507586429490
   13          4.550000000000         0.773951278388
   14          1.592500000000        -1.320486379039
   15          0.557375000000         1.142774671241
   16          0.195081000000        -0.506804337457
 P 16
    1          4.550000000000         0.005610645523
    2          1.592500000000         0.023917203948
    3          0.557375000000         0.028230529357
    4          0.195081000000         0.017452497700
    5          4.550000000000         0.026531529291
    6          1.592500000000         0.072707842002
    7          0.557375000000         0.028153471219
    8          0.195081000000        -0.141495772208
    9          4.550000000000         0.516457650617
   10          1.592500000000         0.066010438487
   11          0.557375000000        -0.763494292335
   12          0.195081000000         0.545178108444
   13          4.550000000000         1.089357247643
   14          1.592500000000        -1.858620106444
   15          0.557375000000         1.608486096349
   16          0.195081000000        -0.713340740642
 D 9
    1          3.400000000000        -0.187270180394
    2          1.360000000000        -0.377530059293
    3          0.544000000000        -0.202474320975
    4          3.400000000000         0.595015481306
    5          1.360000000000        -0.115728981350
    6          0.544000000000        -0.436966397534
    7          3.400000000000        -0.483470704752
    8          1.360000000000         0.812632762366
    9          0.544000000000        -0.547449526472
 D 9
    1          3.400000000000        -0.195673717383
    2          1.360000000000        -0.394471292602
    3          0.544000000000        -0.211560126532
    4          3.400000000000        -0.318780509823
    5          1.360000000000         0.062001989587
    6          0.544000000000         0.234105456678
    7          3.400000000000         0.757767739942
    8          1.360000000000        -1.273679843865
    9          0.544000000000         0.858044937015
 D 9
    1          3.400000000000         0.073151719675
    2          1.360000000000         0.147471279240
    3          0.544000000000         0.079090780701
    4          3.400000000000         0.670547396275
    5          1.360000000000        -0.130419744622
    6          0.544000000000        -0.492435389215
    7          3.400000000000         0.789256957070
    8          1.360000000000        -1.326607910132
    9          0.544000000000         0.893701196714
 F 1
    1          1.813333000000         1.000000000000
 end
  // -----------------------------------------------
  // The basis set
  // -----------------------------------------------
  BAS[ATNO] = new BFNGauss[NSH];
  // Basis function   1 L = s
  InitBFNGauss(BAS[ATNO][  0]);
  BAS[ATNO][  0].l  = 0;
  BAS[ATNO][  0].ng = 45;
  BAS[ATNO][  0].a[  0] =      1149.270500000000;     BAS[ATNO][  0].d[  0] =         0.000357619964;
  BAS[ATNO][  0].a[  1] =       172.044570000000;     BAS[ATNO][  0].d[  1] =         0.002771959588;
  BAS[ATNO][  0].a[  2] =        39.080465000000;     BAS[ATNO][  0].d[  2] =         0.014293582341;
  BAS[ATNO][  0].a[  3] =        11.036173000000;     BAS[ATNO][  0].d[  3] =         0.055848744299;
  BAS[ATNO][  0].a[  4] =         3.564152000000;     BAS[ATNO][  0].d[  4] =         0.163308025457;
  BAS[ATNO][  0].a[  5] =         1.240443000000;     BAS[ATNO][  0].d[  5] =         0.331220285496;
  BAS[ATNO][  0].a[  6] =         0.447316000000;     BAS[ATNO][  0].d[  6] =         0.414158267259;
  BAS[ATNO][  0].a[  7] =         0.164206000000;     BAS[ATNO][  0].d[  7] =         0.188968852368;
  BAS[ATNO][  0].a[  8] =         0.057472000000;     BAS[ATNO][  0].d[  8] =         0.005154329943;
  BAS[ATNO][  0].a[  9] =      1149.270500000000;     BAS[ATNO][  0].d[  9] =        -0.000011251504;
  BAS[ATNO][  0].a[ 10] =       172.044570000000;     BAS[ATNO][  0].d[ 10] =        -0.000085520759;
  BAS[ATNO][  0].a[ 11] =        39.080465000000;     BAS[ATNO][  0].d[ 11] =        -0.000478822949;
  BAS[ATNO][  0].a[ 12] =        11.036173000000;     BAS[ATNO][  0].d[ 12] =        -0.002176199027;
  BAS[ATNO][  0].a[ 13] =         3.564152000000;     BAS[ATNO][  0].d[ 13] =        -0.009705883074;
  BAS[ATNO][  0].a[ 14] =         1.240443000000;     BAS[ATNO][  0].d[ 14] =        -0.012849643572;
  BAS[ATNO][  0].a[ 15] =         0.447316000000;     BAS[ATNO][  0].d[ 15] =         0.012114840642;
  BAS[ATNO][  0].a[ 16] =         0.164206000000;     BAS[ATNO][  0].d[ 16] =         0.011611641202;
  BAS[ATNO][  0].a[ 17] =         0.057472000000;     BAS[ATNO][  0].d[ 17] =         0.000247231969;
  BAS[ATNO][  0].a[ 18] =      1149.270500000000;     BAS[ATNO][  0].d[ 18] =         0.000009192435;
  BAS[ATNO][  0].a[ 19] =       172.044570000000;     BAS[ATNO][  0].d[ 19] =         0.000091892943;
  BAS[ATNO][  0].a[ 20] =        39.080465000000;     BAS[ATNO][  0].d[ 20] =         0.000407347063;
  BAS[ATNO][  0].a[ 21] =        11.036173000000;     BAS[ATNO][  0].d[ 21] =         0.004195646588;
  BAS[ATNO][  0].a[ 22] =         3.564152000000;     BAS[ATNO][  0].d[ 22] =         0.013092662454;
  BAS[ATNO][  0].a[ 23] =         1.240443000000;     BAS[ATNO][  0].d[ 23] =        -0.016820185370;
  BAS[ATNO][  0].a[ 24] =         0.447316000000;     BAS[ATNO][  0].d[ 24] =        -0.006158211995;
  BAS[ATNO][  0].a[ 25] =         0.164206000000;     BAS[ATNO][  0].d[ 25] =         0.012419485617;
  BAS[ATNO][  0].a[ 26] =         0.057472000000;     BAS[ATNO][  0].d[ 26] =         0.000659578044;
  BAS[ATNO][  0].a[ 27] =      1149.270500000000;     BAS[ATNO][  0].d[ 27] =        -0.000003250373;
  BAS[ATNO][  0].a[ 28] =       172.044570000000;     BAS[ATNO][  0].d[ 28] =        -0.000072085031;
  BAS[ATNO][  0].a[ 29] =        39.080465000000;     BAS[ATNO][  0].d[ 29] =        -0.000133607383;
  BAS[ATNO][  0].a[ 30] =        11.036173000000;     BAS[ATNO][  0].d[ 30] =        -0.004906091149;
  BAS[ATNO][  0].a[ 31] =         3.564152000000;     BAS[ATNO][  0].d[ 31] =        -0.000069749471;
  BAS[ATNO][  0].a[ 32] =         1.240443000000;     BAS[ATNO][  0].d[ 32] =         0.013314921305;
  BAS[ATNO][  0].a[ 33] =         0.447316000000;     BAS[ATNO][  0].d[ 33] =        -0.017495422878;
  BAS[ATNO][  0].a[ 34] =         0.164206000000;     BAS[ATNO][  0].d[ 34] =         0.006182319649;
  BAS[ATNO][  0].a[ 35] =         0.057472000000;     BAS[ATNO][  0].d[ 35] =         0.003744325943;
  BAS[ATNO][  0].a[ 36] =      1149.270500000000;     BAS[ATNO][  0].d[ 36] =         0.000001898084;
  BAS[ATNO][  0].a[ 37] =       172.044570000000;     BAS[ATNO][  0].d[ 37] =         0.000027402035;
  BAS[ATNO][  0].a[ 38] =        39.080465000000;     BAS[ATNO][  0].d[ 38] =         0.000150262701;
  BAS[ATNO][  0].a[ 39] =        11.036173000000;     BAS[ATNO][  0].d[ 39] =         0.002988829079;
  BAS[ATNO][  0].a[ 40] =         3.564152000000;     BAS[ATNO][  0].d[ 40] =        -0.005310462906;
  BAS[ATNO][  0].a[ 41] =         1.240443000000;     BAS[ATNO][  0].d[ 41] =         0.003959881588;
  BAS[ATNO][  0].a[ 42] =         0.447316000000;     BAS[ATNO][  0].d[ 42] =        -0.000284618306;
  BAS[ATNO][  0].a[ 43] =         0.164206000000;     BAS[ATNO][  0].d[ 43] =        -0.002841949652;
  BAS[ATNO][  0].a[ 44] =         0.057472000000;     BAS[ATNO][  0].d[ 44] =         0.002504587684;

  // Basis function   2 L = s
  InitBFNGauss(BAS[ATNO][  1]);
  BAS[ATNO][  1].l  = 0;
  BAS[ATNO][  1].ng = 45;
  BAS[ATNO][  1].a[  0] =      1149.270500000000;     BAS[ATNO][  1].d[  0] =         0.000008865206;
  BAS[ATNO][  1].a[  1] =       172.044570000000;     BAS[ATNO][  1].d[  1] =         0.000068715384;
  BAS[ATNO][  1].a[  2] =        39.080465000000;     BAS[ATNO][  1].d[  2] =         0.000354330201;
  BAS[ATNO][  1].a[  3] =        11.036173000000;     BAS[ATNO][  1].d[  3] =         0.001384460264;
  BAS[ATNO][  1].a[  4] =         3.564152000000;     BAS[ATNO][  1].d[  4] =         0.004048317915;
  BAS[ATNO][  1].a[  5] =         1.240443000000;     BAS[ATNO][  1].d[  5] =         0.008210772322;
  BAS[ATNO][  1].a[  6] =         0.447316000000;     BAS[ATNO][  1].d[  6] =         0.010266760180;
  BAS[ATNO][  1].a[  7] =         0.164206000000;     BAS[ATNO][  1].d[  7] =         0.004684435980;
  BAS[ATNO][  1].a[  8] =         0.057472000000;     BAS[ATNO][  1].d[  8] =         0.000127773061;
  BAS[ATNO][  1].a[  9] =      1149.270500000000;     BAS[ATNO][  1].d[  9] =         0.000349205618;
  BAS[ATNO][  1].a[ 10] =       172.044570000000;     BAS[ATNO][  1].d[ 10] =         0.002654252276;
  BAS[ATNO][  1].a[ 11] =        39.080465000000;     BAS[ATNO][  1].d[ 11] =         0.014860916961;
  BAS[ATNO][  1].a[ 12] =        11.036173000000;     BAS[ATNO][  1].d[ 12] =         0.067541276222;
  BAS[ATNO][  1].a[ 13] =         3.564152000000;     BAS[ATNO][  1].d[ 13] =         0.301235191031;
  BAS[ATNO][  1].a[ 14] =         1.240443000000;     BAS[ATNO][  1].d[ 14] =         0.398806044385;
  BAS[ATNO][  1].a[ 15] =         0.447316000000;     BAS[ATNO][  1].d[ 15] =        -0.376000442939;
  BAS[ATNO][  1].a[ 16] =         0.164206000000;     BAS[ATNO][  1].d[ 16] =        -0.360382968650;
  BAS[ATNO][  1].a[ 17] =         0.057472000000;     BAS[ATNO][  1].d[ 17] =        -0.007673178104;
  BAS[ATNO][  1].a[ 18] =      1149.270500000000;     BAS[ATNO][  1].d[ 18] =        -0.000383378292;
  BAS[ATNO][  1].a[ 19] =       172.044570000000;     BAS[ATNO][  1].d[ 19] =        -0.003832473182;
  BAS[ATNO][  1].a[ 20] =        39.080465000000;     BAS[ATNO][  1].d[ 20] =        -0.016988754903;
  BAS[ATNO][  1].a[ 21] =        11.036173000000;     BAS[ATNO][  1].d[ 21] =        -0.174983001080;
  BAS[ATNO][  1].a[ 22] =         3.564152000000;     BAS[ATNO][  1].d[ 22] =        -0.546040597147;
  BAS[ATNO][  1].a[ 23] =         1.240443000000;     BAS[ATNO][  1].d[ 23] =         0.701500103270;
  BAS[ATNO][  1].a[ 24] =         0.447316000000;     BAS[ATNO][  1].d[ 24] =         0.256833456671;
  BAS[ATNO][  1].a[ 25] =         0.164206000000;     BAS[ATNO][  1].d[ 25] =        -0.517965185931;
  BAS[ATNO][  1].a[ 26] =         0.057472000000;     BAS[ATNO][  1].d[ 26] =        -0.027508261988;
  BAS[ATNO][  1].a[ 27] =      1149.270500000000;     BAS[ATNO][  1].d[ 27] =         0.000234616108;
  BAS[ATNO][  1].a[ 28] =       172.044570000000;     BAS[ATNO][  1].d[ 28] =         0.005203191036;
  BAS[ATNO][  1].a[ 29] =        39.080465000000;     BAS[ATNO][  1].d[ 29] =         0.009643954248;
  BAS[ATNO][  1].a[ 30] =        11.036173000000;     BAS[ATNO][  1].d[ 30] =         0.354128023205;
  BAS[ATNO][  1].a[ 31] =         3.564152000000;     BAS[ATNO][  1].d[ 31] =         0.005034607288;
  BAS[ATNO][  1].a[ 32] =         1.240443000000;     BAS[ATNO][  1].d[ 32] =        -0.961088291684;
  BAS[ATNO][  1].a[ 33] =         0.447316000000;     BAS[ATNO][  1].d[ 33] =         1.262842318151;
  BAS[ATNO][  1].a[ 34] =         0.164206000000;     BAS[ATNO][  1].d[ 34] =        -0.446247851868;
  BAS[ATNO][  1].a[ 35] =         0.057472000000;     BAS[ATNO][  1].d[ 35] =        -0.270270303639;
  BAS[ATNO][  1].a[ 36] =      1149.270500000000;     BAS[ATNO][  1].d[ 36] =        -0.000144775043;
  BAS[ATNO][  1].a[ 37] =       172.044570000000;     BAS[ATNO][  1].d[ 37] =        -0.002090071196;
  BAS[ATNO][  1].a[ 38] =        39.080465000000;     BAS[ATNO][  1].d[ 38] =        -0.011461183196;
  BAS[ATNO][  1].a[ 39] =        11.036173000000;     BAS[ATNO][  1].d[ 39] =        -0.227970862891;
  BAS[ATNO][  1].a[ 40] =         3.564152000000;     BAS[ATNO][  1].d[ 40] =         0.405051871149;
  BAS[ATNO][  1].a[ 41] =         1.240443000000;     BAS[ATNO][  1].d[ 41] =        -0.302037218814;
  BAS[ATNO][  1].a[ 42] =         0.447316000000;     BAS[ATNO][  1].d[ 42] =         0.021709063697;
  BAS[ATNO][  1].a[ 43] =         0.164206000000;     BAS[ATNO][  1].d[ 43] =         0.216767736524;
  BAS[ATNO][  1].a[ 44] =         0.057472000000;     BAS[ATNO][  1].d[ 44] =        -0.191035686688;

  // Basis function   3 L = s
  InitBFNGauss(BAS[ATNO][  2]);
  BAS[ATNO][  2].l  = 0;
  BAS[ATNO][  2].ng = 45;
  BAS[ATNO][  2].a[  0] =      1149.270500000000;     BAS[ATNO][  2].d[  0] =        -0.000002652984;
  BAS[ATNO][  2].a[  1] =       172.044570000000;     BAS[ATNO][  2].d[  1] =        -0.000020563626;
  BAS[ATNO][  2].a[  2] =        39.080465000000;     BAS[ATNO][  2].d[  2] =        -0.000106036134;
  BAS[ATNO][  2].a[  3] =        11.036173000000;     BAS[ATNO][  2].d[  3] =        -0.000414310758;
  BAS[ATNO][  2].a[  4] =         3.564152000000;     BAS[ATNO][  2].d[  4] =        -0.001211491372;
  BAS[ATNO][  2].a[  5] =         1.240443000000;     BAS[ATNO][  2].d[  5] =        -0.002457138998;
  BAS[ATNO][  2].a[  6] =         0.447316000000;     BAS[ATNO][  2].d[  6] =        -0.003072409736;
  BAS[ATNO][  2].a[  7] =         0.164206000000;     BAS[ATNO][  2].d[  7] =        -0.001401854768;
  BAS[ATNO][  2].a[  8] =         0.057472000000;     BAS[ATNO][  2].d[  8] =        -0.000038237106;
  BAS[ATNO][  2].a[  9] =      1149.270500000000;     BAS[ATNO][  2].d[  9] =        -0.000371516000;
  BAS[ATNO][  2].a[ 10] =       172.044570000000;     BAS[ATNO][  2].d[ 10] =        -0.002823829678;
  BAS[ATNO][  2].a[ 11] =        39.080465000000;     BAS[ATNO][  2].d[ 11] =        -0.015810365402;
  BAS[ATNO][  2].a[ 12] =        11.036173000000;     BAS[ATNO][  2].d[ 12] =        -0.071856417716;
  BAS[ATNO][  2].a[ 13] =         3.564152000000;     BAS[ATNO][  2].d[ 13] =        -0.320480792314;
  BAS[ATNO][  2].a[ 14] =         1.240443000000;     BAS[ATNO][  2].d[ 14] =        -0.424285345436;
  BAS[ATNO][  2].a[ 15] =         0.447316000000;     BAS[ATNO][  2].d[ 15] =         0.400022717967;
  BAS[ATNO][  2].a[ 16] =         0.164206000000;     BAS[ATNO][  2].d[ 16] =         0.383407459580;
  BAS[ATNO][  2].a[ 17] =         0.057472000000;     BAS[ATNO][  2].d[ 17] =         0.008163409427;
  BAS[ATNO][  2].a[ 18] =      1149.270500000000;     BAS[ATNO][  2].d[ 18] =        -0.000138524101;
  BAS[ATNO][  2].a[ 19] =       172.044570000000;     BAS[ATNO][  2].d[ 19] =        -0.001384767764;
  BAS[ATNO][  2].a[ 20] =        39.080465000000;     BAS[ATNO][  2].d[ 20] =        -0.006138459169;
  BAS[ATNO][  2].a[ 21] =        11.036173000000;     BAS[ATNO][  2].d[ 21] =        -0.063225705096;
  BAS[ATNO][  2].a[ 22] =         3.564152000000;     BAS[ATNO][  2].d[ 22] =        -0.197298032109;
  BAS[ATNO][  2].a[ 23] =         1.240443000000;     BAS[ATNO][  2].d[ 23] =         0.253469413488;
  BAS[ATNO][  2].a[ 24] =         0.447316000000;     BAS[ATNO][  2].d[ 24] =         0.092800307973;
  BAS[ATNO][  2].a[ 25] =         0.164206000000;     BAS[ATNO][  2].d[ 25] =        -0.187153688607;
  BAS[ATNO][  2].a[ 26] =         0.057472000000;     BAS[ATNO][  2].d[ 26] =        -0.009939418397;
  BAS[ATNO][  2].a[ 27] =      1149.270500000000;     BAS[ATNO][  2].d[ 27] =         0.000294404961;
  BAS[ATNO][  2].a[ 28] =       172.044570000000;     BAS[ATNO][  2].d[ 28] =         0.006529156367;
  BAS[ATNO][  2].a[ 29] =        39.080465000000;     BAS[ATNO][  2].d[ 29] =         0.012101590131;
  BAS[ATNO][  2].a[ 30] =        11.036173000000;     BAS[ATNO][  2].d[ 30] =         0.444372928404;
  BAS[ATNO][  2].a[ 31] =         3.564152000000;     BAS[ATNO][  2].d[ 31] =         0.006317611252;
  BAS[ATNO][  2].a[ 32] =         1.240443000000;     BAS[ATNO][  2].d[ 32] =        -1.206009100225;
  BAS[ATNO][  2].a[ 33] =         0.447316000000;     BAS[ATNO][  2].d[ 33] =         1.584661202323;
  BAS[ATNO][  2].a[ 34] =         0.164206000000;     BAS[ATNO][  2].d[ 34] =        -0.559968293199;
  BAS[ATNO][  2].a[ 35] =         0.057472000000;     BAS[ATNO][  2].d[ 35] =        -0.339145163383;
  BAS[ATNO][  2].a[ 36] =      1149.270500000000;     BAS[ATNO][  2].d[ 36] =        -0.000268106337;
  BAS[ATNO][  2].a[ 37] =       172.044570000000;     BAS[ATNO][  2].d[ 37] =        -0.003870565813;
  BAS[ATNO][  2].a[ 38] =        39.080465000000;     BAS[ATNO][  2].d[ 38] =        -0.021224762080;
  BAS[ATNO][  2].a[ 39] =        11.036173000000;     BAS[ATNO][  2].d[ 39] =        -0.422175201571;
  BAS[ATNO][  2].a[ 40] =         3.564152000000;     BAS[ATNO][  2].d[ 40] =         0.750108383066;
  BAS[ATNO][  2].a[ 41] =         1.240443000000;     BAS[ATNO][  2].d[ 41] =        -0.559337373723;
  BAS[ATNO][  2].a[ 42] =         0.447316000000;     BAS[ATNO][  2].d[ 42] =         0.040202630398;
  BAS[ATNO][  2].a[ 43] =         0.164206000000;     BAS[ATNO][  2].d[ 43] =         0.401428330360;
  BAS[ATNO][  2].a[ 44] =         0.057472000000;     BAS[ATNO][  2].d[ 44] =        -0.353775603215;

  // Basis function   4 L = s
  InitBFNGauss(BAS[ATNO][  3]);
  BAS[ATNO][  3].l  = 0;
  BAS[ATNO][  3].ng = 45;
  BAS[ATNO][  3].a[  0] =      1149.270500000000;     BAS[ATNO][  3].d[  0] =        -0.000000354464;
  BAS[ATNO][  3].a[  1] =       172.044570000000;     BAS[ATNO][  3].d[  1] =        -0.000002747497;
  BAS[ATNO][  3].a[  2] =        39.080465000000;     BAS[ATNO][  3].d[  2] =        -0.000014167442;
  BAS[ATNO][  3].a[  3] =        11.036173000000;     BAS[ATNO][  3].d[  3] =        -0.000055355880;
  BAS[ATNO][  3].a[  4] =         3.564152000000;     BAS[ATNO][  3].d[  4] =        -0.000161866836;
  BAS[ATNO][  3].a[  5] =         1.240443000000;     BAS[ATNO][  3].d[  5] =        -0.000328297274;
  BAS[ATNO][  3].a[  6] =         0.447316000000;     BAS[ATNO][  3].d[  6] =        -0.000410503330;
  BAS[ATNO][  3].a[  7] =         0.164206000000;     BAS[ATNO][  3].d[  7] =        -0.000187301207;
  BAS[ATNO][  3].a[  8] =         0.057472000000;     BAS[ATNO][  3].d[  8] =        -0.000005108843;
  BAS[ATNO][  3].a[  9] =      1149.270500000000;     BAS[ATNO][  3].d[  9] =         0.000145300503;
  BAS[ATNO][  3].a[ 10] =       172.044570000000;     BAS[ATNO][  3].d[ 10] =         0.001104404317;
  BAS[ATNO][  3].a[ 11] =        39.080465000000;     BAS[ATNO][  3].d[ 11] =         0.006183459269;
  BAS[ATNO][  3].a[ 12] =        11.036173000000;     BAS[ATNO][  3].d[ 12] =         0.028103160228;
  BAS[ATNO][  3].a[ 13] =         3.564152000000;     BAS[ATNO][  3].d[ 13] =         0.125340551932;
  BAS[ATNO][  3].a[ 14] =         1.240443000000;     BAS[ATNO][  3].d[ 14] =         0.165938679162;
  BAS[ATNO][  3].a[ 15] =         0.447316000000;     BAS[ATNO][  3].d[ 15] =        -0.156449526641;
  BAS[ATNO][  3].a[ 16] =         0.164206000000;     BAS[ATNO][  3].d[ 16] =        -0.149951272435;
  BAS[ATNO][  3].a[ 17] =         0.057472000000;     BAS[ATNO][  3].d[ 17] =        -0.003192722521;
  BAS[ATNO][  3].a[ 18] =      1149.270500000000;     BAS[ATNO][  3].d[ 18] =         0.000544640525;
  BAS[ATNO][  3].a[ 19] =       172.044570000000;     BAS[ATNO][  3].d[ 19] =         0.005444544588;
  BAS[ATNO][  3].a[ 20] =        39.080465000000;     BAS[ATNO][  3].d[ 20] =         0.024134815604;
  BAS[ATNO][  3].a[ 21] =        11.036173000000;     BAS[ATNO][  3].d[ 21] =         0.248586932309;
  BAS[ATNO][  3].a[ 22] =         3.564152000000;     BAS[ATNO][  3].d[ 22] =         0.775724248203;
  BAS[ATNO][  3].a[ 23] =         1.240443000000;     BAS[ATNO][  3].d[ 23] =        -0.996575425098;
  BAS[ATNO][  3].a[ 24] =         0.447316000000;     BAS[ATNO][  3].d[ 24] =        -0.364866533972;
  BAS[ATNO][  3].a[ 25] =         0.164206000000;     BAS[ATNO][  3].d[ 25] =         0.735839343357;
  BAS[ATNO][  3].a[ 26] =         0.057472000000;     BAS[ATNO][  3].d[ 26] =         0.039079192942;
  BAS[ATNO][  3].a[ 27] =      1149.270500000000;     BAS[ATNO][  3].d[ 27] =         0.000159133533;
  BAS[ATNO][  3].a[ 28] =       172.044570000000;     BAS[ATNO][  3].d[ 28] =         0.003529178699;
  BAS[ATNO][  3].a[ 29] =        39.080465000000;     BAS[ATNO][  3].d[ 29] =         0.006541223967;
  BAS[ATNO][  3].a[ 30] =        11.036173000000;     BAS[ATNO][  3].d[ 30] =         0.240195116349;
  BAS[ATNO][  3].a[ 31] =         3.564152000000;     BAS[ATNO][  3].d[ 31] =         0.003414833066;
  BAS[ATNO][  3].a[ 32] =         1.240443000000;     BAS[ATNO][  3].d[ 32] =        -0.651879260931;
  BAS[ATNO][  3].a[ 33] =         0.447316000000;     BAS[ATNO][  3].d[ 33] =         0.856550562682;
  BAS[ATNO][  3].a[ 34] =         0.164206000000;     BAS[ATNO][  3].d[ 34] =        -0.302677415160;
  BAS[ATNO][  3].a[ 35] =         0.057472000000;     BAS[ATNO][  3].d[ 35] =        -0.183316774652;
  BAS[ATNO][  3].a[ 36] =      1149.270500000000;     BAS[ATNO][  3].d[ 36] =        -0.000433412187;
  BAS[ATNO][  3].a[ 37] =       172.044570000000;     BAS[ATNO][  3].d[ 37] =        -0.006257033725;
  BAS[ATNO][  3].a[ 38] =        39.080465000000;     BAS[ATNO][  3].d[ 38] =        -0.034311276064;
  BAS[ATNO][  3].a[ 39] =        11.036173000000;     BAS[ATNO][  3].d[ 39] =        -0.682475018279;
  BAS[ATNO][  3].a[ 40] =         3.564152000000;     BAS[ATNO][  3].d[ 40] =         1.212601380989;
  BAS[ATNO][  3].a[ 41] =         1.240443000000;     BAS[ATNO][  3].d[ 41] =        -0.904207028114;
  BAS[ATNO][  3].a[ 42] =         0.447316000000;     BAS[ATNO][  3].d[ 42] =         0.064990295056;
  BAS[ATNO][  3].a[ 43] =         0.164206000000;     BAS[ATNO][  3].d[ 43] =         0.648936285412;
  BAS[ATNO][  3].a[ 44] =         0.057472000000;     BAS[ATNO][  3].d[ 44] =        -0.571902400644;

  // Basis function   5 L = s
  InitBFNGauss(BAS[ATNO][  4]);
  BAS[ATNO][  4].l  = 0;
  BAS[ATNO][  4].ng = 45;
  BAS[ATNO][  4].a[  0] =      1149.270500000000;     BAS[ATNO][  4].d[  0] =         0.000000338474;
  BAS[ATNO][  4].a[  1] =       172.044570000000;     BAS[ATNO][  4].d[  1] =         0.000002623556;
  BAS[ATNO][  4].a[  2] =        39.080465000000;     BAS[ATNO][  4].d[  2] =         0.000013528343;
  BAS[ATNO][  4].a[  3] =        11.036173000000;     BAS[ATNO][  4].d[  3] =         0.000052858754;
  BAS[ATNO][  4].a[  4] =         3.564152000000;     BAS[ATNO][  4].d[  4] =         0.000154564956;
  BAS[ATNO][  4].a[  5] =         1.240443000000;     BAS[ATNO][  4].d[  5] =         0.000313487649;
  BAS[ATNO][  4].a[  6] =         0.447316000000;     BAS[ATNO][  4].d[  6] =         0.000391985356;
  BAS[ATNO][  4].a[  7] =         0.164206000000;     BAS[ATNO][  4].d[  7] =         0.000178851972;
  BAS[ATNO][  4].a[  8] =         0.057472000000;     BAS[ATNO][  4].d[  8] =         0.000004878381;
  BAS[ATNO][  4].a[  9] =      1149.270500000000;     BAS[ATNO][  4].d[  9] =        -0.000018133567;
  BAS[ATNO][  4].a[ 10] =       172.044570000000;     BAS[ATNO][  4].d[ 10] =        -0.000137830144;
  BAS[ATNO][  4].a[ 11] =        39.080465000000;     BAS[ATNO][  4].d[ 11] =        -0.000771698432;
  BAS[ATNO][  4].a[ 12] =        11.036173000000;     BAS[ATNO][  4].d[ 12] =        -0.003507286735;
  BAS[ATNO][  4].a[ 13] =         3.564152000000;     BAS[ATNO][  4].d[ 13] =        -0.015642555910;
  BAS[ATNO][  4].a[ 14] =         1.240443000000;     BAS[ATNO][  4].d[ 14] =        -0.020709220013;
  BAS[ATNO][  4].a[ 15] =         0.447316000000;     BAS[ATNO][  4].d[ 15] =         0.019524969612;
  BAS[ATNO][  4].a[ 16] =         0.164206000000;     BAS[ATNO][  4].d[ 16] =         0.018713984634;
  BAS[ATNO][  4].a[ 17] =         0.057472000000;     BAS[ATNO][  4].d[ 17] =         0.000398453172;
  BAS[ATNO][  4].a[ 18] =      1149.270500000000;     BAS[ATNO][  4].d[ 18] =        -0.000186440164;
  BAS[ATNO][  4].a[ 19] =       172.044570000000;     BAS[ATNO][  4].d[ 19] =        -0.001863764703;
  BAS[ATNO][  4].a[ 20] =        39.080465000000;     BAS[ATNO][  4].d[ 20] =        -0.008261777769;
  BAS[ATNO][  4].a[ 21] =        11.036173000000;     BAS[ATNO][  4].d[ 21] =        -0.085095739890;
  BAS[ATNO][  4].a[ 22] =         3.564152000000;     BAS[ATNO][  4].d[ 22] =        -0.265544243369;
  BAS[ATNO][  4].a[ 23] =         1.240443000000;     BAS[ATNO][  4].d[ 23] =         0.341145539579;
  BAS[ATNO][  4].a[ 24] =         0.447316000000;     BAS[ATNO][  4].d[ 24] =         0.124900321111;
  BAS[ATNO][  4].a[ 25] =         0.164206000000;     BAS[ATNO][  4].d[ 25] =        -0.251890929188;
  BAS[ATNO][  4].a[ 26] =         0.057472000000;     BAS[ATNO][  4].d[ 26] =        -0.013377504629;
  BAS[ATNO][  4].a[ 27] =      1149.270500000000;     BAS[ATNO][  4].d[ 27] =        -0.000236473662;
  BAS[ATNO][  4].a[ 28] =       172.044570000000;     BAS[ATNO][  4].d[ 28] =        -0.005244386887;
  BAS[ATNO][  4].a[ 29] =        39.080465000000;     BAS[ATNO][  4].d[ 29] =        -0.009720309489;
  BAS[ATNO][  4].a[ 30] =        11.036173000000;     BAS[ATNO][  4].d[ 30] =        -0.356931803667;
  BAS[ATNO][  4].a[ 31] =         3.564152000000;     BAS[ATNO][  4].d[ 31] =        -0.005074468391;
  BAS[ATNO][  4].a[ 32] =         1.240443000000;     BAS[ATNO][  4].d[ 32] =         0.968697631804;
  BAS[ATNO][  4].a[ 33] =         0.447316000000;     BAS[ATNO][  4].d[ 33] =        -1.272840771778;
  BAS[ATNO][  4].a[ 34] =         0.164206000000;     BAS[ATNO][  4].d[ 34] =         0.449780983747;
  BAS[ATNO][  4].a[ 35] =         0.057472000000;     BAS[ATNO][  4].d[ 35] =         0.272410147275;
  BAS[ATNO][  4].a[ 36] =      1149.270500000000;     BAS[ATNO][  4].d[ 36] =        -0.000769112976;
  BAS[ATNO][  4].a[ 37] =       172.044570000000;     BAS[ATNO][  4].d[ 37] =        -0.011103439112;
  BAS[ATNO][  4].a[ 38] =        39.080465000000;     BAS[ATNO][  4].d[ 38] =        -0.060887184144;
  BAS[ATNO][  4].a[ 39] =        11.036173000000;     BAS[ATNO][  4].d[ 39] =        -1.211088215830;
  BAS[ATNO][  4].a[ 40] =         3.564152000000;     BAS[ATNO][  4].d[ 40] =         2.151825640032;
  BAS[ATNO][  4].a[ 41] =         1.240443000000;     BAS[ATNO][  4].d[ 41] =        -1.604563459598;
  BAS[ATNO][  4].a[ 42] =         0.447316000000;     BAS[ATNO][  4].d[ 42] =         0.115328734940;
  BAS[ATNO][  4].a[ 43] =         0.164206000000;     BAS[ATNO][  4].d[ 43] =         1.151571950675;
  BAS[ATNO][  4].a[ 44] =         0.057472000000;     BAS[ATNO][  4].d[ 44] =        -1.014871225281;

  // Basis function   6 L = p
  InitBFNGauss(BAS[ATNO][  5]);
  BAS[ATNO][  5].l  = 1;
  BAS[ATNO][  5].ng = 16;
  BAS[ATNO][  5].a[  0] =         4.550000000000;     BAS[ATNO][  5].d[  0] =         0.061915007717;
  BAS[ATNO][  5].a[  1] =         1.592500000000;     BAS[ATNO][  5].d[  1] =         0.263932886336;
  BAS[ATNO][  5].a[  2] =         0.557375000000;     BAS[ATNO][  5].d[  2] =         0.311531611817;
  BAS[ATNO][  5].a[  3] =         0.195081000000;     BAS[ATNO][  5].d[  3] =         0.192593084952;
  BAS[ATNO][  5].a[  4] =         4.550000000000;     BAS[ATNO][  5].d[  4] =        -0.129793625743;
  BAS[ATNO][  5].a[  5] =         1.592500000000;     BAS[ATNO][  5].d[  5] =        -0.355690557060;
  BAS[ATNO][  5].a[  6] =         0.557375000000;     BAS[ATNO][  5].d[  6] =        -0.137728250286;
  BAS[ATNO][  5].a[  7] =         0.195081000000;     BAS[ATNO][  5].d[  7] =         0.692204701069;
  BAS[ATNO][  5].a[  8] =         4.550000000000;     BAS[ATNO][  5].d[  8] =         0.151357154089;
  BAS[ATNO][  5].a[  9] =         1.592500000000;     BAS[ATNO][  5].d[  9] =         0.019345539944;
  BAS[ATNO][  5].a[ 10] =         0.557375000000;     BAS[ATNO][  5].d[ 10] =        -0.223755661501;
  BAS[ATNO][  5].a[ 11] =         0.195081000000;     BAS[ATNO][  5].d[ 11] =         0.159774198072;
  BAS[ATNO][  5].a[ 12] =         4.550000000000;     BAS[ATNO][  5].d[ 12] =        -0.092374777601;
  BAS[ATNO][  5].a[ 13] =         1.592500000000;     BAS[ATNO][  5].d[ 13] =         0.157606349385;
  BAS[ATNO][  5].a[ 14] =         0.557375000000;     BAS[ATNO][  5].d[ 14] =        -0.136395609196;
  BAS[ATNO][  5].a[ 15] =         0.195081000000;     BAS[ATNO][  5].d[ 15] =         0.060489515641;

  // Basis function   7 L = p
  InitBFNGauss(BAS[ATNO][  6]);
  BAS[ATNO][  6].l  = 1;
  BAS[ATNO][  6].ng = 16;
  BAS[ATNO][  6].a[  0] =         4.550000000000;     BAS[ATNO][  6].d[  0] =         0.057140325045;
  BAS[ATNO][  6].a[  1] =         1.592500000000;     BAS[ATNO][  6].d[  1] =         0.243579246314;
  BAS[ATNO][  6].a[  2] =         0.557375000000;     BAS[ATNO][  6].d[  2] =         0.287507313934;
  BAS[ATNO][  6].a[  3] =         0.195081000000;     BAS[ATNO][  6].d[  3] =         0.177740936831;
  BAS[ATNO][  6].a[  4] =         4.550000000000;     BAS[ATNO][  6].d[  4] =         0.088877304317;
  BAS[ATNO][  6].a[  5] =         1.592500000000;     BAS[ATNO][  6].d[  5] =         0.243562175735;
  BAS[ATNO][  6].a[  6] =         0.557375000000;     BAS[ATNO][  6].d[  6] =         0.094310606885;
  BAS[ATNO][  6].a[  7] =         0.195081000000;     BAS[ATNO][  6].d[  7] =        -0.473993137292;
  BAS[ATNO][  6].a[  8] =         4.550000000000;     BAS[ATNO][  6].d[  8] =        -0.458246902813;
  BAS[ATNO][  6].a[  9] =         1.592500000000;     BAS[ATNO][  6].d[  9] =        -0.058570298947;
  BAS[ATNO][  6].a[ 10] =         0.557375000000;     BAS[ATNO][  6].d[ 10] =         0.677439659109;
  BAS[ATNO][  6].a[ 11] =         0.195081000000;     BAS[ATNO][  6].d[ 11] =        -0.483730233016;
  BAS[ATNO][  6].a[ 12] =         4.550000000000;     BAS[ATNO][  6].d[ 12] =         0.385105428824;
  BAS[ATNO][  6].a[ 13] =         1.592500000000;     BAS[ATNO][  6].d[ 13] =        -0.657052307369;
  BAS[ATNO][  6].a[ 14] =         0.557375000000;     BAS[ATNO][  6].d[ 14] =         0.568625883963;
  BAS[ATNO][  6].a[ 15] =         0.195081000000;     BAS[ATNO][  6].d[ 15] =        -0.252177504136;

  // Basis function   8 L = p
  InitBFNGauss(BAS[ATNO][  7]);
  BAS[ATNO][  7].l  = 1;
  BAS[ATNO][  7].ng = 16;
  BAS[ATNO][  7].a[  0] =         4.550000000000;     BAS[ATNO][  7].d[  0] =         0.028939427073;
  BAS[ATNO][  7].a[  1] =         1.592500000000;     BAS[ATNO][  7].d[  1] =         0.123363733574;
  BAS[ATNO][  7].a[  2] =         0.557375000000;     BAS[ATNO][  7].d[  2] =         0.145611648830;
  BAS[ATNO][  7].a[  3] =         0.195081000000;     BAS[ATNO][  7].d[  3] =         0.090019104288;
  BAS[ATNO][  7].a[  4] =         4.550000000000;     BAS[ATNO][  7].d[  4] =         0.097059163812;
  BAS[ATNO][  7].a[  5] =         1.592500000000;     BAS[ATNO][  7].d[  5] =         0.265984002270;
  BAS[ATNO][  7].a[  6] =         0.557375000000;     BAS[ATNO][  7].d[  6] =         0.102992644897;
  BAS[ATNO][  7].a[  7] =         0.195081000000;     BAS[ATNO][  7].d[  7] =        -0.517627958140;
  BAS[ATNO][  7].a[  8] =         4.550000000000;     BAS[ATNO][  7].d[  8] =         0.480846334068;
  BAS[ATNO][  7].a[  9] =         1.592500000000;     BAS[ATNO][  7].d[  9] =         0.061458819167;
  BAS[ATNO][  7].a[ 10] =         0.557375000000;     BAS[ATNO][  7].d[ 10] =        -0.710849052411;
  BAS[ATNO][  7].a[ 11] =         0.195081000000;     BAS[ATNO][  7].d[ 11] =         0.507586429490;
  BAS[ATNO][  7].a[ 12] =         4.550000000000;     BAS[ATNO][  7].d[ 12] =        -0.773951278388;
  BAS[ATNO][  7].a[ 13] =         1.592500000000;     BAS[ATNO][  7].d[ 13] =         1.320486379039;
  BAS[ATNO][  7].a[ 14] =         0.557375000000;     BAS[ATNO][  7].d[ 14] =        -1.142774671241;
  BAS[ATNO][  7].a[ 15] =         0.195081000000;     BAS[ATNO][  7].d[ 15] =         0.506804337457;

  // Basis function   9 L = p
  InitBFNGauss(BAS[ATNO][  8]);
  BAS[ATNO][  8].l  = 1;
  BAS[ATNO][  8].ng = 16;
  BAS[ATNO][  8].a[  0] =         4.550000000000;     BAS[ATNO][  8].d[  0] =        -0.005610645523;
  BAS[ATNO][  8].a[  1] =         1.592500000000;     BAS[ATNO][  8].d[  1] =        -0.023917203948;
  BAS[ATNO][  8].a[  2] =         0.557375000000;     BAS[ATNO][  8].d[  2] =        -0.028230529357;
  BAS[ATNO][  8].a[  3] =         0.195081000000;     BAS[ATNO][  8].d[  3] =        -0.017452497700;
  BAS[ATNO][  8].a[  4] =         4.550000000000;     BAS[ATNO][  8].d[  4] =        -0.026531529291;
  BAS[ATNO][  8].a[  5] =         1.592500000000;     BAS[ATNO][  8].d[  5] =        -0.072707842002;
  BAS[ATNO][  8].a[  6] =         0.557375000000;     BAS[ATNO][  8].d[  6] =        -0.028153471219;
  BAS[ATNO][  8].a[  7] =         0.195081000000;     BAS[ATNO][  8].d[  7] =         0.141495772208;
  BAS[ATNO][  8].a[  8] =         4.550000000000;     BAS[ATNO][  8].d[  8] =        -0.516457650617;
  BAS[ATNO][  8].a[  9] =         1.592500000000;     BAS[ATNO][  8].d[  9] =        -0.066010438487;
  BAS[ATNO][  8].a[ 10] =         0.557375000000;     BAS[ATNO][  8].d[ 10] =         0.763494292335;
  BAS[ATNO][  8].a[ 11] =         0.195081000000;     BAS[ATNO][  8].d[ 11] =        -0.545178108444;
  BAS[ATNO][  8].a[ 12] =         4.550000000000;     BAS[ATNO][  8].d[ 12] =        -1.089357247643;
  BAS[ATNO][  8].a[ 13] =         1.592500000000;     BAS[ATNO][  8].d[ 13] =         1.858620106444;
  BAS[ATNO][  8].a[ 14] =         0.557375000000;     BAS[ATNO][  8].d[ 14] =        -1.608486096349;
  BAS[ATNO][  8].a[ 15] =         0.195081000000;     BAS[ATNO][  8].d[ 15] =         0.713340740642;

  // Basis function  10 L = d
  InitBFNGauss(BAS[ATNO][  9]);
  BAS[ATNO][  9].l  = 2;
  BAS[ATNO][  9].ng = 9;
  BAS[ATNO][  9].a[  0] =         3.400000000000;     BAS[ATNO][  9].d[  0] =        -0.187270180394;
  BAS[ATNO][  9].a[  1] =         1.360000000000;     BAS[ATNO][  9].d[  1] =        -0.377530059293;
  BAS[ATNO][  9].a[  2] =         0.544000000000;     BAS[ATNO][  9].d[  2] =        -0.202474320975;
  BAS[ATNO][  9].a[  3] =         3.400000000000;     BAS[ATNO][  9].d[  3] =         0.595015481306;
  BAS[ATNO][  9].a[  4] =         1.360000000000;     BAS[ATNO][  9].d[  4] =        -0.115728981350;
  BAS[ATNO][  9].a[  5] =         0.544000000000;     BAS[ATNO][  9].d[  5] =        -0.436966397534;
  BAS[ATNO][  9].a[  6] =         3.400000000000;     BAS[ATNO][  9].d[  6] =        -0.483470704752;
  BAS[ATNO][  9].a[  7] =         1.360000000000;     BAS[ATNO][  9].d[  7] =         0.812632762366;
  BAS[ATNO][  9].a[  8] =         0.544000000000;     BAS[ATNO][  9].d[  8] =        -0.547449526472;

  // Basis function  11 L = d
  InitBFNGauss(BAS[ATNO][ 10]);
  BAS[ATNO][ 10].l  = 2;
  BAS[ATNO][ 10].ng = 9;
  BAS[ATNO][ 10].a[  0] =         3.400000000000;     BAS[ATNO][ 10].d[  0] =         0.195673717383;
  BAS[ATNO][ 10].a[  1] =         1.360000000000;     BAS[ATNO][ 10].d[  1] =         0.394471292602;
  BAS[ATNO][ 10].a[  2] =         0.544000000000;     BAS[ATNO][ 10].d[  2] =         0.211560126532;
  BAS[ATNO][ 10].a[  3] =         3.400000000000;     BAS[ATNO][ 10].d[  3] =         0.318780509823;
  BAS[ATNO][ 10].a[  4] =         1.360000000000;     BAS[ATNO][ 10].d[  4] =        -0.062001989587;
  BAS[ATNO][ 10].a[  5] =         0.544000000000;     BAS[ATNO][ 10].d[  5] =        -0.234105456678;
  BAS[ATNO][ 10].a[  6] =         3.400000000000;     BAS[ATNO][ 10].d[  6] =        -0.757767739942;
  BAS[ATNO][ 10].a[  7] =         1.360000000000;     BAS[ATNO][ 10].d[  7] =         1.273679843865;
  BAS[ATNO][ 10].a[  8] =         0.544000000000;     BAS[ATNO][ 10].d[  8] =        -0.858044937015;

  // Basis function  12 L = d
  InitBFNGauss(BAS[ATNO][ 11]);
  BAS[ATNO][ 11].l  = 2;
  BAS[ATNO][ 11].ng = 9;
  BAS[ATNO][ 11].a[  0] =         3.400000000000;     BAS[ATNO][ 11].d[  0] =        -0.073151719675;
  BAS[ATNO][ 11].a[  1] =         1.360000000000;     BAS[ATNO][ 11].d[  1] =        -0.147471279240;
  BAS[ATNO][ 11].a[  2] =         0.544000000000;     BAS[ATNO][ 11].d[  2] =        -0.079090780701;
  BAS[ATNO][ 11].a[  3] =         3.400000000000;     BAS[ATNO][ 11].d[  3] =        -0.670547396275;
  BAS[ATNO][ 11].a[  4] =         1.360000000000;     BAS[ATNO][ 11].d[  4] =         0.130419744622;
  BAS[ATNO][ 11].a[  5] =         0.544000000000;     BAS[ATNO][ 11].d[  5] =         0.492435389215;
  BAS[ATNO][ 11].a[  6] =         3.400000000000;     BAS[ATNO][ 11].d[  6] =        -0.789256957070;
  BAS[ATNO][ 11].a[  7] =         1.360000000000;     BAS[ATNO][ 11].d[  7] =         1.326607910132;
  BAS[ATNO][ 11].a[  8] =         0.544000000000;     BAS[ATNO][ 11].d[  8] =        -0.893701196714;

  // Basis function  13 L = f
  InitBFNGauss(BAS[ATNO][ 12]);
  BAS[ATNO][ 12].l  = 3;
  BAS[ATNO][ 12].ng = 1;
  BAS[ATNO][ 12].a[  0] =         1.813333000000;     BAS[ATNO][ 12].d[  0] =         1.000000000000;

-------
TIMINGS
-------

Total SCF time: 0 days 0 hours 0 min 1 sec 

Total time                  ....       1.281 sec
Sum of individual times     ....       1.102 sec  ( 86.0%)

Fock matrix formation       ....       0.870 sec  ( 67.9%)
  XC integration            ....       0.014 sec  (  1.7% of F)
    Basis function eval.    ....       0.003 sec  ( 22.6% of XC)
    Density eval.           ....       0.001 sec  (  4.5% of XC)
    XC-Functional eval.     ....       0.001 sec  (  6.6% of XC)
    XC-Potential eval.      ....       0.001 sec  (  4.9% of XC)
Diagonalization             ....       0.000 sec  (  0.0%)
Density matrix formation    ....       0.000 sec  (  0.0%)
Population analysis         ....       0.001 sec  (  0.0%)
Initial guess               ....       0.093 sec  (  7.3%)
Orbital Transformation      ....       0.000 sec  (  0.0%)
Orbital Orthonormalization  ....       0.000 sec  (  0.0%)
DIIS solution               ....       0.000 sec  (  0.0%)
SOSCF solution              ....       0.001 sec  (  0.1%)
Grid generation             ....       0.136 sec  ( 10.6%)

-------------------------   --------------------
FINAL SINGLE POINT ENERGY        -2.834786504012
-------------------------   --------------------


                            ***************************************
                            *     ORCA property calculations      *
                            ***************************************

                                    ---------------------
                                    Active property flags
                                    ---------------------
   (+) Dipole Moment


------------------------------------------------------------------------------
                       ORCA ELECTRIC PROPERTIES CALCULATION
------------------------------------------------------------------------------

Dipole Moment Calculation                       ... on
Quadrupole Moment Calculation                   ... off
Polarizability Calculation                      ... off
GBWName                                         ... He_ano-rcc-qzp_4385.151648_.gbw
Electron density file                           ... He_ano-rcc-qzp_4385.151648_.scfp
The origin for moment calculation is the CENTER OF MASS  = ( 0.000000,  0.000000  0.000000)

-------------
DIPOLE MOMENT
-------------
                                X             Y             Z
Electronic contribution:      0.00000       0.00000      -0.00000
Nuclear contribution   :      0.00000       0.00000       0.00000
                        -----------------------------------------
Total Dipole Moment    :      0.00000       0.00000      -0.00000
                        -----------------------------------------
Magnitude (a.u.)       :      0.00000
Magnitude (Debye)      :      0.00000



--------------------
Rotational spectrum 
--------------------
 
Rotational constants in cm-1:     0.000000     0.000000     0.000000 
Rotational constants in MHz :     0.000000     0.000000     0.000000 

 Dipole components along the rotational axes: 
x,y,z [a.u.] :     0.000000     0.000000    -0.000000 
x,y,z [Debye]:     0.000000     0.000000    -0.000000 

 

Timings for individual modules:

Sum of individual times         ...        2.130 sec (=   0.035 min)
GTO integral calculation        ...        0.330 sec (=   0.006 min)  15.5 %
Relativistic integrals          ...        0.263 sec (=   0.004 min)  12.4 %
SCF iterations                  ...        1.537 sec (=   0.026 min)  72.1 %
                             ****ORCA TERMINATED NORMALLY****
TOTAL RUN TIME: 0 days 0 hours 0 minutes 2 seconds 436 msec
