
                                 *****************
                                 * O   R   C   A *
                                 *****************

           --- An Ab Initio, DFT and Semiempirical electronic structure package ---

                  #######################################################
                  #                        -***-                        #
                  #          Department of theory and spectroscopy      #
                  #               Directorship: Frank Neese             #
                  #        Max Planck Institute fuer Kohlenforschung    #
                  #                Kaiser Wilhelm Platz 1               #
                  #                 D-45470 Muelheim/Ruhr               #
                  #                      Germany                        #
                  #                                                     #
                  #                  All rights reserved                #
                  #                        -***-                        #
                  #######################################################


                         Program Version 4.2.1 -  RELEASE  -


 With contributions from (in alphabetic order):
   Daniel Aravena         : Magnetic Suceptibility
   Michael Atanasov       : Ab Initio Ligand Field Theory (pilot matlab implementation)
   Alexander A. Auer      : GIAO ZORA, VPT2
   Ute Becker             : Parallelization
   Giovanni Bistoni       : ED, misc. LED, open-shell LED, HFLD
   Martin Brehm           : Molecular dynamics
   Dmytro Bykov           : SCF Hessian
   Vijay G. Chilkuri      : MRCI spin determinant printing, contributions to CSF-ICE
   Dipayan Datta          : RHF DLPNO-CCSD density
   Achintya Kumar Dutta   : EOM-CC, STEOM-CC
   Dmitry Ganyushin       : Spin-Orbit,Spin-Spin,Magnetic field MRCI
   Miquel Garcia          : C-PCM Hessian, Gaussian charge scheme
   Yang Guo               : DLPNO-NEVPT2, CIM, IAO-localization
   Andreas Hansen         : Spin unrestricted coupled pair/coupled cluster methods
   Benjamin Helmich-Paris : CASSCF linear response (MC-RPA)
   Lee Huntington         : MR-EOM, pCC
   Robert Izsak           : Overlap fitted RIJCOSX, COSX-SCS-MP3, EOM
   Christian Kollmar      : KDIIS, OOCD, Brueckner-CCSD(T), CCSD density
   Simone Kossmann        : Meta GGA functionals, TD-DFT gradient, OOMP2, MP2 Hessian
   Martin Krupicka        : AUTO-CI
   Lucas Lang             : DCDCAS
   Dagmar Lenk            : GEPOL surface, SMD
   Dimitrios Liakos       : Extrapolation schemes; Compound Job, initial MDCI parallelization
   Dimitrios Manganas     : Further ROCIS development; embedding schemes
   Dimitrios Pantazis     : SARC Basis sets
   Taras Petrenko         : DFT Hessian,TD-DFT gradient, ASA, ECA, R-Raman, ABS, FL, XAS/XES, NRVS
   Peter Pinski           : DLPNO-MP2, DLPNO-MP2 Gradient
   Christoph Reimann      : Effective Core Potentials
   Marius Retegan         : Local ZFS, SOC
   Christoph Riplinger    : Optimizer, TS searches, QM/MM, DLPNO-CCSD(T), (RO)-DLPNO pert. Triples
   Tobias Risthaus        : Range-separated hybrids, TD-DFT gradient, RPA, STAB
   Michael Roemelt        : Original ROCIS implementation
   Masaaki Saitow         : Open-shell DLPNO-CCSD energy and density
   Barbara Sandhoefer     : DKH picture change effects
   Avijit Sen             : IP-ROCIS
   Kantharuban Sivalingam : CASSCF convergence, NEVPT2, FIC-MRCI
   Bernardo de Souza      : ESD, SOC TD-DFT
   Georgi Stoychev        : AutoAux, RI-MP2 NMR
   Willem Van den Heuvel  : Paramagnetic NMR
   Boris Wezisla          : Elementary symmetry handling
   Frank Wennmohs         : Technical directorship


 We gratefully acknowledge several colleagues who have allowed us to
 interface, adapt or use parts of their codes:
   Stefan Grimme, W. Hujo, H. Kruse,             : VdW corrections, initial TS optimization,
                  C. Bannwarth                     DFT functionals, gCP, sTDA/sTD-DF
   Ed Valeev, F. Pavosevic, A. Kumar             : LibInt (2-el integral package), F12 methods
   Garnet Chan, S. Sharma, J. Yang, R. Olivares  : DMRG
   Ulf Ekstrom                                   : XCFun DFT Library
   Mihaly Kallay                                 : mrcc  (arbitrary order and MRCC methods)
   Andreas Klamt, Michael Diedenhofen            : otool_cosmo (COSMO solvation model)
   Jiri Pittner, Ondrej Demel                    : Mk-CCSD
   Frank Weinhold                                : gennbo (NPA and NBO analysis)
   Christopher J. Cramer and Donald G. Truhlar   : smd solvation model
   Lars Goerigk                                  : TD-DFT with DH, B97 family of functionals
   V. Asgeirsson, H. Jonsson                     : NEB implementation
   FAccTs GmbH                                   : IRC, NEB, NEB-TS, Multilevel, MM, QM/MM, CI optimization
   S Lehtola, MJT Oliveira, MAL Marques          : LibXC Library


 Your calculation uses the libint2 library for the computation of 2-el integrals
 For citations please refer to: http://libint.valeyev.net

 Your ORCA version has been built with support for libXC version: 4.2.3
 For citations please refer to: https://tddft.org/programs/libxc/

 This ORCA versions uses:
   CBLAS   interface :  Fast vector & matrix operations
   LAPACKE interface :  Fast linear algebra routines
   SCALAPACK package :  Parallel linear algebra routines


----- Orbital basis set information -----
Your calculation utilizes the basis: ANO-RCC-QZP
   H, He:       P.-O. Widmark, P.-A. Malmqvist, and B. O. Roos, Theor. Chim. Acta 77, 291 (1990).
   s block:     B. O. Roos, V. Veryazov and P.-O. Widmark, Theor. Chem. Acc. 111, 345 (2004).
   p block:     B. O. Roos, R. Lindh, P.-A. Malmqvist, V. Veryazov, and P.-O. Widmark, J. Phys. Chem. A 108, 2851 (2004).
   d block:     B. O. Roos, R. Lindh, P.-A. Malmqvist, V. Veryazov, and P.-O. Widmark, J. Phys. Chem. A 109, 6575 (2005).
   actinides:   B. O. Roos, R. Lindh, P.-A. Malmqvist, V. Veryazov, and P.-O. Widmark, Chem. Phys. Letters 409, 295 (2005).
   lanthanides: B. O. Roos, R. Lindh, P.-A. Malmqvist, V. Veryazov, P.-O. Widmark and A. C. Borin, J. Phys. Chem. A 112, 11431 (2008).

================================================================================
                                        WARNINGS
                       Please study these warnings very carefully!
================================================================================


INFO   : the flag for use of LIBINT has been found!

================================================================================
                                       INPUT FILE
================================================================================
NAME = He_ano-rcc-qzp_34.25899725_.inp
|  1> ! LDA ano-rcc-qzp nori grid5 finalgrid6 verytightscf
|  2> %Pal NProcs 18 End
|  3> 
|  4> % REL
|  5>   Method ZORA
|  6>   ModelPot 1, 0, 0, 0
|  7>   velit 34.25899725
|  8> END
|  9> 
| 10> *xyz 0 1
| 11> He 0.0 0.0 0.0
| 12> **                         ****END OF INPUT****
================================================================================

                       ****************************
                       * Single Point Calculation *
                       ****************************

---------------------------------
CARTESIAN COORDINATES (ANGSTROEM)
---------------------------------
  He     0.000000    0.000000    0.000000

----------------------------
CARTESIAN COORDINATES (A.U.)
----------------------------
  NO LB      ZA    FRAG     MASS         X           Y           Z
   0 He    2.0000    0     4.003    0.000000    0.000000    0.000000

--------------------------------
INTERNAL COORDINATES (ANGSTROEM)
--------------------------------
 He     0   0   0     0.000000000000     0.00000000     0.00000000

---------------------------
INTERNAL COORDINATES (A.U.)
---------------------------
 He     0   0   0     0.000000000000     0.00000000     0.00000000

---------------------
BASIS SET INFORMATION
---------------------
There are 1 groups of distinct atoms

 Group   1 Type He  : 45s16p9d1f contracted to 5s4p3d1f pattern {99999/4444/333/1}

Atom   0He   basis set group =>   1


           ************************************************************
           *        Program running with 18 parallel MPI-processes    *
           *              working on a common directory               *
           ************************************************************


------------------------------------------------------------------------------
                       ORCA GTO INTEGRAL CALCULATION
                     -- ANO INTEGRAL GENERATION BRANCH --
------------------------------------------------------------------------------


Gathering ANO information                         ... done
Calculation Information:
Number of atoms                                   ... 1
Number of basis functions                         ... 39
Highest angular momentum                          ... 3
Number of primitive shells                        ... 17
Total number of shells                            ... 13
Maximum number of shells                          ... 13

Getting memory                                    ... done
Making prescreening integrals                     ... done
Gathering atom contracted prescreening            ... done
Making one-electron integrals                     ... done

Timings:

Total time                                        ...    0.1 sec
Prescreening matrix                               ...    0.0 sec
One-electron matrix                               ...    0.0 sec
Two-index integrals + Cholesky                    ...    0.0 sec


           ************************************************************
           *        Program running with 18 parallel MPI-processes    *
           *              working on a common directory               *
           ************************************************************
------------------------------------------------------------------------------
                          ORCA RELATIVISTIC HAMILTONIAN
------------------------------------------------------------------------------

Relativistic Method            ... ZORA(MP)
Treatment of potential         ... Van Wuellen
Nucleus model                  ... Point Nucleus
Speed of light used            ...  34.25899725000000


            *************************************************
            *         ZERO ORDER REGULAR APPROXIMATION      *
            *                     ZORA(MP)                  *
            *            Programmed by FN according to      *
            *                   C. van Wuellen              *
            *       J. Chem. Phys. (1998) vol 109, 392-399  *
            *************************************************

Terms included in model potential: +V(e,N)
Basis function cutoff value   ... 1.000000e-12
Loading the fitted atomic densities  (DKH4)  ... done
Calculating the cutoffs                      ... done
Number of fit functions                      ... 6
Setting up the integration grid ... done


           ************************************************************
           *        Program running with 18 parallel MPI-processes    *
           *              working on a common directory               *
           ************************************************************
-------------------------------------------------------------------------------
                                 ORCA SCF
-------------------------------------------------------------------------------

------------
SCF SETTINGS
------------
Hamiltonian:
 Density Functional     Method          .... DFT(GTOs)
 Exchange Functional    Exchange        .... Slater
   X-Alpha parameter    XAlpha          ....  0.666667
 Correlation Functional Correlation     .... VWN-5
 Gradients option       PostSCFGGA      .... off
   Density functional embedding theory  .... OFF

Relativistic Settings:
 Scalar relativistic method             .... ZORA
 Speed of light used       Velit        ....       34.2589973
Orbital energies will be scaled


General Settings:
 Integral files         IntName         .... He_ano-rcc-qzp_34.25899725_
 Hartree-Fock type      HFTyp           .... RHF
 Total Charge           Charge          ....    0
 Multiplicity           Mult            ....    1
 Number of Electrons    NEL             ....    2
 Basis Dimension        Dim             ....   39
 Nuclear Repulsion      ENuc            ....      0.0000000000 Eh

Convergence Acceleration:
 DIIS                   CNVDIIS         .... on
   Start iteration      DIISMaxIt       ....    12
   Startup error        DIISStart       ....  0.200000
   # of expansion vecs  DIISMaxEq       ....     5
   Bias factor          DIISBfac        ....   1.050
   Max. coefficient     DIISMaxC        ....  10.000
 Newton-Raphson         CNVNR           .... off
 SOSCF                  CNVSOSCF        .... on
   Start iteration      SOSCFMaxIt      ....   150
   Startup grad/error   SOSCFStart      ....  0.003300
 Level Shifting         CNVShift        .... on
   Level shift para.    LevelShift      ....    0.2500
   Turn off err/grad.   ShiftErr        ....    0.0010
 Zerner damping         CNVZerner       .... off
 Static damping         CNVDamp         .... on
   Fraction old density DampFac         ....    0.7000
   Max. Damping (<1)    DampMax         ....    0.9800
   Min. Damping (>=0)   DampMin         ....    0.0000
   Turn off err/grad.   DampErr         ....    0.1000
 Fernandez-Rico         CNVRico         .... off

SCF Procedure:
 Maximum # iterations   MaxIter         ....   125
 SCF integral mode      SCFMode         .... Direct
   Integral package                     .... LIBINT
 Reset frequency        DirectResetFreq ....    20
 Integral Threshold     Thresh          ....  1.000e-12 Eh
 Primitive CutOff       TCut            ....  1.000e-14 Eh

Convergence Tolerance:
 Convergence Check Mode ConvCheckMode   .... Total+1el-Energy
 Convergence forced     ConvForced      .... 0
 Energy Change          TolE            ....  1.000e-09 Eh
 1-El. energy change                    ....  1.000e-06 Eh
 Orbital Gradient       TolG            ....  2.000e-06
 Orbital Rotation angle TolX            ....  2.000e-06
 DIIS Error             TolErr          ....  1.000e-08


Diagonalization of the overlap matrix:
Smallest eigenvalue                        ... 1.000e+00
Time for diagonalization                   ...    0.001 sec
Threshold for overlap eigenvalues          ... 1.000e-08
Number of eigenvalues below threshold      ... 0
Time for construction of square roots      ...    0.001 sec
Total time needed                          ...    0.002 sec

-------------------
DFT GRID GENERATION
-------------------

General Integration Accuracy     IntAcc      ...  5.010
Radial Grid Type                 RadialGrid  ... Gauss-Chebyshev
Angular Grid (max. acc.)         AngularGrid ... Lebedev-434
Angular grid pruning method      GridPruning ... 3 (G Style)
Weight generation scheme         WeightScheme... Becke
Basis function cutoff            BFCut       ...    1.0000e-12
Integration weight cutoff        WCut        ...    1.0000e-14
Grids for H and He will be reduced by one unit

# of grid points (after initial pruning)     ...   6764 (   0.0 sec)
# of grid points (after weights+screening)   ...   6764 (   0.0 sec)
Grid point division into batches done        ...    0.0 sec
Reduced shell lists constructed in    0.0 sec

Total number of grid points                  ...     6764
Total number of batches                      ...      106
Average number of points per batch           ...       63
Average number of grid points per atom       ...     6764
Average number of shells per batch           ...     7.71 (59.34%)
Average number of basis functions per batch  ...    14.57 (37.36%)
Average number of large shells per batch     ...     6.86 (88.89%)
Average number of large basis fcns per batch ...    12.00 (82.35%)
Maximum spatial batch extension              ...  15.22, 15.22, 15.22 au
Average spatial batch extension              ...   0.77,  0.77,  0.77 au

Time for grid setup =    0.051 sec

------------------------------
INITIAL GUESS: MODEL POTENTIAL
------------------------------
Loading ZORA relativistic densities                ... done
Calculating cut-offs                               ... done
Setting up the integral package                    ... done
Initializing the effective Hamiltonian             ... done
Starting the Coulomb interaction                   ... done (   0.0 sec)
Reading the grid                                   ... done
Mapping shells                                     ... done
Starting the XC term evaluation                    ... done (   0.0 sec)
  promolecular density results
     # of electrons  =      1.999920377
     EX              =     -0.884114011
     EC              =     -0.112857661
     EX+EC           =     -0.996971673
Transforming the Hamiltonian                       ... done (   0.0 sec)
Diagonalizing the Hamiltonian                      ... done (   0.0 sec)
Back transforming the eigenvectors                 ... done (   0.0 sec)
Now organizing SCF variables                       ... done
                      ------------------
                      INITIAL GUESS DONE (   0.1 sec)
                      ------------------
--------------
SCF ITERATIONS
--------------
ITER       Energy         Delta-E        Max-DP      RMS-DP      [F,P]     Damp
               ***  Starting incremental Fock matrix formation  ***
  0     -2.8390170822   0.000000000000 0.00533345  0.00014063  0.0304284 0.7000
                      *** Initiating the SOSCF procedure ***
                      *** Re-Reading the Fockian *** 
                      *** Removing any level shift *** 
ITER      Energy       Delta-E        Grad      Rot      Max-DP    RMS-DP
  1     -2.83909734  -0.0000802589  0.001085  0.001085  0.013863  0.000375
               *** Restarting incremental Fock matrix formation ***
  2     -2.83921672  -0.0001193797  0.002929  0.002433  0.005496  0.000146
  3     -2.83922795  -0.0000112273  0.001175  0.000777  0.001667  0.000045
  4     -2.83923045  -0.0000024997  0.000002  0.000001  0.000001  0.000000
                 **** Energy Check signals convergence ****
              ***Rediagonalizing the Fockian in SOSCF/NRSCF***

               *****************************************************
               *                     SUCCESS                       *
               *           SCF CONVERGED AFTER   5 CYCLES          *
               *****************************************************

Setting up the final grid:

General Integration Accuracy     IntAcc      ...  5.340
Radial Grid Type                 RadialGrid  ... Gauss-Chebyshev
Angular Grid (max. acc.)         AngularGrid ... Lebedev-590
Angular grid pruning method      GridPruning ... 3 (G Style)
Weight generation scheme         WeightScheme... Becke
Basis function cutoff            BFCut       ...    1.0000e-12
Integration weight cutoff        WCut        ...    1.0000e-14
Grids for H and He will be reduced by one unit

# of grid points (after initial pruning)     ...  11406 (   0.0 sec)
# of grid points (after weights+screening)   ...  11406 (   0.0 sec)
Grid point division into batches done        ...    0.1 sec
Reduced shell lists constructed in    0.1 sec

Total number of grid points                  ...    11406
Total number of batches                      ...      179
Average number of points per batch           ...       63
Average number of grid points per atom       ...    11406
Average number of shells per batch           ...     6.00 (46.15%)
Average number of basis functions per batch  ...     8.91 (22.84%)
Average number of large shells per batch     ...     4.00 (66.67%)
Average number of large basis fcns per batch ...     4.00 (44.90%)
Maximum spatial batch extension              ...  16.29, 16.29, 16.29 au
Average spatial batch extension              ...   0.81,  0.81,  0.81 au

Final grid set up in    0.1 sec
Final integration                            ... done (   0.0 sec)
Change in XC energy                          ...     0.000000004
Integrated number of electrons               ...     1.999999999
Previous integrated no of electrons          ...     2.000000002

----------------
TOTAL SCF ENERGY
----------------

Total Energy       :           -2.83923044 Eh             -77.25939 eV

Components:
Nuclear Repulsion  :            0.00000000 Eh               0.00000 eV
Electronic Energy  :           -2.83923044 Eh             -77.25939 eV
One Electron Energy:           -3.86390334 Eh            -105.14216 eV
Two Electron Energy:            1.02467289 Eh              27.88277 eV

Virial components:
Potential Energy   :           -5.61507906 Eh            -152.79407 eV
Kinetic Energy     :            2.77584862 Eh              75.53468 eV
Virial Ratio       :            2.02283331


DFT components:
N(Alpha)           :        0.999999999537 electrons
N(Beta)            :        0.999999999537 electrons
N(Total)           :        1.999999999074 electrons
E(X)               :       -0.863436829994 Eh       
E(C)               :       -0.111541396948 Eh       
E(XC)              :       -0.974978226943 Eh       
DFET-embed. en.    :        0.000000000000 Eh       

---------------
SCF CONVERGENCE
---------------

  Last Energy change         ...   -3.5190e-12  Tolerance :   1.0000e-09
  Last MAX-Density change    ...    3.8173e-08  Tolerance :   1.0000e-08
  Last RMS-Density change    ...    1.1552e-09  Tolerance :   1.0000e-09
  Last Orbital Gradient      ...    2.8807e-08  Tolerance :   2.0000e-06
  Last Orbital Rotation      ...    1.6925e-08  Tolerance :   2.0000e-06

             **** THE GBW FILE WAS UPDATED (He_ano-rcc-qzp_34.25899725_.gbw) ****
             **** DENSITY FILE WAS UPDATED (He_ano-rcc-qzp_34.25899725_.scfp) ****
             **** ENERGY FILE WAS UPDATED (He_ano-rcc-qzp_34.25899725_.en.tmp) ****
             **** THE GBW FILE WAS UPDATED (He_ano-rcc-qzp_34.25899725_.gbw) ****
             **** DENSITY FILE WAS UPDATED (He_ano-rcc-qzp_34.25899725_.scfp) ****
----------------
ORBITAL ENERGIES
----------------

  NO   OCC          E(Eh)            E(eV) 
   0   2.0000      -0.571124       -15.5411 
   1   0.0000       0.188289         5.1236 
   2   0.0000       0.264880         7.2078 
   3   0.0000       0.264880         7.2078 
   4   0.0000       0.264880         7.2078 
   5   0.0000       1.295451        35.2510 
   6   0.0000       1.295451        35.2510 
   7   0.0000       1.295451        35.2510 
   8   0.0000       1.391441        37.8630 
   9   0.0000       1.433350        39.0034 
  10   0.0000       1.433350        39.0034 
  11   0.0000       1.433350        39.0034 
  12   0.0000       1.433350        39.0034 
  13   0.0000       1.433350        39.0034 
  14   0.0000       4.465084       121.5011 
  15   0.0000       4.465084       121.5011 
  16   0.0000       4.465084       121.5011 
  17   0.0000       5.040456       137.1578 
  18   0.0000       5.040456       137.1578 
  19   0.0000       5.040456       137.1578 
  20   0.0000       5.040456       137.1578 
  21   0.0000       5.040456       137.1578 
  22   0.0000       5.673411       154.3814 
  23   0.0000       7.403879       201.4698 
  24   0.0000       7.403879       201.4698 
  25   0.0000       7.403879       201.4698 
  26   0.0000       7.403879       201.4698 
  27   0.0000       7.403879       201.4698 
  28   0.0000       7.403879       201.4698 
  29   0.0000       7.403879       201.4698 
  30   0.0000      14.313384       389.4870 
  31   0.0000      14.313384       389.4870 
  32   0.0000      14.313384       389.4870 
  33   0.0000      14.619342       397.8125 
  34   0.0000      14.619342       397.8125 
  35   0.0000      14.619342       397.8125 
  36   0.0000      14.619342       397.8125 
  37   0.0000      14.619342       397.8125 
  38   0.0000      20.477040       557.2086 

                    ********************************
                    * MULLIKEN POPULATION ANALYSIS *
                    ********************************

-----------------------
MULLIKEN ATOMIC CHARGES
-----------------------
   0 He:   -0.000000
Sum of atomic charges:   -0.0000000

--------------------------------
MULLIKEN REDUCED ORBITAL CHARGES
--------------------------------
  0 Hes       :     2.000000  s :     2.000000
      pz      :     0.000000  p :     0.000000
      px      :     0.000000
      py      :     0.000000
      dz2     :     0.000000  d :     0.000000
      dxz     :     0.000000
      dyz     :     0.000000
      dx2y2   :     0.000000
      dxy     :     0.000000
      f0      :     0.000000  f :     0.000000
      f+1     :     0.000000
      f-1     :     0.000000
      f+2     :     0.000000
      f-2     :     0.000000
      f+3     :     0.000000
      f-3     :     0.000000


                     *******************************
                     * LOEWDIN POPULATION ANALYSIS *
                     *******************************

----------------------
LOEWDIN ATOMIC CHARGES
----------------------
   0 He:   -0.000000

-------------------------------
LOEWDIN REDUCED ORBITAL CHARGES
-------------------------------
  0 Hes       :     2.000000  s :     2.000000
      pz      :     0.000000  p :     0.000000
      px      :     0.000000
      py      :     0.000000
      dz2     :     0.000000  d :     0.000000
      dxz     :     0.000000
      dyz     :     0.000000
      dx2y2   :     0.000000
      dxy     :     0.000000
      f0      :     0.000000  f :     0.000000
      f+1     :     0.000000
      f-1     :     0.000000
      f+2     :     0.000000
      f-2     :     0.000000
      f+3     :     0.000000
      f-3     :     0.000000


                      *****************************
                      * MAYER POPULATION ANALYSIS *
                      *****************************

  NA   - Mulliken gross atomic population
  ZA   - Total nuclear charge
  QA   - Mulliken gross atomic charge
  VA   - Mayer's total valence
  BVA  - Mayer's bonded valence
  FA   - Mayer's free valence

  ATOM       NA         ZA         QA         VA         BVA        FA
  0 He     2.0000     2.0000    -0.0000    -0.0000     0.0000    -0.0000

  Mayer bond orders larger than 0.100000


--------------------------
ATOM BASIS FOR ELEMENT He
--------------------------
 NewGTO He
 S 45
    1       1149.270500000000         0.000357628716
    2        172.044570000000         0.002772027421
    3         39.080465000000         0.014293932120
    4         11.036173000000         0.055850110977
    5          3.564152000000         0.163312021777
    6          1.240443000000         0.331228390807
    7          0.447316000000         0.414168402150
    8          0.164206000000         0.188973476636
    9          0.057472000000         0.005154456075
   10       1149.270500000000        -0.000010545034
   11        172.044570000000        -0.000080151002
   12         39.080465000000        -0.000448758167
   13         11.036173000000        -0.002039557816
   14          3.564152000000        -0.009096461050
   15          1.240443000000        -0.012042828186
   16          0.447316000000         0.011354162746
   17          0.164206000000         0.010882558662
   18          0.057472000000         0.000231708538
   19       1149.270500000000         0.000009374765
   20        172.044570000000         0.000093715623
   21         39.080465000000         0.000415426716
   22         11.036173000000         0.004278866460
   23          3.564152000000         0.013352352985
   24          1.240443000000        -0.017153810627
   25          0.447316000000        -0.006280358988
   26          0.164206000000         0.012665823810
   27          0.057472000000         0.000672660652
   28       1149.270500000000        -0.000003174307
   29        172.044570000000        -0.000070398084
   30         39.080465000000        -0.000130480680
   31         11.036173000000        -0.004791277953
   32          3.564152000000        -0.000068117182
   33          1.240443000000         0.013003323208
   34          0.447316000000        -0.017085991959
   35          0.164206000000         0.006037639933
   36          0.057472000000         0.003656700578
   37       1149.270500000000         0.000002150970
   38        172.044570000000         0.000031052874
   39         39.080465000000         0.000170282563
   40         11.036173000000         0.003387037990
   41          3.564152000000        -0.006017988694
   42          1.240443000000         0.004487466168
   43          0.447316000000        -0.000322538690
   44          0.164206000000        -0.003220589462
   45          0.057472000000         0.002838279945
 S 45
    1       1149.270500000000         0.000008589444
    2        172.044570000000         0.000066577915
    3         39.080465000000         0.000343308361
    4         11.036173000000         0.001341395070
    5          3.564152000000         0.003922390430
    6          1.240443000000         0.007955367010
    7          0.447316000000         0.009947401052
    8          0.164206000000         0.004538721328
    9          0.057472000000         0.000123798536
   10       1149.270500000000         0.000349490278
   11        172.044570000000         0.002656415927
   12         39.080465000000         0.014873031041
   13         11.036173000000         0.067596333417
   14          3.564152000000         0.301480747019
   15          1.240443000000         0.399131136589
   16          0.447316000000        -0.376306944846
   17          0.164206000000        -0.360676739758
   18          0.057472000000        -0.007679433000
   19       1149.270500000000        -0.000383113759
   20        172.044570000000        -0.003829828754
   21         39.080465000000        -0.016977032565
   22         11.036173000000        -0.174862261812
   23          3.564152000000        -0.545663826024
   24          1.240443000000         0.701016064201
   25          0.447316000000         0.256656240122
   26          0.164206000000        -0.517607787001
   27          0.057472000000        -0.027489281131
   28       1149.270500000000         0.000234517376
   29        172.044570000000         0.005201001417
   30         39.080465000000         0.009639895858
   31         11.036173000000         0.353978998248
   32          3.564152000000         0.005032488613
   33          1.240443000000        -0.960683844330
   34          0.447316000000         1.262310885983
   35          0.164206000000        -0.446060060835
   36          0.057472000000        -0.270156567877
   37       1149.270500000000        -0.000144613304
   38        172.044570000000        -0.002087736215
   39         39.080465000000        -0.011448379021
   40         11.036173000000        -0.227716178997
   41          3.564152000000         0.404599356357
   42          1.240443000000        -0.301699789662
   43          0.447316000000         0.021684810822
   44          0.164206000000         0.216525568510
   45          0.057472000000        -0.190822265938
 S 45
    1       1149.270500000000        -0.000002303420
    2        172.044570000000        -0.000017854111
    3         39.080465000000        -0.000092064550
    4         11.036173000000        -0.000359720143
    5          3.564152000000        -0.001051862259
    6          1.240443000000        -0.002133380260
    7          0.447316000000        -0.002667581396
    8          0.164206000000        -0.001217142901
    9          0.057472000000        -0.000033198890
   10       1149.270500000000        -0.000371431962
   11        172.044570000000        -0.002823190924
   12         39.080465000000        -0.015806789074
   13         11.036173000000        -0.071840163686
   14          3.564152000000        -0.320408299078
   15          1.240443000000        -0.424189371454
   16          0.447316000000         0.399932232228
   17          0.164206000000         0.383320732238
   18          0.057472000000         0.008161562852
   19       1149.270500000000        -0.000139289375
   20        172.044570000000        -0.001392417898
   21         39.080465000000        -0.006172371018
   22         11.036173000000        -0.063574994790
   23          3.564152000000        -0.198388002862
   24          1.240443000000         0.254869702404
   25          0.447316000000         0.093312982227
   26          0.164206000000        -0.188187617049
   27          0.057472000000        -0.009994328602
   28       1149.270500000000         0.000294282730
   29        172.044570000000         0.006526445592
   30         39.080465000000         0.012096565793
   31         11.036173000000         0.444188433649
   32          3.564152000000         0.006314988306
   33          1.240443000000        -1.205508389361
   34          0.447316000000         1.584003282677
   35          0.164206000000        -0.559735805561
   36          0.057472000000        -0.339004357092
   37       1149.270500000000        -0.000268319014
   38        172.044570000000        -0.003873636161
   39         39.080465000000        -0.021241598739
   40         11.036173000000        -0.422510094373
   41          3.564152000000         0.750703410669
   42          1.240443000000        -0.559781071173
   43          0.447316000000         0.040234521356
   44          0.164206000000         0.401746765593
   45          0.057472000000        -0.354056237659
 S 45
    1       1149.270500000000         0.000000535372
    2        172.044570000000         0.000004149740
    3         39.080465000000         0.000021398094
    4         11.036173000000         0.000083607920
    5          3.564152000000         0.000244478986
    6          1.240443000000         0.000495850705
    7          0.447316000000         0.000620012354
    8          0.164206000000         0.000282894324
    9          0.057472000000         0.000007716249
   10       1149.270500000000        -0.000144932962
   11        172.044570000000        -0.001101610694
   12         39.080465000000        -0.006167818029
   13         11.036173000000        -0.028032072469
   14          3.564152000000        -0.125023499372
   15          1.240443000000        -0.165518932463
   16          0.447316000000         0.156053783028
   17          0.164206000000         0.149571966344
   18          0.057472000000         0.003184646437
   19       1149.270500000000        -0.000544802582
   20        172.044570000000        -0.005446164609
   21         39.080465000000        -0.024141996905
   22         11.036173000000        -0.248660899204
   23          3.564152000000        -0.775955064495
   24          1.240443000000         0.996871955528
   25          0.447316000000         0.364975099794
   26          0.164206000000        -0.736058291920
   27          0.057472000000        -0.039090820933
   28       1149.270500000000        -0.000159506103
   29        172.044570000000        -0.003537441353
   30         39.080465000000        -0.006556538541
   31         11.036173000000        -0.240757470735
   32          3.564152000000        -0.003422828010
   33          1.240443000000         0.653405466658
   34          0.447316000000        -0.858555953023
   35          0.164206000000         0.303386055597
   36          0.057472000000         0.183745963197
   37       1149.270500000000         0.000432899149
   38        172.044570000000         0.006249627162
   39         39.080465000000         0.034270661188
   40         11.036173000000         0.681667160290
   41          3.564152000000        -1.211166002863
   42          1.240443000000         0.903136701946
   43          0.447316000000        -0.064913364872
   44          0.164206000000        -0.648168127826
   45          0.057472000000         0.571225429457
 S 45
    1       1149.270500000000        -0.000000490014
    2        172.044570000000        -0.000003798166
    3         39.080465000000        -0.000019585208
    4         11.036173000000        -0.000076524502
    5          3.564152000000        -0.000223766272
    6          1.240443000000        -0.000453841311
    7          0.447316000000        -0.000567483754
    8          0.164206000000        -0.000258926991
    9          0.057472000000        -0.000007062514
   10       1149.270500000000         0.000017732531
   11        172.044570000000         0.000134781941
   12         39.080465000000         0.000754631821
   13         11.036173000000         0.003429720818
   14          3.564152000000         0.015296610658
   15          1.240443000000         0.020251222203
   16          0.447316000000        -0.019093162267
   17          0.164206000000        -0.018300112747
   18          0.057472000000        -0.000389641122
   19       1149.270500000000         0.000185930514
   20        172.044570000000         0.001858669941
   21         39.080465000000         0.008239193487
   22         11.036173000000         0.084863123349
   23          3.564152000000         0.264818355288
   24          1.240443000000        -0.340212988838
   25          0.447316000000        -0.124558895316
   26          0.164206000000         0.251202363618
   27          0.057472000000         0.013340936067
   28       1149.270500000000         0.000236473763
   29        172.044570000000         0.005244389112
   30         39.080465000000         0.009720313614
   31         11.036173000000         0.356931955122
   32          3.564152000000         0.005074470544
   33          1.240443000000        -0.968698042845
   34          0.447316000000         1.272841311875
   35          0.164206000000        -0.449781174600
   36          0.057472000000        -0.272410262865
   37       1149.270500000000         0.000769357470
   38        172.044570000000         0.011106968794
   39         39.080465000000         0.060906539624
   40         11.036173000000         1.211473209723
   41          3.564152000000        -2.152509685768
   42          1.240443000000         1.605073535680
   43          0.447316000000        -0.115365396892
   44          0.164206000000        -1.151938024890
   45          0.057472000000         1.015193843584
 P 16
    1          4.550000000000         0.061920626634
    2          1.592500000000         0.263956838801
    3          0.557375000000         0.311559883966
    4          0.195081000000         0.192610563180
    5          4.550000000000        -0.129781228934
    6          1.592500000000        -0.355656584454
    7          0.557375000000        -0.137715095628
    8          0.195081000000         0.692138587428
    9          4.550000000000         0.151370399017
   10          1.592500000000         0.019347232830
   11          0.557375000000        -0.223775241862
   12          0.195081000000         0.159788179557
   13          4.550000000000        -0.092369136371
   14          1.592500000000         0.157596724532
   15          0.557375000000        -0.136387279660
   16          0.195081000000         0.060485821611
 P 16
    1          4.550000000000        -0.057145388972
    2          1.592500000000        -0.243600832951
    3          0.557375000000        -0.287532793592
    4          0.195081000000        -0.177756688703
    5          4.550000000000        -0.088917288551
    6          1.592500000000        -0.243671749795
    7          0.557375000000        -0.094353035461
    8          0.195081000000         0.474206377925
    9          4.550000000000         0.458042685846
   10          1.592500000000         0.058544197191
   11          0.557375000000        -0.677137759256
   12          0.195081000000         0.483514659446
   13          4.550000000000        -0.385053792987
   14          1.592500000000         0.656964208259
   15          0.557375000000        -0.568549641274
   16          0.195081000000         0.252143691586
 P 16
    1          4.550000000000        -0.028922145453
    2          1.592500000000        -0.123290065043
    3          0.557375000000        -0.145524694618
    4          0.195081000000        -0.089965348010
    5          4.550000000000        -0.097055009416
    6          1.592500000000        -0.265972617432
    7          0.557375000000        -0.102988236532
    8          0.195081000000         0.517605802257
    9          4.550000000000        -0.481224354859
   10          1.592500000000        -0.061507135458
   11          0.557375000000         0.711407891486
   12          0.195081000000        -0.507985472198
   13          4.550000000000         0.773513186625
   14          1.592500000000        -1.319738923454
   15          0.557375000000         1.142127808596
   16          0.195081000000        -0.506517463061
 P 16
    1          4.550000000000         0.005586119241
    2          1.592500000000         0.023812652684
    3          0.557375000000         0.028107122895
    4          0.195081000000         0.017376206145
    5          4.550000000000         0.026473333617
    6          1.592500000000         0.072548360735
    7          0.557375000000         0.028091717890
    8          0.195081000000        -0.141185407818
    9          4.550000000000         0.516282804705
   10          1.592500000000         0.065988090759
   11          0.557375000000        -0.763235812563
   12          0.195081000000         0.544993539267
   13          4.550000000000         1.089687090144
   14          1.592500000000        -1.859182871236
   15          0.557375000000         1.608973123977
   16          0.195081000000        -0.713556730479
 D 9
    1          3.400000000000        -0.187288851188
    2          1.360000000000        -0.377567698953
    3          0.544000000000        -0.202494507618
    4          3.400000000000         0.594962436026
    5          1.360000000000        -0.115718664180
    6          0.544000000000        -0.436927442237
    7          3.400000000000        -0.483442404450
    8          1.360000000000         0.812585194329
    9          0.544000000000        -0.547417481125
 D 9
    1          3.400000000000        -0.195672118952
    2          1.360000000000        -0.394468070220
    3          0.544000000000        -0.211558398326
    4          3.400000000000        -0.318951024896
    5          1.360000000000         0.062035154330
    6          0.544000000000         0.234230679230
    7          3.400000000000         0.757661827218
    8          1.360000000000        -1.273501822427
    9          0.544000000000         0.857925008609
 D 9
    1          3.400000000000         0.073108182283
    2          1.360000000000         0.147383509398
    3          0.544000000000         0.079043708583
    4          3.400000000000         0.670513378332
    5          1.360000000000        -0.130413128219
    6          0.544000000000        -0.492410407180
    7          3.400000000000         0.789375963335
    8          1.360000000000        -1.326807939603
    9          0.544000000000         0.893835951359
 F 1
    1          1.813333000000         1.000000000000
 end
  // -----------------------------------------------
  // The basis set
  // -----------------------------------------------
  BAS[ATNO] = new BFNGauss[NSH];
  // Basis function   1 L = s
  InitBFNGauss(BAS[ATNO][  0]);
  BAS[ATNO][  0].l  = 0;
  BAS[ATNO][  0].ng = 45;
  BAS[ATNO][  0].a[  0] =      1149.270500000000;     BAS[ATNO][  0].d[  0] =         0.000357628716;
  BAS[ATNO][  0].a[  1] =       172.044570000000;     BAS[ATNO][  0].d[  1] =         0.002772027421;
  BAS[ATNO][  0].a[  2] =        39.080465000000;     BAS[ATNO][  0].d[  2] =         0.014293932120;
  BAS[ATNO][  0].a[  3] =        11.036173000000;     BAS[ATNO][  0].d[  3] =         0.055850110977;
  BAS[ATNO][  0].a[  4] =         3.564152000000;     BAS[ATNO][  0].d[  4] =         0.163312021777;
  BAS[ATNO][  0].a[  5] =         1.240443000000;     BAS[ATNO][  0].d[  5] =         0.331228390807;
  BAS[ATNO][  0].a[  6] =         0.447316000000;     BAS[ATNO][  0].d[  6] =         0.414168402150;
  BAS[ATNO][  0].a[  7] =         0.164206000000;     BAS[ATNO][  0].d[  7] =         0.188973476636;
  BAS[ATNO][  0].a[  8] =         0.057472000000;     BAS[ATNO][  0].d[  8] =         0.005154456075;
  BAS[ATNO][  0].a[  9] =      1149.270500000000;     BAS[ATNO][  0].d[  9] =        -0.000010545034;
  BAS[ATNO][  0].a[ 10] =       172.044570000000;     BAS[ATNO][  0].d[ 10] =        -0.000080151002;
  BAS[ATNO][  0].a[ 11] =        39.080465000000;     BAS[ATNO][  0].d[ 11] =        -0.000448758167;
  BAS[ATNO][  0].a[ 12] =        11.036173000000;     BAS[ATNO][  0].d[ 12] =        -0.002039557816;
  BAS[ATNO][  0].a[ 13] =         3.564152000000;     BAS[ATNO][  0].d[ 13] =        -0.009096461050;
  BAS[ATNO][  0].a[ 14] =         1.240443000000;     BAS[ATNO][  0].d[ 14] =        -0.012042828186;
  BAS[ATNO][  0].a[ 15] =         0.447316000000;     BAS[ATNO][  0].d[ 15] =         0.011354162746;
  BAS[ATNO][  0].a[ 16] =         0.164206000000;     BAS[ATNO][  0].d[ 16] =         0.010882558662;
  BAS[ATNO][  0].a[ 17] =         0.057472000000;     BAS[ATNO][  0].d[ 17] =         0.000231708538;
  BAS[ATNO][  0].a[ 18] =      1149.270500000000;     BAS[ATNO][  0].d[ 18] =         0.000009374765;
  BAS[ATNO][  0].a[ 19] =       172.044570000000;     BAS[ATNO][  0].d[ 19] =         0.000093715623;
  BAS[ATNO][  0].a[ 20] =        39.080465000000;     BAS[ATNO][  0].d[ 20] =         0.000415426716;
  BAS[ATNO][  0].a[ 21] =        11.036173000000;     BAS[ATNO][  0].d[ 21] =         0.004278866460;
  BAS[ATNO][  0].a[ 22] =         3.564152000000;     BAS[ATNO][  0].d[ 22] =         0.013352352985;
  BAS[ATNO][  0].a[ 23] =         1.240443000000;     BAS[ATNO][  0].d[ 23] =        -0.017153810627;
  BAS[ATNO][  0].a[ 24] =         0.447316000000;     BAS[ATNO][  0].d[ 24] =        -0.006280358988;
  BAS[ATNO][  0].a[ 25] =         0.164206000000;     BAS[ATNO][  0].d[ 25] =         0.012665823810;
  BAS[ATNO][  0].a[ 26] =         0.057472000000;     BAS[ATNO][  0].d[ 26] =         0.000672660652;
  BAS[ATNO][  0].a[ 27] =      1149.270500000000;     BAS[ATNO][  0].d[ 27] =        -0.000003174307;
  BAS[ATNO][  0].a[ 28] =       172.044570000000;     BAS[ATNO][  0].d[ 28] =        -0.000070398084;
  BAS[ATNO][  0].a[ 29] =        39.080465000000;     BAS[ATNO][  0].d[ 29] =        -0.000130480680;
  BAS[ATNO][  0].a[ 30] =        11.036173000000;     BAS[ATNO][  0].d[ 30] =        -0.004791277953;
  BAS[ATNO][  0].a[ 31] =         3.564152000000;     BAS[ATNO][  0].d[ 31] =        -0.000068117182;
  BAS[ATNO][  0].a[ 32] =         1.240443000000;     BAS[ATNO][  0].d[ 32] =         0.013003323208;
  BAS[ATNO][  0].a[ 33] =         0.447316000000;     BAS[ATNO][  0].d[ 33] =        -0.017085991959;
  BAS[ATNO][  0].a[ 34] =         0.164206000000;     BAS[ATNO][  0].d[ 34] =         0.006037639933;
  BAS[ATNO][  0].a[ 35] =         0.057472000000;     BAS[ATNO][  0].d[ 35] =         0.003656700578;
  BAS[ATNO][  0].a[ 36] =      1149.270500000000;     BAS[ATNO][  0].d[ 36] =         0.000002150970;
  BAS[ATNO][  0].a[ 37] =       172.044570000000;     BAS[ATNO][  0].d[ 37] =         0.000031052874;
  BAS[ATNO][  0].a[ 38] =        39.080465000000;     BAS[ATNO][  0].d[ 38] =         0.000170282563;
  BAS[ATNO][  0].a[ 39] =        11.036173000000;     BAS[ATNO][  0].d[ 39] =         0.003387037990;
  BAS[ATNO][  0].a[ 40] =         3.564152000000;     BAS[ATNO][  0].d[ 40] =        -0.006017988694;
  BAS[ATNO][  0].a[ 41] =         1.240443000000;     BAS[ATNO][  0].d[ 41] =         0.004487466168;
  BAS[ATNO][  0].a[ 42] =         0.447316000000;     BAS[ATNO][  0].d[ 42] =        -0.000322538690;
  BAS[ATNO][  0].a[ 43] =         0.164206000000;     BAS[ATNO][  0].d[ 43] =        -0.003220589462;
  BAS[ATNO][  0].a[ 44] =         0.057472000000;     BAS[ATNO][  0].d[ 44] =         0.002838279945;

  // Basis function   2 L = s
  InitBFNGauss(BAS[ATNO][  1]);
  BAS[ATNO][  1].l  = 0;
  BAS[ATNO][  1].ng = 45;
  BAS[ATNO][  1].a[  0] =      1149.270500000000;     BAS[ATNO][  1].d[  0] =         0.000008589444;
  BAS[ATNO][  1].a[  1] =       172.044570000000;     BAS[ATNO][  1].d[  1] =         0.000066577915;
  BAS[ATNO][  1].a[  2] =        39.080465000000;     BAS[ATNO][  1].d[  2] =         0.000343308361;
  BAS[ATNO][  1].a[  3] =        11.036173000000;     BAS[ATNO][  1].d[  3] =         0.001341395070;
  BAS[ATNO][  1].a[  4] =         3.564152000000;     BAS[ATNO][  1].d[  4] =         0.003922390430;
  BAS[ATNO][  1].a[  5] =         1.240443000000;     BAS[ATNO][  1].d[  5] =         0.007955367010;
  BAS[ATNO][  1].a[  6] =         0.447316000000;     BAS[ATNO][  1].d[  6] =         0.009947401052;
  BAS[ATNO][  1].a[  7] =         0.164206000000;     BAS[ATNO][  1].d[  7] =         0.004538721328;
  BAS[ATNO][  1].a[  8] =         0.057472000000;     BAS[ATNO][  1].d[  8] =         0.000123798536;
  BAS[ATNO][  1].a[  9] =      1149.270500000000;     BAS[ATNO][  1].d[  9] =         0.000349490278;
  BAS[ATNO][  1].a[ 10] =       172.044570000000;     BAS[ATNO][  1].d[ 10] =         0.002656415927;
  BAS[ATNO][  1].a[ 11] =        39.080465000000;     BAS[ATNO][  1].d[ 11] =         0.014873031041;
  BAS[ATNO][  1].a[ 12] =        11.036173000000;     BAS[ATNO][  1].d[ 12] =         0.067596333417;
  BAS[ATNO][  1].a[ 13] =         3.564152000000;     BAS[ATNO][  1].d[ 13] =         0.301480747019;
  BAS[ATNO][  1].a[ 14] =         1.240443000000;     BAS[ATNO][  1].d[ 14] =         0.399131136589;
  BAS[ATNO][  1].a[ 15] =         0.447316000000;     BAS[ATNO][  1].d[ 15] =        -0.376306944846;
  BAS[ATNO][  1].a[ 16] =         0.164206000000;     BAS[ATNO][  1].d[ 16] =        -0.360676739758;
  BAS[ATNO][  1].a[ 17] =         0.057472000000;     BAS[ATNO][  1].d[ 17] =        -0.007679433000;
  BAS[ATNO][  1].a[ 18] =      1149.270500000000;     BAS[ATNO][  1].d[ 18] =        -0.000383113759;
  BAS[ATNO][  1].a[ 19] =       172.044570000000;     BAS[ATNO][  1].d[ 19] =        -0.003829828754;
  BAS[ATNO][  1].a[ 20] =        39.080465000000;     BAS[ATNO][  1].d[ 20] =        -0.016977032565;
  BAS[ATNO][  1].a[ 21] =        11.036173000000;     BAS[ATNO][  1].d[ 21] =        -0.174862261812;
  BAS[ATNO][  1].a[ 22] =         3.564152000000;     BAS[ATNO][  1].d[ 22] =        -0.545663826024;
  BAS[ATNO][  1].a[ 23] =         1.240443000000;     BAS[ATNO][  1].d[ 23] =         0.701016064201;
  BAS[ATNO][  1].a[ 24] =         0.447316000000;     BAS[ATNO][  1].d[ 24] =         0.256656240122;
  BAS[ATNO][  1].a[ 25] =         0.164206000000;     BAS[ATNO][  1].d[ 25] =        -0.517607787001;
  BAS[ATNO][  1].a[ 26] =         0.057472000000;     BAS[ATNO][  1].d[ 26] =        -0.027489281131;
  BAS[ATNO][  1].a[ 27] =      1149.270500000000;     BAS[ATNO][  1].d[ 27] =         0.000234517376;
  BAS[ATNO][  1].a[ 28] =       172.044570000000;     BAS[ATNO][  1].d[ 28] =         0.005201001417;
  BAS[ATNO][  1].a[ 29] =        39.080465000000;     BAS[ATNO][  1].d[ 29] =         0.009639895858;
  BAS[ATNO][  1].a[ 30] =        11.036173000000;     BAS[ATNO][  1].d[ 30] =         0.353978998248;
  BAS[ATNO][  1].a[ 31] =         3.564152000000;     BAS[ATNO][  1].d[ 31] =         0.005032488613;
  BAS[ATNO][  1].a[ 32] =         1.240443000000;     BAS[ATNO][  1].d[ 32] =        -0.960683844330;
  BAS[ATNO][  1].a[ 33] =         0.447316000000;     BAS[ATNO][  1].d[ 33] =         1.262310885983;
  BAS[ATNO][  1].a[ 34] =         0.164206000000;     BAS[ATNO][  1].d[ 34] =        -0.446060060835;
  BAS[ATNO][  1].a[ 35] =         0.057472000000;     BAS[ATNO][  1].d[ 35] =        -0.270156567877;
  BAS[ATNO][  1].a[ 36] =      1149.270500000000;     BAS[ATNO][  1].d[ 36] =        -0.000144613304;
  BAS[ATNO][  1].a[ 37] =       172.044570000000;     BAS[ATNO][  1].d[ 37] =        -0.002087736215;
  BAS[ATNO][  1].a[ 38] =        39.080465000000;     BAS[ATNO][  1].d[ 38] =        -0.011448379021;
  BAS[ATNO][  1].a[ 39] =        11.036173000000;     BAS[ATNO][  1].d[ 39] =        -0.227716178997;
  BAS[ATNO][  1].a[ 40] =         3.564152000000;     BAS[ATNO][  1].d[ 40] =         0.404599356357;
  BAS[ATNO][  1].a[ 41] =         1.240443000000;     BAS[ATNO][  1].d[ 41] =        -0.301699789662;
  BAS[ATNO][  1].a[ 42] =         0.447316000000;     BAS[ATNO][  1].d[ 42] =         0.021684810822;
  BAS[ATNO][  1].a[ 43] =         0.164206000000;     BAS[ATNO][  1].d[ 43] =         0.216525568510;
  BAS[ATNO][  1].a[ 44] =         0.057472000000;     BAS[ATNO][  1].d[ 44] =        -0.190822265938;

  // Basis function   3 L = s
  InitBFNGauss(BAS[ATNO][  2]);
  BAS[ATNO][  2].l  = 0;
  BAS[ATNO][  2].ng = 45;
  BAS[ATNO][  2].a[  0] =      1149.270500000000;     BAS[ATNO][  2].d[  0] =        -0.000002303420;
  BAS[ATNO][  2].a[  1] =       172.044570000000;     BAS[ATNO][  2].d[  1] =        -0.000017854111;
  BAS[ATNO][  2].a[  2] =        39.080465000000;     BAS[ATNO][  2].d[  2] =        -0.000092064550;
  BAS[ATNO][  2].a[  3] =        11.036173000000;     BAS[ATNO][  2].d[  3] =        -0.000359720143;
  BAS[ATNO][  2].a[  4] =         3.564152000000;     BAS[ATNO][  2].d[  4] =        -0.001051862259;
  BAS[ATNO][  2].a[  5] =         1.240443000000;     BAS[ATNO][  2].d[  5] =        -0.002133380260;
  BAS[ATNO][  2].a[  6] =         0.447316000000;     BAS[ATNO][  2].d[  6] =        -0.002667581396;
  BAS[ATNO][  2].a[  7] =         0.164206000000;     BAS[ATNO][  2].d[  7] =        -0.001217142901;
  BAS[ATNO][  2].a[  8] =         0.057472000000;     BAS[ATNO][  2].d[  8] =        -0.000033198890;
  BAS[ATNO][  2].a[  9] =      1149.270500000000;     BAS[ATNO][  2].d[  9] =        -0.000371431962;
  BAS[ATNO][  2].a[ 10] =       172.044570000000;     BAS[ATNO][  2].d[ 10] =        -0.002823190924;
  BAS[ATNO][  2].a[ 11] =        39.080465000000;     BAS[ATNO][  2].d[ 11] =        -0.015806789074;
  BAS[ATNO][  2].a[ 12] =        11.036173000000;     BAS[ATNO][  2].d[ 12] =        -0.071840163686;
  BAS[ATNO][  2].a[ 13] =         3.564152000000;     BAS[ATNO][  2].d[ 13] =        -0.320408299078;
  BAS[ATNO][  2].a[ 14] =         1.240443000000;     BAS[ATNO][  2].d[ 14] =        -0.424189371454;
  BAS[ATNO][  2].a[ 15] =         0.447316000000;     BAS[ATNO][  2].d[ 15] =         0.399932232228;
  BAS[ATNO][  2].a[ 16] =         0.164206000000;     BAS[ATNO][  2].d[ 16] =         0.383320732238;
  BAS[ATNO][  2].a[ 17] =         0.057472000000;     BAS[ATNO][  2].d[ 17] =         0.008161562852;
  BAS[ATNO][  2].a[ 18] =      1149.270500000000;     BAS[ATNO][  2].d[ 18] =        -0.000139289375;
  BAS[ATNO][  2].a[ 19] =       172.044570000000;     BAS[ATNO][  2].d[ 19] =        -0.001392417898;
  BAS[ATNO][  2].a[ 20] =        39.080465000000;     BAS[ATNO][  2].d[ 20] =        -0.006172371018;
  BAS[ATNO][  2].a[ 21] =        11.036173000000;     BAS[ATNO][  2].d[ 21] =        -0.063574994790;
  BAS[ATNO][  2].a[ 22] =         3.564152000000;     BAS[ATNO][  2].d[ 22] =        -0.198388002862;
  BAS[ATNO][  2].a[ 23] =         1.240443000000;     BAS[ATNO][  2].d[ 23] =         0.254869702404;
  BAS[ATNO][  2].a[ 24] =         0.447316000000;     BAS[ATNO][  2].d[ 24] =         0.093312982227;
  BAS[ATNO][  2].a[ 25] =         0.164206000000;     BAS[ATNO][  2].d[ 25] =        -0.188187617049;
  BAS[ATNO][  2].a[ 26] =         0.057472000000;     BAS[ATNO][  2].d[ 26] =        -0.009994328602;
  BAS[ATNO][  2].a[ 27] =      1149.270500000000;     BAS[ATNO][  2].d[ 27] =         0.000294282730;
  BAS[ATNO][  2].a[ 28] =       172.044570000000;     BAS[ATNO][  2].d[ 28] =         0.006526445592;
  BAS[ATNO][  2].a[ 29] =        39.080465000000;     BAS[ATNO][  2].d[ 29] =         0.012096565793;
  BAS[ATNO][  2].a[ 30] =        11.036173000000;     BAS[ATNO][  2].d[ 30] =         0.444188433649;
  BAS[ATNO][  2].a[ 31] =         3.564152000000;     BAS[ATNO][  2].d[ 31] =         0.006314988306;
  BAS[ATNO][  2].a[ 32] =         1.240443000000;     BAS[ATNO][  2].d[ 32] =        -1.205508389361;
  BAS[ATNO][  2].a[ 33] =         0.447316000000;     BAS[ATNO][  2].d[ 33] =         1.584003282677;
  BAS[ATNO][  2].a[ 34] =         0.164206000000;     BAS[ATNO][  2].d[ 34] =        -0.559735805561;
  BAS[ATNO][  2].a[ 35] =         0.057472000000;     BAS[ATNO][  2].d[ 35] =        -0.339004357092;
  BAS[ATNO][  2].a[ 36] =      1149.270500000000;     BAS[ATNO][  2].d[ 36] =        -0.000268319014;
  BAS[ATNO][  2].a[ 37] =       172.044570000000;     BAS[ATNO][  2].d[ 37] =        -0.003873636161;
  BAS[ATNO][  2].a[ 38] =        39.080465000000;     BAS[ATNO][  2].d[ 38] =        -0.021241598739;
  BAS[ATNO][  2].a[ 39] =        11.036173000000;     BAS[ATNO][  2].d[ 39] =        -0.422510094373;
  BAS[ATNO][  2].a[ 40] =         3.564152000000;     BAS[ATNO][  2].d[ 40] =         0.750703410669;
  BAS[ATNO][  2].a[ 41] =         1.240443000000;     BAS[ATNO][  2].d[ 41] =        -0.559781071173;
  BAS[ATNO][  2].a[ 42] =         0.447316000000;     BAS[ATNO][  2].d[ 42] =         0.040234521356;
  BAS[ATNO][  2].a[ 43] =         0.164206000000;     BAS[ATNO][  2].d[ 43] =         0.401746765593;
  BAS[ATNO][  2].a[ 44] =         0.057472000000;     BAS[ATNO][  2].d[ 44] =        -0.354056237659;

  // Basis function   4 L = s
  InitBFNGauss(BAS[ATNO][  3]);
  BAS[ATNO][  3].l  = 0;
  BAS[ATNO][  3].ng = 45;
  BAS[ATNO][  3].a[  0] =      1149.270500000000;     BAS[ATNO][  3].d[  0] =        -0.000000535372;
  BAS[ATNO][  3].a[  1] =       172.044570000000;     BAS[ATNO][  3].d[  1] =        -0.000004149740;
  BAS[ATNO][  3].a[  2] =        39.080465000000;     BAS[ATNO][  3].d[  2] =        -0.000021398094;
  BAS[ATNO][  3].a[  3] =        11.036173000000;     BAS[ATNO][  3].d[  3] =        -0.000083607920;
  BAS[ATNO][  3].a[  4] =         3.564152000000;     BAS[ATNO][  3].d[  4] =        -0.000244478986;
  BAS[ATNO][  3].a[  5] =         1.240443000000;     BAS[ATNO][  3].d[  5] =        -0.000495850705;
  BAS[ATNO][  3].a[  6] =         0.447316000000;     BAS[ATNO][  3].d[  6] =        -0.000620012354;
  BAS[ATNO][  3].a[  7] =         0.164206000000;     BAS[ATNO][  3].d[  7] =        -0.000282894324;
  BAS[ATNO][  3].a[  8] =         0.057472000000;     BAS[ATNO][  3].d[  8] =        -0.000007716249;
  BAS[ATNO][  3].a[  9] =      1149.270500000000;     BAS[ATNO][  3].d[  9] =         0.000144932962;
  BAS[ATNO][  3].a[ 10] =       172.044570000000;     BAS[ATNO][  3].d[ 10] =         0.001101610694;
  BAS[ATNO][  3].a[ 11] =        39.080465000000;     BAS[ATNO][  3].d[ 11] =         0.006167818029;
  BAS[ATNO][  3].a[ 12] =        11.036173000000;     BAS[ATNO][  3].d[ 12] =         0.028032072469;
  BAS[ATNO][  3].a[ 13] =         3.564152000000;     BAS[ATNO][  3].d[ 13] =         0.125023499372;
  BAS[ATNO][  3].a[ 14] =         1.240443000000;     BAS[ATNO][  3].d[ 14] =         0.165518932463;
  BAS[ATNO][  3].a[ 15] =         0.447316000000;     BAS[ATNO][  3].d[ 15] =        -0.156053783028;
  BAS[ATNO][  3].a[ 16] =         0.164206000000;     BAS[ATNO][  3].d[ 16] =        -0.149571966344;
  BAS[ATNO][  3].a[ 17] =         0.057472000000;     BAS[ATNO][  3].d[ 17] =        -0.003184646437;
  BAS[ATNO][  3].a[ 18] =      1149.270500000000;     BAS[ATNO][  3].d[ 18] =         0.000544802582;
  BAS[ATNO][  3].a[ 19] =       172.044570000000;     BAS[ATNO][  3].d[ 19] =         0.005446164609;
  BAS[ATNO][  3].a[ 20] =        39.080465000000;     BAS[ATNO][  3].d[ 20] =         0.024141996905;
  BAS[ATNO][  3].a[ 21] =        11.036173000000;     BAS[ATNO][  3].d[ 21] =         0.248660899204;
  BAS[ATNO][  3].a[ 22] =         3.564152000000;     BAS[ATNO][  3].d[ 22] =         0.775955064495;
  BAS[ATNO][  3].a[ 23] =         1.240443000000;     BAS[ATNO][  3].d[ 23] =        -0.996871955528;
  BAS[ATNO][  3].a[ 24] =         0.447316000000;     BAS[ATNO][  3].d[ 24] =        -0.364975099794;
  BAS[ATNO][  3].a[ 25] =         0.164206000000;     BAS[ATNO][  3].d[ 25] =         0.736058291920;
  BAS[ATNO][  3].a[ 26] =         0.057472000000;     BAS[ATNO][  3].d[ 26] =         0.039090820933;
  BAS[ATNO][  3].a[ 27] =      1149.270500000000;     BAS[ATNO][  3].d[ 27] =         0.000159506103;
  BAS[ATNO][  3].a[ 28] =       172.044570000000;     BAS[ATNO][  3].d[ 28] =         0.003537441353;
  BAS[ATNO][  3].a[ 29] =        39.080465000000;     BAS[ATNO][  3].d[ 29] =         0.006556538541;
  BAS[ATNO][  3].a[ 30] =        11.036173000000;     BAS[ATNO][  3].d[ 30] =         0.240757470735;
  BAS[ATNO][  3].a[ 31] =         3.564152000000;     BAS[ATNO][  3].d[ 31] =         0.003422828010;
  BAS[ATNO][  3].a[ 32] =         1.240443000000;     BAS[ATNO][  3].d[ 32] =        -0.653405466658;
  BAS[ATNO][  3].a[ 33] =         0.447316000000;     BAS[ATNO][  3].d[ 33] =         0.858555953023;
  BAS[ATNO][  3].a[ 34] =         0.164206000000;     BAS[ATNO][  3].d[ 34] =        -0.303386055597;
  BAS[ATNO][  3].a[ 35] =         0.057472000000;     BAS[ATNO][  3].d[ 35] =        -0.183745963197;
  BAS[ATNO][  3].a[ 36] =      1149.270500000000;     BAS[ATNO][  3].d[ 36] =        -0.000432899149;
  BAS[ATNO][  3].a[ 37] =       172.044570000000;     BAS[ATNO][  3].d[ 37] =        -0.006249627162;
  BAS[ATNO][  3].a[ 38] =        39.080465000000;     BAS[ATNO][  3].d[ 38] =        -0.034270661188;
  BAS[ATNO][  3].a[ 39] =        11.036173000000;     BAS[ATNO][  3].d[ 39] =        -0.681667160290;
  BAS[ATNO][  3].a[ 40] =         3.564152000000;     BAS[ATNO][  3].d[ 40] =         1.211166002863;
  BAS[ATNO][  3].a[ 41] =         1.240443000000;     BAS[ATNO][  3].d[ 41] =        -0.903136701946;
  BAS[ATNO][  3].a[ 42] =         0.447316000000;     BAS[ATNO][  3].d[ 42] =         0.064913364872;
  BAS[ATNO][  3].a[ 43] =         0.164206000000;     BAS[ATNO][  3].d[ 43] =         0.648168127826;
  BAS[ATNO][  3].a[ 44] =         0.057472000000;     BAS[ATNO][  3].d[ 44] =        -0.571225429457;

  // Basis function   5 L = s
  InitBFNGauss(BAS[ATNO][  4]);
  BAS[ATNO][  4].l  = 0;
  BAS[ATNO][  4].ng = 45;
  BAS[ATNO][  4].a[  0] =      1149.270500000000;     BAS[ATNO][  4].d[  0] =         0.000000490014;
  BAS[ATNO][  4].a[  1] =       172.044570000000;     BAS[ATNO][  4].d[  1] =         0.000003798166;
  BAS[ATNO][  4].a[  2] =        39.080465000000;     BAS[ATNO][  4].d[  2] =         0.000019585208;
  BAS[ATNO][  4].a[  3] =        11.036173000000;     BAS[ATNO][  4].d[  3] =         0.000076524502;
  BAS[ATNO][  4].a[  4] =         3.564152000000;     BAS[ATNO][  4].d[  4] =         0.000223766272;
  BAS[ATNO][  4].a[  5] =         1.240443000000;     BAS[ATNO][  4].d[  5] =         0.000453841311;
  BAS[ATNO][  4].a[  6] =         0.447316000000;     BAS[ATNO][  4].d[  6] =         0.000567483754;
  BAS[ATNO][  4].a[  7] =         0.164206000000;     BAS[ATNO][  4].d[  7] =         0.000258926991;
  BAS[ATNO][  4].a[  8] =         0.057472000000;     BAS[ATNO][  4].d[  8] =         0.000007062514;
  BAS[ATNO][  4].a[  9] =      1149.270500000000;     BAS[ATNO][  4].d[  9] =        -0.000017732531;
  BAS[ATNO][  4].a[ 10] =       172.044570000000;     BAS[ATNO][  4].d[ 10] =        -0.000134781941;
  BAS[ATNO][  4].a[ 11] =        39.080465000000;     BAS[ATNO][  4].d[ 11] =        -0.000754631821;
  BAS[ATNO][  4].a[ 12] =        11.036173000000;     BAS[ATNO][  4].d[ 12] =        -0.003429720818;
  BAS[ATNO][  4].a[ 13] =         3.564152000000;     BAS[ATNO][  4].d[ 13] =        -0.015296610658;
  BAS[ATNO][  4].a[ 14] =         1.240443000000;     BAS[ATNO][  4].d[ 14] =        -0.020251222203;
  BAS[ATNO][  4].a[ 15] =         0.447316000000;     BAS[ATNO][  4].d[ 15] =         0.019093162267;
  BAS[ATNO][  4].a[ 16] =         0.164206000000;     BAS[ATNO][  4].d[ 16] =         0.018300112747;
  BAS[ATNO][  4].a[ 17] =         0.057472000000;     BAS[ATNO][  4].d[ 17] =         0.000389641122;
  BAS[ATNO][  4].a[ 18] =      1149.270500000000;     BAS[ATNO][  4].d[ 18] =        -0.000185930514;
  BAS[ATNO][  4].a[ 19] =       172.044570000000;     BAS[ATNO][  4].d[ 19] =        -0.001858669941;
  BAS[ATNO][  4].a[ 20] =        39.080465000000;     BAS[ATNO][  4].d[ 20] =        -0.008239193487;
  BAS[ATNO][  4].a[ 21] =        11.036173000000;     BAS[ATNO][  4].d[ 21] =        -0.084863123349;
  BAS[ATNO][  4].a[ 22] =         3.564152000000;     BAS[ATNO][  4].d[ 22] =        -0.264818355288;
  BAS[ATNO][  4].a[ 23] =         1.240443000000;     BAS[ATNO][  4].d[ 23] =         0.340212988838;
  BAS[ATNO][  4].a[ 24] =         0.447316000000;     BAS[ATNO][  4].d[ 24] =         0.124558895316;
  BAS[ATNO][  4].a[ 25] =         0.164206000000;     BAS[ATNO][  4].d[ 25] =        -0.251202363618;
  BAS[ATNO][  4].a[ 26] =         0.057472000000;     BAS[ATNO][  4].d[ 26] =        -0.013340936067;
  BAS[ATNO][  4].a[ 27] =      1149.270500000000;     BAS[ATNO][  4].d[ 27] =        -0.000236473763;
  BAS[ATNO][  4].a[ 28] =       172.044570000000;     BAS[ATNO][  4].d[ 28] =        -0.005244389112;
  BAS[ATNO][  4].a[ 29] =        39.080465000000;     BAS[ATNO][  4].d[ 29] =        -0.009720313614;
  BAS[ATNO][  4].a[ 30] =        11.036173000000;     BAS[ATNO][  4].d[ 30] =        -0.356931955122;
  BAS[ATNO][  4].a[ 31] =         3.564152000000;     BAS[ATNO][  4].d[ 31] =        -0.005074470544;
  BAS[ATNO][  4].a[ 32] =         1.240443000000;     BAS[ATNO][  4].d[ 32] =         0.968698042845;
  BAS[ATNO][  4].a[ 33] =         0.447316000000;     BAS[ATNO][  4].d[ 33] =        -1.272841311875;
  BAS[ATNO][  4].a[ 34] =         0.164206000000;     BAS[ATNO][  4].d[ 34] =         0.449781174600;
  BAS[ATNO][  4].a[ 35] =         0.057472000000;     BAS[ATNO][  4].d[ 35] =         0.272410262865;
  BAS[ATNO][  4].a[ 36] =      1149.270500000000;     BAS[ATNO][  4].d[ 36] =        -0.000769357470;
  BAS[ATNO][  4].a[ 37] =       172.044570000000;     BAS[ATNO][  4].d[ 37] =        -0.011106968794;
  BAS[ATNO][  4].a[ 38] =        39.080465000000;     BAS[ATNO][  4].d[ 38] =        -0.060906539624;
  BAS[ATNO][  4].a[ 39] =        11.036173000000;     BAS[ATNO][  4].d[ 39] =        -1.211473209723;
  BAS[ATNO][  4].a[ 40] =         3.564152000000;     BAS[ATNO][  4].d[ 40] =         2.152509685768;
  BAS[ATNO][  4].a[ 41] =         1.240443000000;     BAS[ATNO][  4].d[ 41] =        -1.605073535680;
  BAS[ATNO][  4].a[ 42] =         0.447316000000;     BAS[ATNO][  4].d[ 42] =         0.115365396892;
  BAS[ATNO][  4].a[ 43] =         0.164206000000;     BAS[ATNO][  4].d[ 43] =         1.151938024890;
  BAS[ATNO][  4].a[ 44] =         0.057472000000;     BAS[ATNO][  4].d[ 44] =        -1.015193843584;

  // Basis function   6 L = p
  InitBFNGauss(BAS[ATNO][  5]);
  BAS[ATNO][  5].l  = 1;
  BAS[ATNO][  5].ng = 16;
  BAS[ATNO][  5].a[  0] =         4.550000000000;     BAS[ATNO][  5].d[  0] =         0.061920626634;
  BAS[ATNO][  5].a[  1] =         1.592500000000;     BAS[ATNO][  5].d[  1] =         0.263956838801;
  BAS[ATNO][  5].a[  2] =         0.557375000000;     BAS[ATNO][  5].d[  2] =         0.311559883966;
  BAS[ATNO][  5].a[  3] =         0.195081000000;     BAS[ATNO][  5].d[  3] =         0.192610563180;
  BAS[ATNO][  5].a[  4] =         4.550000000000;     BAS[ATNO][  5].d[  4] =        -0.129781228934;
  BAS[ATNO][  5].a[  5] =         1.592500000000;     BAS[ATNO][  5].d[  5] =        -0.355656584454;
  BAS[ATNO][  5].a[  6] =         0.557375000000;     BAS[ATNO][  5].d[  6] =        -0.137715095628;
  BAS[ATNO][  5].a[  7] =         0.195081000000;     BAS[ATNO][  5].d[  7] =         0.692138587428;
  BAS[ATNO][  5].a[  8] =         4.550000000000;     BAS[ATNO][  5].d[  8] =         0.151370399017;
  BAS[ATNO][  5].a[  9] =         1.592500000000;     BAS[ATNO][  5].d[  9] =         0.019347232830;
  BAS[ATNO][  5].a[ 10] =         0.557375000000;     BAS[ATNO][  5].d[ 10] =        -0.223775241862;
  BAS[ATNO][  5].a[ 11] =         0.195081000000;     BAS[ATNO][  5].d[ 11] =         0.159788179557;
  BAS[ATNO][  5].a[ 12] =         4.550000000000;     BAS[ATNO][  5].d[ 12] =        -0.092369136371;
  BAS[ATNO][  5].a[ 13] =         1.592500000000;     BAS[ATNO][  5].d[ 13] =         0.157596724532;
  BAS[ATNO][  5].a[ 14] =         0.557375000000;     BAS[ATNO][  5].d[ 14] =        -0.136387279660;
  BAS[ATNO][  5].a[ 15] =         0.195081000000;     BAS[ATNO][  5].d[ 15] =         0.060485821611;

  // Basis function   7 L = p
  InitBFNGauss(BAS[ATNO][  6]);
  BAS[ATNO][  6].l  = 1;
  BAS[ATNO][  6].ng = 16;
  BAS[ATNO][  6].a[  0] =         4.550000000000;     BAS[ATNO][  6].d[  0] =         0.057145388972;
  BAS[ATNO][  6].a[  1] =         1.592500000000;     BAS[ATNO][  6].d[  1] =         0.243600832951;
  BAS[ATNO][  6].a[  2] =         0.557375000000;     BAS[ATNO][  6].d[  2] =         0.287532793592;
  BAS[ATNO][  6].a[  3] =         0.195081000000;     BAS[ATNO][  6].d[  3] =         0.177756688703;
  BAS[ATNO][  6].a[  4] =         4.550000000000;     BAS[ATNO][  6].d[  4] =         0.088917288551;
  BAS[ATNO][  6].a[  5] =         1.592500000000;     BAS[ATNO][  6].d[  5] =         0.243671749795;
  BAS[ATNO][  6].a[  6] =         0.557375000000;     BAS[ATNO][  6].d[  6] =         0.094353035461;
  BAS[ATNO][  6].a[  7] =         0.195081000000;     BAS[ATNO][  6].d[  7] =        -0.474206377925;
  BAS[ATNO][  6].a[  8] =         4.550000000000;     BAS[ATNO][  6].d[  8] =        -0.458042685846;
  BAS[ATNO][  6].a[  9] =         1.592500000000;     BAS[ATNO][  6].d[  9] =        -0.058544197191;
  BAS[ATNO][  6].a[ 10] =         0.557375000000;     BAS[ATNO][  6].d[ 10] =         0.677137759256;
  BAS[ATNO][  6].a[ 11] =         0.195081000000;     BAS[ATNO][  6].d[ 11] =        -0.483514659446;
  BAS[ATNO][  6].a[ 12] =         4.550000000000;     BAS[ATNO][  6].d[ 12] =         0.385053792987;
  BAS[ATNO][  6].a[ 13] =         1.592500000000;     BAS[ATNO][  6].d[ 13] =        -0.656964208259;
  BAS[ATNO][  6].a[ 14] =         0.557375000000;     BAS[ATNO][  6].d[ 14] =         0.568549641274;
  BAS[ATNO][  6].a[ 15] =         0.195081000000;     BAS[ATNO][  6].d[ 15] =        -0.252143691586;

  // Basis function   8 L = p
  InitBFNGauss(BAS[ATNO][  7]);
  BAS[ATNO][  7].l  = 1;
  BAS[ATNO][  7].ng = 16;
  BAS[ATNO][  7].a[  0] =         4.550000000000;     BAS[ATNO][  7].d[  0] =         0.028922145453;
  BAS[ATNO][  7].a[  1] =         1.592500000000;     BAS[ATNO][  7].d[  1] =         0.123290065043;
  BAS[ATNO][  7].a[  2] =         0.557375000000;     BAS[ATNO][  7].d[  2] =         0.145524694618;
  BAS[ATNO][  7].a[  3] =         0.195081000000;     BAS[ATNO][  7].d[  3] =         0.089965348010;
  BAS[ATNO][  7].a[  4] =         4.550000000000;     BAS[ATNO][  7].d[  4] =         0.097055009416;
  BAS[ATNO][  7].a[  5] =         1.592500000000;     BAS[ATNO][  7].d[  5] =         0.265972617432;
  BAS[ATNO][  7].a[  6] =         0.557375000000;     BAS[ATNO][  7].d[  6] =         0.102988236532;
  BAS[ATNO][  7].a[  7] =         0.195081000000;     BAS[ATNO][  7].d[  7] =        -0.517605802257;
  BAS[ATNO][  7].a[  8] =         4.550000000000;     BAS[ATNO][  7].d[  8] =         0.481224354859;
  BAS[ATNO][  7].a[  9] =         1.592500000000;     BAS[ATNO][  7].d[  9] =         0.061507135458;
  BAS[ATNO][  7].a[ 10] =         0.557375000000;     BAS[ATNO][  7].d[ 10] =        -0.711407891486;
  BAS[ATNO][  7].a[ 11] =         0.195081000000;     BAS[ATNO][  7].d[ 11] =         0.507985472198;
  BAS[ATNO][  7].a[ 12] =         4.550000000000;     BAS[ATNO][  7].d[ 12] =        -0.773513186625;
  BAS[ATNO][  7].a[ 13] =         1.592500000000;     BAS[ATNO][  7].d[ 13] =         1.319738923454;
  BAS[ATNO][  7].a[ 14] =         0.557375000000;     BAS[ATNO][  7].d[ 14] =        -1.142127808596;
  BAS[ATNO][  7].a[ 15] =         0.195081000000;     BAS[ATNO][  7].d[ 15] =         0.506517463061;

  // Basis function   9 L = p
  InitBFNGauss(BAS[ATNO][  8]);
  BAS[ATNO][  8].l  = 1;
  BAS[ATNO][  8].ng = 16;
  BAS[ATNO][  8].a[  0] =         4.550000000000;     BAS[ATNO][  8].d[  0] =        -0.005586119241;
  BAS[ATNO][  8].a[  1] =         1.592500000000;     BAS[ATNO][  8].d[  1] =        -0.023812652684;
  BAS[ATNO][  8].a[  2] =         0.557375000000;     BAS[ATNO][  8].d[  2] =        -0.028107122895;
  BAS[ATNO][  8].a[  3] =         0.195081000000;     BAS[ATNO][  8].d[  3] =        -0.017376206145;
  BAS[ATNO][  8].a[  4] =         4.550000000000;     BAS[ATNO][  8].d[  4] =        -0.026473333617;
  BAS[ATNO][  8].a[  5] =         1.592500000000;     BAS[ATNO][  8].d[  5] =        -0.072548360735;
  BAS[ATNO][  8].a[  6] =         0.557375000000;     BAS[ATNO][  8].d[  6] =        -0.028091717890;
  BAS[ATNO][  8].a[  7] =         0.195081000000;     BAS[ATNO][  8].d[  7] =         0.141185407818;
  BAS[ATNO][  8].a[  8] =         4.550000000000;     BAS[ATNO][  8].d[  8] =        -0.516282804705;
  BAS[ATNO][  8].a[  9] =         1.592500000000;     BAS[ATNO][  8].d[  9] =        -0.065988090759;
  BAS[ATNO][  8].a[ 10] =         0.557375000000;     BAS[ATNO][  8].d[ 10] =         0.763235812563;
  BAS[ATNO][  8].a[ 11] =         0.195081000000;     BAS[ATNO][  8].d[ 11] =        -0.544993539267;
  BAS[ATNO][  8].a[ 12] =         4.550000000000;     BAS[ATNO][  8].d[ 12] =        -1.089687090144;
  BAS[ATNO][  8].a[ 13] =         1.592500000000;     BAS[ATNO][  8].d[ 13] =         1.859182871236;
  BAS[ATNO][  8].a[ 14] =         0.557375000000;     BAS[ATNO][  8].d[ 14] =        -1.608973123977;
  BAS[ATNO][  8].a[ 15] =         0.195081000000;     BAS[ATNO][  8].d[ 15] =         0.713556730479;

  // Basis function  10 L = d
  InitBFNGauss(BAS[ATNO][  9]);
  BAS[ATNO][  9].l  = 2;
  BAS[ATNO][  9].ng = 9;
  BAS[ATNO][  9].a[  0] =         3.400000000000;     BAS[ATNO][  9].d[  0] =        -0.187288851188;
  BAS[ATNO][  9].a[  1] =         1.360000000000;     BAS[ATNO][  9].d[  1] =        -0.377567698953;
  BAS[ATNO][  9].a[  2] =         0.544000000000;     BAS[ATNO][  9].d[  2] =        -0.202494507618;
  BAS[ATNO][  9].a[  3] =         3.400000000000;     BAS[ATNO][  9].d[  3] =         0.594962436026;
  BAS[ATNO][  9].a[  4] =         1.360000000000;     BAS[ATNO][  9].d[  4] =        -0.115718664180;
  BAS[ATNO][  9].a[  5] =         0.544000000000;     BAS[ATNO][  9].d[  5] =        -0.436927442237;
  BAS[ATNO][  9].a[  6] =         3.400000000000;     BAS[ATNO][  9].d[  6] =        -0.483442404450;
  BAS[ATNO][  9].a[  7] =         1.360000000000;     BAS[ATNO][  9].d[  7] =         0.812585194329;
  BAS[ATNO][  9].a[  8] =         0.544000000000;     BAS[ATNO][  9].d[  8] =        -0.547417481125;

  // Basis function  11 L = d
  InitBFNGauss(BAS[ATNO][ 10]);
  BAS[ATNO][ 10].l  = 2;
  BAS[ATNO][ 10].ng = 9;
  BAS[ATNO][ 10].a[  0] =         3.400000000000;     BAS[ATNO][ 10].d[  0] =         0.195672118952;
  BAS[ATNO][ 10].a[  1] =         1.360000000000;     BAS[ATNO][ 10].d[  1] =         0.394468070220;
  BAS[ATNO][ 10].a[  2] =         0.544000000000;     BAS[ATNO][ 10].d[  2] =         0.211558398326;
  BAS[ATNO][ 10].a[  3] =         3.400000000000;     BAS[ATNO][ 10].d[  3] =         0.318951024896;
  BAS[ATNO][ 10].a[  4] =         1.360000000000;     BAS[ATNO][ 10].d[  4] =        -0.062035154330;
  BAS[ATNO][ 10].a[  5] =         0.544000000000;     BAS[ATNO][ 10].d[  5] =        -0.234230679230;
  BAS[ATNO][ 10].a[  6] =         3.400000000000;     BAS[ATNO][ 10].d[  6] =        -0.757661827218;
  BAS[ATNO][ 10].a[  7] =         1.360000000000;     BAS[ATNO][ 10].d[  7] =         1.273501822427;
  BAS[ATNO][ 10].a[  8] =         0.544000000000;     BAS[ATNO][ 10].d[  8] =        -0.857925008609;

  // Basis function  12 L = d
  InitBFNGauss(BAS[ATNO][ 11]);
  BAS[ATNO][ 11].l  = 2;
  BAS[ATNO][ 11].ng = 9;
  BAS[ATNO][ 11].a[  0] =         3.400000000000;     BAS[ATNO][ 11].d[  0] =        -0.073108182283;
  BAS[ATNO][ 11].a[  1] =         1.360000000000;     BAS[ATNO][ 11].d[  1] =        -0.147383509398;
  BAS[ATNO][ 11].a[  2] =         0.544000000000;     BAS[ATNO][ 11].d[  2] =        -0.079043708583;
  BAS[ATNO][ 11].a[  3] =         3.400000000000;     BAS[ATNO][ 11].d[  3] =        -0.670513378332;
  BAS[ATNO][ 11].a[  4] =         1.360000000000;     BAS[ATNO][ 11].d[  4] =         0.130413128219;
  BAS[ATNO][ 11].a[  5] =         0.544000000000;     BAS[ATNO][ 11].d[  5] =         0.492410407180;
  BAS[ATNO][ 11].a[  6] =         3.400000000000;     BAS[ATNO][ 11].d[  6] =        -0.789375963335;
  BAS[ATNO][ 11].a[  7] =         1.360000000000;     BAS[ATNO][ 11].d[  7] =         1.326807939603;
  BAS[ATNO][ 11].a[  8] =         0.544000000000;     BAS[ATNO][ 11].d[  8] =        -0.893835951359;

  // Basis function  13 L = f
  InitBFNGauss(BAS[ATNO][ 12]);
  BAS[ATNO][ 12].l  = 3;
  BAS[ATNO][ 12].ng = 1;
  BAS[ATNO][ 12].a[  0] =         1.813333000000;     BAS[ATNO][ 12].d[  0] =         1.000000000000;

-------
TIMINGS
-------

Total SCF time: 0 days 0 hours 0 min 1 sec 

Total time                  ....       1.305 sec
Sum of individual times     ....       1.111 sec  ( 85.1%)

Fock matrix formation       ....       0.879 sec  ( 67.3%)
  XC integration            ....       0.014 sec  (  1.6% of F)
    Basis function eval.    ....       0.003 sec  ( 22.8% of XC)
    Density eval.           ....       0.001 sec  (  4.6% of XC)
    XC-Functional eval.     ....       0.001 sec  (  7.0% of XC)
    XC-Potential eval.      ....       0.001 sec  (  5.0% of XC)
Diagonalization             ....       0.000 sec  (  0.0%)
Density matrix formation    ....       0.001 sec  (  0.0%)
Population analysis         ....       0.001 sec  (  0.0%)
Initial guess               ....       0.092 sec  (  7.0%)
Orbital Transformation      ....       0.000 sec  (  0.0%)
Orbital Orthonormalization  ....       0.000 sec  (  0.0%)
DIIS solution               ....       0.000 sec  (  0.0%)
SOSCF solution              ....       0.001 sec  (  0.1%)
Grid generation             ....       0.139 sec  ( 10.6%)

-------------------------   --------------------
FINAL SINGLE POINT ENERGY        -2.839230443535
-------------------------   --------------------


                            ***************************************
                            *     ORCA property calculations      *
                            ***************************************

                                    ---------------------
                                    Active property flags
                                    ---------------------
   (+) Dipole Moment


------------------------------------------------------------------------------
                       ORCA ELECTRIC PROPERTIES CALCULATION
------------------------------------------------------------------------------

Dipole Moment Calculation                       ... on
Quadrupole Moment Calculation                   ... off
Polarizability Calculation                      ... off
GBWName                                         ... He_ano-rcc-qzp_34.25899725_.gbw
Electron density file                           ... He_ano-rcc-qzp_34.25899725_.scfp
The origin for moment calculation is the CENTER OF MASS  = ( 0.000000,  0.000000  0.000000)

-------------
DIPOLE MOMENT
-------------
                                X             Y             Z
Electronic contribution:      0.00000       0.00000      -0.00000
Nuclear contribution   :      0.00000       0.00000       0.00000
                        -----------------------------------------
Total Dipole Moment    :      0.00000       0.00000      -0.00000
                        -----------------------------------------
Magnitude (a.u.)       :      0.00000
Magnitude (Debye)      :      0.00000



--------------------
Rotational spectrum 
--------------------
 
Rotational constants in cm-1:     0.000000     0.000000     0.000000 
Rotational constants in MHz :     0.000000     0.000000     0.000000 

 Dipole components along the rotational axes: 
x,y,z [a.u.] :     0.000000     0.000000    -0.000000 
x,y,z [Debye]:     0.000000     0.000000    -0.000000 

 

Timings for individual modules:

Sum of individual times         ...        2.191 sec (=   0.037 min)
GTO integral calculation        ...        0.315 sec (=   0.005 min)  14.4 %
Relativistic integrals          ...        0.284 sec (=   0.005 min)  13.0 %
SCF iterations                  ...        1.592 sec (=   0.027 min)  72.7 %
                             ****ORCA TERMINATED NORMALLY****
TOTAL RUN TIME: 0 days 0 hours 0 minutes 2 seconds 517 msec
