
                                 *****************
                                 * O   R   C   A *
                                 *****************

           --- An Ab Initio, DFT and Semiempirical electronic structure package ---

                  #######################################################
                  #                        -***-                        #
                  #          Department of theory and spectroscopy      #
                  #               Directorship: Frank Neese             #
                  #        Max Planck Institute fuer Kohlenforschung    #
                  #                Kaiser Wilhelm Platz 1               #
                  #                 D-45470 Muelheim/Ruhr               #
                  #                      Germany                        #
                  #                                                     #
                  #                  All rights reserved                #
                  #                        -***-                        #
                  #######################################################


                         Program Version 4.2.1 -  RELEASE  -


 With contributions from (in alphabetic order):
   Daniel Aravena         : Magnetic Suceptibility
   Michael Atanasov       : Ab Initio Ligand Field Theory (pilot matlab implementation)
   Alexander A. Auer      : GIAO ZORA, VPT2
   Ute Becker             : Parallelization
   Giovanni Bistoni       : ED, misc. LED, open-shell LED, HFLD
   Martin Brehm           : Molecular dynamics
   Dmytro Bykov           : SCF Hessian
   Vijay G. Chilkuri      : MRCI spin determinant printing, contributions to CSF-ICE
   Dipayan Datta          : RHF DLPNO-CCSD density
   Achintya Kumar Dutta   : EOM-CC, STEOM-CC
   Dmitry Ganyushin       : Spin-Orbit,Spin-Spin,Magnetic field MRCI
   Miquel Garcia          : C-PCM Hessian, Gaussian charge scheme
   Yang Guo               : DLPNO-NEVPT2, CIM, IAO-localization
   Andreas Hansen         : Spin unrestricted coupled pair/coupled cluster methods
   Benjamin Helmich-Paris : CASSCF linear response (MC-RPA)
   Lee Huntington         : MR-EOM, pCC
   Robert Izsak           : Overlap fitted RIJCOSX, COSX-SCS-MP3, EOM
   Christian Kollmar      : KDIIS, OOCD, Brueckner-CCSD(T), CCSD density
   Simone Kossmann        : Meta GGA functionals, TD-DFT gradient, OOMP2, MP2 Hessian
   Martin Krupicka        : AUTO-CI
   Lucas Lang             : DCDCAS
   Dagmar Lenk            : GEPOL surface, SMD
   Dimitrios Liakos       : Extrapolation schemes; Compound Job, initial MDCI parallelization
   Dimitrios Manganas     : Further ROCIS development; embedding schemes
   Dimitrios Pantazis     : SARC Basis sets
   Taras Petrenko         : DFT Hessian,TD-DFT gradient, ASA, ECA, R-Raman, ABS, FL, XAS/XES, NRVS
   Peter Pinski           : DLPNO-MP2, DLPNO-MP2 Gradient
   Christoph Reimann      : Effective Core Potentials
   Marius Retegan         : Local ZFS, SOC
   Christoph Riplinger    : Optimizer, TS searches, QM/MM, DLPNO-CCSD(T), (RO)-DLPNO pert. Triples
   Tobias Risthaus        : Range-separated hybrids, TD-DFT gradient, RPA, STAB
   Michael Roemelt        : Original ROCIS implementation
   Masaaki Saitow         : Open-shell DLPNO-CCSD energy and density
   Barbara Sandhoefer     : DKH picture change effects
   Avijit Sen             : IP-ROCIS
   Kantharuban Sivalingam : CASSCF convergence, NEVPT2, FIC-MRCI
   Bernardo de Souza      : ESD, SOC TD-DFT
   Georgi Stoychev        : AutoAux, RI-MP2 NMR
   Willem Van den Heuvel  : Paramagnetic NMR
   Boris Wezisla          : Elementary symmetry handling
   Frank Wennmohs         : Technical directorship


 We gratefully acknowledge several colleagues who have allowed us to
 interface, adapt or use parts of their codes:
   Stefan Grimme, W. Hujo, H. Kruse,             : VdW corrections, initial TS optimization,
                  C. Bannwarth                     DFT functionals, gCP, sTDA/sTD-DF
   Ed Valeev, F. Pavosevic, A. Kumar             : LibInt (2-el integral package), F12 methods
   Garnet Chan, S. Sharma, J. Yang, R. Olivares  : DMRG
   Ulf Ekstrom                                   : XCFun DFT Library
   Mihaly Kallay                                 : mrcc  (arbitrary order and MRCC methods)
   Andreas Klamt, Michael Diedenhofen            : otool_cosmo (COSMO solvation model)
   Jiri Pittner, Ondrej Demel                    : Mk-CCSD
   Frank Weinhold                                : gennbo (NPA and NBO analysis)
   Christopher J. Cramer and Donald G. Truhlar   : smd solvation model
   Lars Goerigk                                  : TD-DFT with DH, B97 family of functionals
   V. Asgeirsson, H. Jonsson                     : NEB implementation
   FAccTs GmbH                                   : IRC, NEB, NEB-TS, Multilevel, MM, QM/MM, CI optimization
   S Lehtola, MJT Oliveira, MAL Marques          : LibXC Library


 Your calculation uses the libint2 library for the computation of 2-el integrals
 For citations please refer to: http://libint.valeyev.net

 Your ORCA version has been built with support for libXC version: 4.2.3
 For citations please refer to: https://tddft.org/programs/libxc/

 This ORCA versions uses:
   CBLAS   interface :  Fast vector & matrix operations
   LAPACKE interface :  Fast linear algebra routines
   SCALAPACK package :  Parallel linear algebra routines


----- Orbital basis set information -----
Your calculation utilizes the basis: ANO-RCC-QZP
   H, He:       P.-O. Widmark, P.-A. Malmqvist, and B. O. Roos, Theor. Chim. Acta 77, 291 (1990).
   s block:     B. O. Roos, V. Veryazov and P.-O. Widmark, Theor. Chem. Acc. 111, 345 (2004).
   p block:     B. O. Roos, R. Lindh, P.-A. Malmqvist, V. Veryazov, and P.-O. Widmark, J. Phys. Chem. A 108, 2851 (2004).
   d block:     B. O. Roos, R. Lindh, P.-A. Malmqvist, V. Veryazov, and P.-O. Widmark, J. Phys. Chem. A 109, 6575 (2005).
   actinides:   B. O. Roos, R. Lindh, P.-A. Malmqvist, V. Veryazov, and P.-O. Widmark, Chem. Phys. Letters 409, 295 (2005).
   lanthanides: B. O. Roos, R. Lindh, P.-A. Malmqvist, V. Veryazov, P.-O. Widmark and A. C. Borin, J. Phys. Chem. A 112, 11431 (2008).

================================================================================
                                        WARNINGS
                       Please study these warnings very carefully!
================================================================================


INFO   : the flag for use of LIBINT has been found!

================================================================================
                                       INPUT FILE
================================================================================
NAME = He_ano-rcc-qzp_2192.575824_.inp
|  1> ! LDA ano-rcc-qzp nori grid5 finalgrid6 verytightscf
|  2> %Pal NProcs 18 End
|  3> 
|  4> % REL
|  5>   Method ZORA
|  6>   ModelPot 1, 0, 0, 0
|  7>   velit 2192.575824
|  8> END
|  9> 
| 10> *xyz 0 1
| 11> He 0.0 0.0 0.0
| 12> **                         ****END OF INPUT****
================================================================================

                       ****************************
                       * Single Point Calculation *
                       ****************************

---------------------------------
CARTESIAN COORDINATES (ANGSTROEM)
---------------------------------
  He     0.000000    0.000000    0.000000

----------------------------
CARTESIAN COORDINATES (A.U.)
----------------------------
  NO LB      ZA    FRAG     MASS         X           Y           Z
   0 He    2.0000    0     4.003    0.000000    0.000000    0.000000

--------------------------------
INTERNAL COORDINATES (ANGSTROEM)
--------------------------------
 He     0   0   0     0.000000000000     0.00000000     0.00000000

---------------------------
INTERNAL COORDINATES (A.U.)
---------------------------
 He     0   0   0     0.000000000000     0.00000000     0.00000000

---------------------
BASIS SET INFORMATION
---------------------
There are 1 groups of distinct atoms

 Group   1 Type He  : 45s16p9d1f contracted to 5s4p3d1f pattern {99999/4444/333/1}

Atom   0He   basis set group =>   1


           ************************************************************
           *        Program running with 18 parallel MPI-processes    *
           *              working on a common directory               *
           ************************************************************


------------------------------------------------------------------------------
                       ORCA GTO INTEGRAL CALCULATION
                     -- ANO INTEGRAL GENERATION BRANCH --
------------------------------------------------------------------------------


Gathering ANO information                         ... done
Calculation Information:
Number of atoms                                   ... 1
Number of basis functions                         ... 39
Highest angular momentum                          ... 3
Number of primitive shells                        ... 17
Total number of shells                            ... 13
Maximum number of shells                          ... 13

Getting memory                                    ... done
Making prescreening integrals                     ... done
Gathering atom contracted prescreening            ... done
Making one-electron integrals                     ... done

Timings:

Total time                                        ...    0.1 sec
Prescreening matrix                               ...    0.0 sec
One-electron matrix                               ...    0.0 sec
Two-index integrals + Cholesky                    ...    0.0 sec


           ************************************************************
           *        Program running with 18 parallel MPI-processes    *
           *              working on a common directory               *
           ************************************************************
------------------------------------------------------------------------------
                          ORCA RELATIVISTIC HAMILTONIAN
------------------------------------------------------------------------------

Relativistic Method            ... ZORA(MP)
Treatment of potential         ... Van Wuellen
Nucleus model                  ... Point Nucleus
Speed of light used            ... 2192.57582400000001


            *************************************************
            *         ZERO ORDER REGULAR APPROXIMATION      *
            *                     ZORA(MP)                  *
            *            Programmed by FN according to      *
            *                   C. van Wuellen              *
            *       J. Chem. Phys. (1998) vol 109, 392-399  *
            *************************************************

Terms included in model potential: +V(e,N)
Basis function cutoff value   ... 1.000000e-12
Loading the fitted atomic densities  (DKH4)  ... done
Calculating the cutoffs                      ... done
Number of fit functions                      ... 6
Setting up the integration grid ... done


           ************************************************************
           *        Program running with 18 parallel MPI-processes    *
           *              working on a common directory               *
           ************************************************************
-------------------------------------------------------------------------------
                                 ORCA SCF
-------------------------------------------------------------------------------

------------
SCF SETTINGS
------------
Hamiltonian:
 Density Functional     Method          .... DFT(GTOs)
 Exchange Functional    Exchange        .... Slater
   X-Alpha parameter    XAlpha          ....  0.666667
 Correlation Functional Correlation     .... VWN-5
 Gradients option       PostSCFGGA      .... off
   Density functional embedding theory  .... OFF

Relativistic Settings:
 Scalar relativistic method             .... ZORA
 Speed of light used       Velit        ....       2192.57582
Orbital energies will be scaled


General Settings:
 Integral files         IntName         .... He_ano-rcc-qzp_2192.575824_
 Hartree-Fock type      HFTyp           .... RHF
 Total Charge           Charge          ....    0
 Multiplicity           Mult            ....    1
 Number of Electrons    NEL             ....    2
 Basis Dimension        Dim             ....   39
 Nuclear Repulsion      ENuc            ....      0.0000000000 Eh

Convergence Acceleration:
 DIIS                   CNVDIIS         .... on
   Start iteration      DIISMaxIt       ....    12
   Startup error        DIISStart       ....  0.200000
   # of expansion vecs  DIISMaxEq       ....     5
   Bias factor          DIISBfac        ....   1.050
   Max. coefficient     DIISMaxC        ....  10.000
 Newton-Raphson         CNVNR           .... off
 SOSCF                  CNVSOSCF        .... on
   Start iteration      SOSCFMaxIt      ....   150
   Startup grad/error   SOSCFStart      ....  0.003300
 Level Shifting         CNVShift        .... on
   Level shift para.    LevelShift      ....    0.2500
   Turn off err/grad.   ShiftErr        ....    0.0010
 Zerner damping         CNVZerner       .... off
 Static damping         CNVDamp         .... on
   Fraction old density DampFac         ....    0.7000
   Max. Damping (<1)    DampMax         ....    0.9800
   Min. Damping (>=0)   DampMin         ....    0.0000
   Turn off err/grad.   DampErr         ....    0.1000
 Fernandez-Rico         CNVRico         .... off

SCF Procedure:
 Maximum # iterations   MaxIter         ....   125
 SCF integral mode      SCFMode         .... Direct
   Integral package                     .... LIBINT
 Reset frequency        DirectResetFreq ....    20
 Integral Threshold     Thresh          ....  1.000e-12 Eh
 Primitive CutOff       TCut            ....  1.000e-14 Eh

Convergence Tolerance:
 Convergence Check Mode ConvCheckMode   .... Total+1el-Energy
 Convergence forced     ConvForced      .... 0
 Energy Change          TolE            ....  1.000e-09 Eh
 1-El. energy change                    ....  1.000e-06 Eh
 Orbital Gradient       TolG            ....  2.000e-06
 Orbital Rotation angle TolX            ....  2.000e-06
 DIIS Error             TolErr          ....  1.000e-08


Diagonalization of the overlap matrix:
Smallest eigenvalue                        ... 1.000e+00
Time for diagonalization                   ...    0.001 sec
Threshold for overlap eigenvalues          ... 1.000e-08
Number of eigenvalues below threshold      ... 0
Time for construction of square roots      ...    0.001 sec
Total time needed                          ...    0.002 sec

-------------------
DFT GRID GENERATION
-------------------

General Integration Accuracy     IntAcc      ...  5.010
Radial Grid Type                 RadialGrid  ... Gauss-Chebyshev
Angular Grid (max. acc.)         AngularGrid ... Lebedev-434
Angular grid pruning method      GridPruning ... 3 (G Style)
Weight generation scheme         WeightScheme... Becke
Basis function cutoff            BFCut       ...    1.0000e-12
Integration weight cutoff        WCut        ...    1.0000e-14
Grids for H and He will be reduced by one unit

# of grid points (after initial pruning)     ...   6764 (   0.0 sec)
# of grid points (after weights+screening)   ...   6764 (   0.0 sec)
Grid point division into batches done        ...    0.0 sec
Reduced shell lists constructed in    0.0 sec

Total number of grid points                  ...     6764
Total number of batches                      ...      106
Average number of points per batch           ...       63
Average number of grid points per atom       ...     6764
Average number of shells per batch           ...     7.71 (59.34%)
Average number of basis functions per batch  ...    14.57 (37.36%)
Average number of large shells per batch     ...     6.86 (88.89%)
Average number of large basis fcns per batch ...    12.00 (82.35%)
Maximum spatial batch extension              ...  15.22, 15.22, 15.22 au
Average spatial batch extension              ...   0.77,  0.77,  0.77 au

Time for grid setup =    0.053 sec

------------------------------
INITIAL GUESS: MODEL POTENTIAL
------------------------------
Loading ZORA relativistic densities                ... done
Calculating cut-offs                               ... done
Setting up the integral package                    ... done
Initializing the effective Hamiltonian             ... done
Starting the Coulomb interaction                   ... done (   0.0 sec)
Reading the grid                                   ... done
Mapping shells                                     ... done
Starting the XC term evaluation                    ... done (   0.0 sec)
  promolecular density results
     # of electrons  =      1.999920377
     EX              =     -0.884114011
     EC              =     -0.112857661
     EX+EC           =     -0.996971673
Transforming the Hamiltonian                       ... done (   0.0 sec)
Diagonalizing the Hamiltonian                      ... done (   0.0 sec)
Back transforming the eigenvectors                 ... done (   0.0 sec)
Now organizing SCF variables                       ... done
                      ------------------
                      INITIAL GUESS DONE (   0.1 sec)
                      ------------------
--------------
SCF ITERATIONS
--------------
ITER       Energy         Delta-E        Max-DP      RMS-DP      [F,P]     Damp
               ***  Starting incremental Fock matrix formation  ***
  0     -2.8345345919   0.000000000000 0.00580120  0.00015313  0.0331083 0.7000
                      *** Initiating the SOSCF procedure ***
                      *** Re-Reading the Fockian *** 
                      *** Removing any level shift *** 
ITER      Energy       Delta-E        Grad      Rot      Max-DP    RMS-DP
  1     -2.83462963  -0.0000950335  0.001186  0.001186  0.015085  0.000409
               *** Restarting incremental Fock matrix formation ***
  2     -2.83477112  -0.0001414970  0.003184  0.002643  0.005966  0.000158
  3     -2.83478439  -0.0000132633  0.001274  0.000843  0.001806  0.000049
  4     -2.83478732  -0.0000029356  0.000003  0.000001  0.000001  0.000000
                 **** Energy Check signals convergence ****
              ***Rediagonalizing the Fockian in SOSCF/NRSCF***

               *****************************************************
               *                     SUCCESS                       *
               *           SCF CONVERGED AFTER   5 CYCLES          *
               *****************************************************

Setting up the final grid:

General Integration Accuracy     IntAcc      ...  5.340
Radial Grid Type                 RadialGrid  ... Gauss-Chebyshev
Angular Grid (max. acc.)         AngularGrid ... Lebedev-590
Angular grid pruning method      GridPruning ... 3 (G Style)
Weight generation scheme         WeightScheme... Becke
Basis function cutoff            BFCut       ...    1.0000e-12
Integration weight cutoff        WCut        ...    1.0000e-14
Grids for H and He will be reduced by one unit

# of grid points (after initial pruning)     ...  11406 (   0.0 sec)
# of grid points (after weights+screening)   ...  11406 (   0.0 sec)
Grid point division into batches done        ...    0.1 sec
Reduced shell lists constructed in    0.1 sec

Total number of grid points                  ...    11406
Total number of batches                      ...      179
Average number of points per batch           ...       63
Average number of grid points per atom       ...    11406
Average number of shells per batch           ...     6.00 (46.15%)
Average number of basis functions per batch  ...     8.91 (22.84%)
Average number of large shells per batch     ...     4.00 (66.67%)
Average number of large basis fcns per batch ...     4.00 (44.90%)
Maximum spatial batch extension              ...  16.29, 16.29, 16.29 au
Average spatial batch extension              ...   0.81,  0.81,  0.81 au

Final grid set up in    0.1 sec
Final integration                            ... done (   0.0 sec)
Change in XC energy                          ...     0.000000004
Integrated number of electrons               ...     1.999999999
Previous integrated no of electrons          ...     2.000000002

----------------
TOTAL SCF ENERGY
----------------

Total Energy       :           -2.83478732 Eh             -77.13848 eV

Components:
Nuclear Repulsion  :            0.00000000 Eh               0.00000 eV
Electronic Energy  :           -2.83478732 Eh             -77.13848 eV
One Electron Energy:           -3.85757720 Eh            -104.97001 eV
Two Electron Energy:            1.02278988 Eh              27.83153 eV

Virial components:
Potential Energy   :           -5.60255309 Eh            -152.45322 eV
Kinetic Energy     :            2.76776577 Eh              75.31474 eV
Virial Ratio       :            2.02421503


DFT components:
N(Alpha)           :        0.999999999540 electrons
N(Beta)            :        0.999999999540 electrons
N(Total)           :        1.999999999079 electrons
E(X)               :       -0.861830960093 Eh       
E(C)               :       -0.111466460822 Eh       
E(XC)              :       -0.973297420915 Eh       
DFET-embed. en.    :        0.000000000000 Eh       

---------------
SCF CONVERGENCE
---------------

  Last Energy change         ...   -4.3907e-12  Tolerance :   1.0000e-09
  Last MAX-Density change    ...    4.0411e-08  Tolerance :   1.0000e-08
  Last RMS-Density change    ...    1.2225e-09  Tolerance :   1.0000e-09
  Last Orbital Gradient      ...    3.0712e-08  Tolerance :   2.0000e-06
  Last Orbital Rotation      ...    1.7837e-08  Tolerance :   2.0000e-06

             **** THE GBW FILE WAS UPDATED (He_ano-rcc-qzp_2192.575824_.gbw) ****
             **** DENSITY FILE WAS UPDATED (He_ano-rcc-qzp_2192.575824_.scfp) ****
             **** ENERGY FILE WAS UPDATED (He_ano-rcc-qzp_2192.575824_.en.tmp) ****
             **** THE GBW FILE WAS UPDATED (He_ano-rcc-qzp_2192.575824_.gbw) ****
             **** DENSITY FILE WAS UPDATED (He_ano-rcc-qzp_2192.575824_.scfp) ****
----------------
ORBITAL ENERGIES
----------------

  NO   OCC          E(Eh)            E(eV) 
   0   2.0000      -0.570414       -15.5218 
   1   0.0000       0.188545         5.1306 
   2   0.0000       0.264824         7.2062 
   3   0.0000       0.264824         7.2062 
   4   0.0000       0.264824         7.2062 
   5   0.0000       1.296191        35.2711 
   6   0.0000       1.296191        35.2711 
   7   0.0000       1.296191        35.2711 
   8   0.0000       1.394355        37.9423 
   9   0.0000       1.433858        39.0172 
  10   0.0000       1.433858        39.0172 
  11   0.0000       1.433858        39.0172 
  12   0.0000       1.433858        39.0172 
  13   0.0000       1.433858        39.0172 
  14   0.0000       4.470130       121.6384 
  15   0.0000       4.470130       121.6384 
  16   0.0000       4.470130       121.6384 
  17   0.0000       5.044385       137.2647 
  18   0.0000       5.044385       137.2647 
  19   0.0000       5.044385       137.2647 
  20   0.0000       5.044385       137.2647 
  21   0.0000       5.044385       137.2647 
  22   0.0000       5.684669       154.6877 
  23   0.0000       7.410536       201.6509 
  24   0.0000       7.410536       201.6509 
  25   0.0000       7.410536       201.6509 
  26   0.0000       7.410536       201.6509 
  27   0.0000       7.410536       201.6509 
  28   0.0000       7.410536       201.6509 
  29   0.0000       7.410536       201.6509 
  30   0.0000      14.349187       390.4612 
  31   0.0000      14.349187       390.4612 
  32   0.0000      14.349187       390.4612 
  33   0.0000      14.642486       398.4423 
  34   0.0000      14.642486       398.4423 
  35   0.0000      14.642486       398.4423 
  36   0.0000      14.642486       398.4423 
  37   0.0000      14.642486       398.4423 
  38   0.0000      20.573986       559.8466 

                    ********************************
                    * MULLIKEN POPULATION ANALYSIS *
                    ********************************

-----------------------
MULLIKEN ATOMIC CHARGES
-----------------------
   0 He:   -0.000000
Sum of atomic charges:   -0.0000000

--------------------------------
MULLIKEN REDUCED ORBITAL CHARGES
--------------------------------
  0 Hes       :     2.000000  s :     2.000000
      pz      :     0.000000  p :     0.000000
      px      :     0.000000
      py      :     0.000000
      dz2     :     0.000000  d :     0.000000
      dxz     :     0.000000
      dyz     :     0.000000
      dx2y2   :     0.000000
      dxy     :     0.000000
      f0      :     0.000000  f :     0.000000
      f+1     :     0.000000
      f-1     :     0.000000
      f+2     :     0.000000
      f-2     :     0.000000
      f+3     :     0.000000
      f-3     :     0.000000


                     *******************************
                     * LOEWDIN POPULATION ANALYSIS *
                     *******************************

----------------------
LOEWDIN ATOMIC CHARGES
----------------------
   0 He:   -0.000000

-------------------------------
LOEWDIN REDUCED ORBITAL CHARGES
-------------------------------
  0 Hes       :     2.000000  s :     2.000000
      pz      :     0.000000  p :     0.000000
      px      :     0.000000
      py      :     0.000000
      dz2     :     0.000000  d :     0.000000
      dxz     :     0.000000
      dyz     :     0.000000
      dx2y2   :     0.000000
      dxy     :     0.000000
      f0      :     0.000000  f :     0.000000
      f+1     :     0.000000
      f-1     :     0.000000
      f+2     :     0.000000
      f-2     :     0.000000
      f+3     :     0.000000
      f-3     :     0.000000


                      *****************************
                      * MAYER POPULATION ANALYSIS *
                      *****************************

  NA   - Mulliken gross atomic population
  ZA   - Total nuclear charge
  QA   - Mulliken gross atomic charge
  VA   - Mayer's total valence
  BVA  - Mayer's bonded valence
  FA   - Mayer's free valence

  ATOM       NA         ZA         QA         VA         BVA        FA
  0 He     2.0000     2.0000    -0.0000    -0.0000     0.0000    -0.0000

  Mayer bond orders larger than 0.100000


--------------------------
ATOM BASIS FOR ELEMENT He
--------------------------
 NewGTO He
 S 45
    1       1149.270500000000         0.000357619966
    2        172.044570000000         0.002771959601
    3         39.080465000000         0.014293582408
    4         11.036173000000         0.055848744559
    5          3.564152000000         0.163308026218
    6          1.240443000000         0.331220287041
    7          0.447316000000         0.414158269190
    8          0.164206000000         0.188968853249
    9          0.057472000000         0.005154329967
   10       1149.270500000000        -0.000011251374
   11        172.044570000000        -0.000085519776
   12         39.080465000000        -0.000478817441
   13         11.036173000000        -0.002176173996
   14          3.564152000000        -0.009705771434
   15          1.240443000000        -0.012849495772
   16          0.447316000000         0.012114701293
   17          0.164206000000         0.011611507642
   18          0.057472000000         0.000247229126
   19       1149.270500000000         0.000009192468
   20        172.044570000000         0.000091893276
   21         39.080465000000         0.000407348538
   22         11.036173000000         0.004195661777
   23          3.564152000000         0.013092709852
   24          1.240443000000        -0.016820246263
   25          0.447316000000        -0.006158234289
   26          0.164206000000         0.012419530578
   27          0.057472000000         0.000659580432
   28       1149.270500000000        -0.000003250359
   29        172.044570000000        -0.000072084722
   30         39.080465000000        -0.000133606812
   31         11.036173000000        -0.004906070157
   32          3.564152000000        -0.000069749172
   33          1.240443000000         0.013314864334
   34          0.447316000000        -0.017495348020
   35          0.164206000000         0.006182293196
   36          0.057472000000         0.003744309922
   37       1149.270500000000         0.000001898130
   38        172.044570000000         0.000027402703
   39         39.080465000000         0.000150266366
   40         11.036173000000         0.002988901970
   41          3.564152000000        -0.005310592417
   42          1.240443000000         0.003959978161
   43          0.447316000000        -0.000284625247
   44          0.164206000000        -0.002842018960
   45          0.057472000000         0.002504648765
 S 45
    1       1149.270500000000         0.000008865156
    2        172.044570000000         0.000068714993
    3         39.080465000000         0.000354328183
    4         11.036173000000         0.001384452379
    5          3.564152000000         0.004048294858
    6          1.240443000000         0.008210725559
    7          0.447316000000         0.010266701707
    8          0.164206000000         0.004684409301
    9          0.057472000000         0.000127772333
   10       1149.270500000000         0.000349205670
   11        172.044570000000         0.002654252673
   12         39.080465000000         0.014860919183
   13         11.036173000000         0.067541286318
   14          3.564152000000         0.301235236060
   15          1.240443000000         0.398806103999
   16          0.447316000000        -0.376000499144
   17          0.164206000000        -0.360383022520
   18          0.057472000000        -0.007673179251
   19       1149.270500000000        -0.000383378244
   20        172.044570000000        -0.003832472698
   21         39.080465000000        -0.016988752757
   22         11.036173000000        -0.174982978980
   23          3.564152000000        -0.546040528185
   24          1.240443000000         0.701500014673
   25          0.447316000000         0.256833424234
   26          0.164206000000        -0.517965120514
   27          0.057472000000        -0.027508258514
   28       1149.270500000000         0.000234616090
   29        172.044570000000         0.005203190634
   30         39.080465000000         0.009643953505
   31         11.036173000000         0.354127995904
   32          3.564152000000         0.005034606900
   33          1.240443000000        -0.961088217588
   34          0.447316000000         1.262842220791
   35          0.164206000000        -0.446247817464
   36          0.057472000000        -0.270270282802
   37       1149.270500000000        -0.000144775014
   38        172.044570000000        -0.002090070768
   39         39.080465000000        -0.011461180852
   40         11.036173000000        -0.227970816262
   41          3.564152000000         0.405051788301
   42          1.240443000000        -0.302037157036
   43          0.447316000000         0.021709059257
   44          0.164206000000         0.216767692187
   45          0.057472000000        -0.191035647614
 S 45
    1       1149.270500000000        -0.000002652920
    2        172.044570000000        -0.000020563130
    3         39.080465000000        -0.000106033575
    4         11.036173000000        -0.000414300760
    5          3.564152000000        -0.001211462136
    6          1.240443000000        -0.002457079702
    7          0.447316000000        -0.003072335592
    8          0.164206000000        -0.001401820939
    9          0.057472000000        -0.000038236183
   10       1149.270500000000        -0.000371515985
   11        172.044570000000        -0.002823829562
   12         39.080465000000        -0.015810364753
   13         11.036173000000        -0.071856414765
   14          3.564152000000        -0.320480779153
   15          1.240443000000        -0.424285328012
   16          0.447316000000         0.400022701539
   17          0.164206000000         0.383407443835
   18          0.057472000000         0.008163409092
   19       1149.270500000000        -0.000138524241
   20        172.044570000000        -0.001384769166
   21         39.080465000000        -0.006138465383
   22         11.036173000000        -0.063225769097
   23          3.564152000000        -0.197298231828
   24          1.240443000000         0.253469670067
   25          0.447316000000         0.092800401912
   26          0.164206000000        -0.187153878057
   27          0.057472000000        -0.009939428459
   28       1149.270500000000         0.000294404939
   29        172.044570000000         0.006529155870
   30         39.080465000000         0.012101589211
   31         11.036173000000         0.444372894602
   32          3.564152000000         0.006317610771
   33          1.240443000000        -1.206009008487
   34          0.447316000000         1.584661081783
   35          0.164206000000        -0.559968250604
   36          0.057472000000        -0.339145137585
   37       1149.270500000000        -0.000268106376
   38        172.044570000000        -0.003870566377
   39         39.080465000000        -0.021224765170
   40         11.036173000000        -0.422175263026
   41          3.564152000000         0.750108492258
   42          1.240443000000        -0.559337455145
   43          0.447316000000         0.040202636250
   44          0.164206000000         0.401428388796
   45          0.057472000000        -0.353775654714
 S 45
    1       1149.270500000000         0.000000354497
    2        172.044570000000         0.000002747754
    3         39.080465000000         0.000014168766
    4         11.036173000000         0.000055361054
    5          3.564152000000         0.000161881965
    6          1.240443000000         0.000328327959
    7          0.447316000000         0.000410541699
    8          0.164206000000         0.000187318713
    9          0.057472000000         0.000005109321
   10       1149.270500000000        -0.000145300436
   11        172.044570000000        -0.001104403805
   12         39.080465000000        -0.006183456407
   13         11.036173000000        -0.028103147221
   14          3.564152000000        -0.125340493920
   15          1.240443000000        -0.165938602360
   16          0.447316000000         0.156449454231
   17          0.164206000000         0.149951203033
   18          0.057472000000         0.003192721043
   19       1149.270500000000        -0.000544640555
   20        172.044570000000        -0.005444544885
   21         39.080465000000        -0.024134816924
   22         11.036173000000        -0.248586945902
   23          3.564152000000        -0.775724290622
   24          1.240443000000         0.996575479594
   25          0.447316000000         0.364866553924
   26          0.164206000000        -0.735839383595
   27          0.057472000000        -0.039079195079
   28       1149.270500000000        -0.000159133601
   29        172.044570000000        -0.003529180212
   30         39.080465000000        -0.006541226772
   31         11.036173000000        -0.240195219340
   32          3.564152000000        -0.003414834531
   33          1.240443000000         0.651879540444
   34          0.447316000000        -0.856550929954
   35          0.164206000000         0.302677544942
   36          0.057472000000         0.183316853255
   37       1149.270500000000         0.000433412093
   38        172.044570000000         0.006257032369
   39         39.080465000000         0.034311268628
   40         11.036173000000         0.682474870363
   41          3.564152000000        -1.212601118177
   42          1.240443000000         0.904206832141
   43          0.447316000000        -0.064990280971
   44          0.164206000000        -0.648936144765
   45          0.057472000000         0.571902276693
 S 45
    1       1149.270500000000        -0.000000338502
    2        172.044570000000        -0.000002623772
    3         39.080465000000        -0.000013529454
    4         11.036173000000        -0.000052863095
    5          3.564152000000        -0.000154577650
    6          1.240443000000        -0.000313513395
    7          0.447316000000        -0.000392017548
    8          0.164206000000        -0.000178866661
    9          0.057472000000        -0.000004878782
   10       1149.270500000000         0.000018133493
   11        172.044570000000         0.000137829585
   12         39.080465000000         0.000771695304
   13         11.036173000000         0.003507272520
   14          3.564152000000         0.015642492512
   15          1.240443000000         0.020709136080
   16          0.447316000000        -0.019524890479
   17          0.164206000000        -0.018713908788
   18          0.057472000000        -0.000398451557
   19       1149.270500000000         0.000186440071
   20        172.044570000000         0.001863763771
   21         39.080465000000         0.008261773636
   22         11.036173000000         0.085095697322
   23          3.564152000000         0.265544110534
   24          1.240443000000        -0.341145368926
   25          0.447316000000        -0.124900258631
   26          0.164206000000         0.251890803182
   27          0.057472000000         0.013377497937
   28       1149.270500000000         0.000236473663
   29        172.044570000000         0.005244386889
   30         39.080465000000         0.009720309493
   31         11.036173000000         0.356931803819
   32          3.564152000000         0.005074468393
   33          1.240443000000        -0.968697632215
   34          0.447316000000         1.272840772318
   35          0.164206000000        -0.449780983938
   36          0.057472000000        -0.272410147390
   37       1149.270500000000         0.000769113021
   38        172.044570000000         0.011103439758
   39         39.080465000000         0.060887187690
   40         11.036173000000         1.211088286358
   41          3.564152000000        -2.151825765344
   42          1.240443000000         1.604563553040
   43          0.447316000000        -0.115328741656
   44          0.164206000000        -1.151572017737
   45          0.057472000000         1.014871284383
 P 16
    1          4.550000000000         0.061915008750
    2          1.592500000000         0.263932890739
    3          0.557375000000         0.311531617014
    4          0.195081000000         0.192593088165
    5          4.550000000000        -0.129793623465
    6          1.592500000000        -0.355690550818
    7          0.557375000000        -0.137728247869
    8          0.195081000000         0.692204688922
    9          4.550000000000         0.151357156511
   10          1.592500000000         0.019345540254
   11          0.557375000000        -0.223755665082
   12          0.195081000000         0.159774200629
   13          4.550000000000        -0.092374776546
   14          1.592500000000         0.157606347585
   15          0.557375000000        -0.136395607638
   16          0.195081000000         0.060489514950
 P 16
    1          4.550000000000        -0.057140325973
    2          1.592500000000        -0.243579250273
    3          0.557375000000        -0.287507318607
    4          0.195081000000        -0.177740939720
    5          4.550000000000        -0.088877311660
    6          1.592500000000        -0.243562195859
    7          0.557375000000        -0.094310614678
    8          0.195081000000         0.473993176455
    9          4.550000000000         0.458246865323
   10          1.592500000000         0.058570294155
   11          0.557375000000        -0.677439603687
   12          0.195081000000         0.483730193441
   13          4.550000000000        -0.385105419386
   14          1.592500000000         0.657052291267
   15          0.557375000000        -0.568625870027
   16          0.195081000000         0.252177497955
 P 16
    1          4.550000000000        -0.028939423903
    2          1.592500000000        -0.123363720061
    3          0.557375000000        -0.145611632881
    4          0.195081000000        -0.090019094428
    5          4.550000000000        -0.097059163055
    6          1.592500000000        -0.265984000196
    7          0.557375000000        -0.102992644094
    8          0.195081000000         0.517627954103
    9          4.550000000000        -0.480846403484
   10          1.592500000000        -0.061458828039
   11          0.557375000000         0.710849155031
   12          0.195081000000        -0.507586502766
   13          4.550000000000         0.773951197944
   14          1.592500000000        -1.320486241787
   15          0.557375000000         1.142774552460
   16          0.195081000000        -0.506804284780
 P 16
    1          4.550000000000         0.005610641016
    2          1.592500000000         0.023917184736
    3          0.557375000000         0.028230506680
    4          0.195081000000         0.017452483681
    5          4.550000000000         0.026531518604
    6          1.592500000000         0.072707812713
    7          0.557375000000         0.028153459878
    8          0.195081000000        -0.141495715209
    9          4.550000000000         0.516457618542
   10          1.592500000000         0.066010434387
   11          0.557375000000        -0.763494244917
   12          0.195081000000         0.545178074585
   13          4.550000000000         1.089357308222
   14          1.592500000000        -1.858620209802
   15          0.557375000000         1.608486185797
   16          0.195081000000        -0.713340780311
 D 9
    1          3.400000000000        -0.187270183817
    2          1.360000000000        -0.377530066193
    3          0.544000000000        -0.202474324675
    4          3.400000000000         0.595015471580
    5          1.360000000000        -0.115728979458
    6          0.544000000000        -0.436966390391
    7          3.400000000000        -0.483470699569
    8          1.360000000000         0.812632753655
    9          0.544000000000        -0.547449520604
 D 9
    1          3.400000000000        -0.195673717091
    2          1.360000000000        -0.394471292013
    3          0.544000000000        -0.211560126216
    4          3.400000000000        -0.318780541076
    5          1.360000000000         0.062001995666
    6          0.544000000000         0.234105479629
    7          3.400000000000         0.757767720532
    8          1.360000000000        -1.273679811240
    9          0.544000000000         0.858044915036
 D 9
    1          3.400000000000         0.073151711694
    2          1.360000000000         0.147471263151
    3          0.544000000000         0.079090772072
    4          3.400000000000         0.670547390047
    5          1.360000000000        -0.130419743410
    6          0.544000000000        -0.492435384641
    7          3.400000000000         0.789256978880
    8          1.360000000000        -1.326607946791
    9          0.544000000000         0.893701221410
 F 1
    1          1.813333000000         1.000000000000
 end
  // -----------------------------------------------
  // The basis set
  // -----------------------------------------------
  BAS[ATNO] = new BFNGauss[NSH];
  // Basis function   1 L = s
  InitBFNGauss(BAS[ATNO][  0]);
  BAS[ATNO][  0].l  = 0;
  BAS[ATNO][  0].ng = 45;
  BAS[ATNO][  0].a[  0] =      1149.270500000000;     BAS[ATNO][  0].d[  0] =         0.000357619966;
  BAS[ATNO][  0].a[  1] =       172.044570000000;     BAS[ATNO][  0].d[  1] =         0.002771959601;
  BAS[ATNO][  0].a[  2] =        39.080465000000;     BAS[ATNO][  0].d[  2] =         0.014293582408;
  BAS[ATNO][  0].a[  3] =        11.036173000000;     BAS[ATNO][  0].d[  3] =         0.055848744559;
  BAS[ATNO][  0].a[  4] =         3.564152000000;     BAS[ATNO][  0].d[  4] =         0.163308026218;
  BAS[ATNO][  0].a[  5] =         1.240443000000;     BAS[ATNO][  0].d[  5] =         0.331220287041;
  BAS[ATNO][  0].a[  6] =         0.447316000000;     BAS[ATNO][  0].d[  6] =         0.414158269190;
  BAS[ATNO][  0].a[  7] =         0.164206000000;     BAS[ATNO][  0].d[  7] =         0.188968853249;
  BAS[ATNO][  0].a[  8] =         0.057472000000;     BAS[ATNO][  0].d[  8] =         0.005154329967;
  BAS[ATNO][  0].a[  9] =      1149.270500000000;     BAS[ATNO][  0].d[  9] =        -0.000011251374;
  BAS[ATNO][  0].a[ 10] =       172.044570000000;     BAS[ATNO][  0].d[ 10] =        -0.000085519776;
  BAS[ATNO][  0].a[ 11] =        39.080465000000;     BAS[ATNO][  0].d[ 11] =        -0.000478817441;
  BAS[ATNO][  0].a[ 12] =        11.036173000000;     BAS[ATNO][  0].d[ 12] =        -0.002176173996;
  BAS[ATNO][  0].a[ 13] =         3.564152000000;     BAS[ATNO][  0].d[ 13] =        -0.009705771434;
  BAS[ATNO][  0].a[ 14] =         1.240443000000;     BAS[ATNO][  0].d[ 14] =        -0.012849495772;
  BAS[ATNO][  0].a[ 15] =         0.447316000000;     BAS[ATNO][  0].d[ 15] =         0.012114701293;
  BAS[ATNO][  0].a[ 16] =         0.164206000000;     BAS[ATNO][  0].d[ 16] =         0.011611507642;
  BAS[ATNO][  0].a[ 17] =         0.057472000000;     BAS[ATNO][  0].d[ 17] =         0.000247229126;
  BAS[ATNO][  0].a[ 18] =      1149.270500000000;     BAS[ATNO][  0].d[ 18] =         0.000009192468;
  BAS[ATNO][  0].a[ 19] =       172.044570000000;     BAS[ATNO][  0].d[ 19] =         0.000091893276;
  BAS[ATNO][  0].a[ 20] =        39.080465000000;     BAS[ATNO][  0].d[ 20] =         0.000407348538;
  BAS[ATNO][  0].a[ 21] =        11.036173000000;     BAS[ATNO][  0].d[ 21] =         0.004195661777;
  BAS[ATNO][  0].a[ 22] =         3.564152000000;     BAS[ATNO][  0].d[ 22] =         0.013092709852;
  BAS[ATNO][  0].a[ 23] =         1.240443000000;     BAS[ATNO][  0].d[ 23] =        -0.016820246263;
  BAS[ATNO][  0].a[ 24] =         0.447316000000;     BAS[ATNO][  0].d[ 24] =        -0.006158234289;
  BAS[ATNO][  0].a[ 25] =         0.164206000000;     BAS[ATNO][  0].d[ 25] =         0.012419530578;
  BAS[ATNO][  0].a[ 26] =         0.057472000000;     BAS[ATNO][  0].d[ 26] =         0.000659580432;
  BAS[ATNO][  0].a[ 27] =      1149.270500000000;     BAS[ATNO][  0].d[ 27] =        -0.000003250359;
  BAS[ATNO][  0].a[ 28] =       172.044570000000;     BAS[ATNO][  0].d[ 28] =        -0.000072084722;
  BAS[ATNO][  0].a[ 29] =        39.080465000000;     BAS[ATNO][  0].d[ 29] =        -0.000133606812;
  BAS[ATNO][  0].a[ 30] =        11.036173000000;     BAS[ATNO][  0].d[ 30] =        -0.004906070157;
  BAS[ATNO][  0].a[ 31] =         3.564152000000;     BAS[ATNO][  0].d[ 31] =        -0.000069749172;
  BAS[ATNO][  0].a[ 32] =         1.240443000000;     BAS[ATNO][  0].d[ 32] =         0.013314864334;
  BAS[ATNO][  0].a[ 33] =         0.447316000000;     BAS[ATNO][  0].d[ 33] =        -0.017495348020;
  BAS[ATNO][  0].a[ 34] =         0.164206000000;     BAS[ATNO][  0].d[ 34] =         0.006182293196;
  BAS[ATNO][  0].a[ 35] =         0.057472000000;     BAS[ATNO][  0].d[ 35] =         0.003744309922;
  BAS[ATNO][  0].a[ 36] =      1149.270500000000;     BAS[ATNO][  0].d[ 36] =         0.000001898130;
  BAS[ATNO][  0].a[ 37] =       172.044570000000;     BAS[ATNO][  0].d[ 37] =         0.000027402703;
  BAS[ATNO][  0].a[ 38] =        39.080465000000;     BAS[ATNO][  0].d[ 38] =         0.000150266366;
  BAS[ATNO][  0].a[ 39] =        11.036173000000;     BAS[ATNO][  0].d[ 39] =         0.002988901970;
  BAS[ATNO][  0].a[ 40] =         3.564152000000;     BAS[ATNO][  0].d[ 40] =        -0.005310592417;
  BAS[ATNO][  0].a[ 41] =         1.240443000000;     BAS[ATNO][  0].d[ 41] =         0.003959978161;
  BAS[ATNO][  0].a[ 42] =         0.447316000000;     BAS[ATNO][  0].d[ 42] =        -0.000284625247;
  BAS[ATNO][  0].a[ 43] =         0.164206000000;     BAS[ATNO][  0].d[ 43] =        -0.002842018960;
  BAS[ATNO][  0].a[ 44] =         0.057472000000;     BAS[ATNO][  0].d[ 44] =         0.002504648765;

  // Basis function   2 L = s
  InitBFNGauss(BAS[ATNO][  1]);
  BAS[ATNO][  1].l  = 0;
  BAS[ATNO][  1].ng = 45;
  BAS[ATNO][  1].a[  0] =      1149.270500000000;     BAS[ATNO][  1].d[  0] =         0.000008865156;
  BAS[ATNO][  1].a[  1] =       172.044570000000;     BAS[ATNO][  1].d[  1] =         0.000068714993;
  BAS[ATNO][  1].a[  2] =        39.080465000000;     BAS[ATNO][  1].d[  2] =         0.000354328183;
  BAS[ATNO][  1].a[  3] =        11.036173000000;     BAS[ATNO][  1].d[  3] =         0.001384452379;
  BAS[ATNO][  1].a[  4] =         3.564152000000;     BAS[ATNO][  1].d[  4] =         0.004048294858;
  BAS[ATNO][  1].a[  5] =         1.240443000000;     BAS[ATNO][  1].d[  5] =         0.008210725559;
  BAS[ATNO][  1].a[  6] =         0.447316000000;     BAS[ATNO][  1].d[  6] =         0.010266701707;
  BAS[ATNO][  1].a[  7] =         0.164206000000;     BAS[ATNO][  1].d[  7] =         0.004684409301;
  BAS[ATNO][  1].a[  8] =         0.057472000000;     BAS[ATNO][  1].d[  8] =         0.000127772333;
  BAS[ATNO][  1].a[  9] =      1149.270500000000;     BAS[ATNO][  1].d[  9] =         0.000349205670;
  BAS[ATNO][  1].a[ 10] =       172.044570000000;     BAS[ATNO][  1].d[ 10] =         0.002654252673;
  BAS[ATNO][  1].a[ 11] =        39.080465000000;     BAS[ATNO][  1].d[ 11] =         0.014860919183;
  BAS[ATNO][  1].a[ 12] =        11.036173000000;     BAS[ATNO][  1].d[ 12] =         0.067541286318;
  BAS[ATNO][  1].a[ 13] =         3.564152000000;     BAS[ATNO][  1].d[ 13] =         0.301235236060;
  BAS[ATNO][  1].a[ 14] =         1.240443000000;     BAS[ATNO][  1].d[ 14] =         0.398806103999;
  BAS[ATNO][  1].a[ 15] =         0.447316000000;     BAS[ATNO][  1].d[ 15] =        -0.376000499144;
  BAS[ATNO][  1].a[ 16] =         0.164206000000;     BAS[ATNO][  1].d[ 16] =        -0.360383022520;
  BAS[ATNO][  1].a[ 17] =         0.057472000000;     BAS[ATNO][  1].d[ 17] =        -0.007673179251;
  BAS[ATNO][  1].a[ 18] =      1149.270500000000;     BAS[ATNO][  1].d[ 18] =        -0.000383378244;
  BAS[ATNO][  1].a[ 19] =       172.044570000000;     BAS[ATNO][  1].d[ 19] =        -0.003832472698;
  BAS[ATNO][  1].a[ 20] =        39.080465000000;     BAS[ATNO][  1].d[ 20] =        -0.016988752757;
  BAS[ATNO][  1].a[ 21] =        11.036173000000;     BAS[ATNO][  1].d[ 21] =        -0.174982978980;
  BAS[ATNO][  1].a[ 22] =         3.564152000000;     BAS[ATNO][  1].d[ 22] =        -0.546040528185;
  BAS[ATNO][  1].a[ 23] =         1.240443000000;     BAS[ATNO][  1].d[ 23] =         0.701500014673;
  BAS[ATNO][  1].a[ 24] =         0.447316000000;     BAS[ATNO][  1].d[ 24] =         0.256833424234;
  BAS[ATNO][  1].a[ 25] =         0.164206000000;     BAS[ATNO][  1].d[ 25] =        -0.517965120514;
  BAS[ATNO][  1].a[ 26] =         0.057472000000;     BAS[ATNO][  1].d[ 26] =        -0.027508258514;
  BAS[ATNO][  1].a[ 27] =      1149.270500000000;     BAS[ATNO][  1].d[ 27] =         0.000234616090;
  BAS[ATNO][  1].a[ 28] =       172.044570000000;     BAS[ATNO][  1].d[ 28] =         0.005203190634;
  BAS[ATNO][  1].a[ 29] =        39.080465000000;     BAS[ATNO][  1].d[ 29] =         0.009643953505;
  BAS[ATNO][  1].a[ 30] =        11.036173000000;     BAS[ATNO][  1].d[ 30] =         0.354127995904;
  BAS[ATNO][  1].a[ 31] =         3.564152000000;     BAS[ATNO][  1].d[ 31] =         0.005034606900;
  BAS[ATNO][  1].a[ 32] =         1.240443000000;     BAS[ATNO][  1].d[ 32] =        -0.961088217588;
  BAS[ATNO][  1].a[ 33] =         0.447316000000;     BAS[ATNO][  1].d[ 33] =         1.262842220791;
  BAS[ATNO][  1].a[ 34] =         0.164206000000;     BAS[ATNO][  1].d[ 34] =        -0.446247817464;
  BAS[ATNO][  1].a[ 35] =         0.057472000000;     BAS[ATNO][  1].d[ 35] =        -0.270270282802;
  BAS[ATNO][  1].a[ 36] =      1149.270500000000;     BAS[ATNO][  1].d[ 36] =        -0.000144775014;
  BAS[ATNO][  1].a[ 37] =       172.044570000000;     BAS[ATNO][  1].d[ 37] =        -0.002090070768;
  BAS[ATNO][  1].a[ 38] =        39.080465000000;     BAS[ATNO][  1].d[ 38] =        -0.011461180852;
  BAS[ATNO][  1].a[ 39] =        11.036173000000;     BAS[ATNO][  1].d[ 39] =        -0.227970816262;
  BAS[ATNO][  1].a[ 40] =         3.564152000000;     BAS[ATNO][  1].d[ 40] =         0.405051788301;
  BAS[ATNO][  1].a[ 41] =         1.240443000000;     BAS[ATNO][  1].d[ 41] =        -0.302037157036;
  BAS[ATNO][  1].a[ 42] =         0.447316000000;     BAS[ATNO][  1].d[ 42] =         0.021709059257;
  BAS[ATNO][  1].a[ 43] =         0.164206000000;     BAS[ATNO][  1].d[ 43] =         0.216767692187;
  BAS[ATNO][  1].a[ 44] =         0.057472000000;     BAS[ATNO][  1].d[ 44] =        -0.191035647614;

  // Basis function   3 L = s
  InitBFNGauss(BAS[ATNO][  2]);
  BAS[ATNO][  2].l  = 0;
  BAS[ATNO][  2].ng = 45;
  BAS[ATNO][  2].a[  0] =      1149.270500000000;     BAS[ATNO][  2].d[  0] =        -0.000002652920;
  BAS[ATNO][  2].a[  1] =       172.044570000000;     BAS[ATNO][  2].d[  1] =        -0.000020563130;
  BAS[ATNO][  2].a[  2] =        39.080465000000;     BAS[ATNO][  2].d[  2] =        -0.000106033575;
  BAS[ATNO][  2].a[  3] =        11.036173000000;     BAS[ATNO][  2].d[  3] =        -0.000414300760;
  BAS[ATNO][  2].a[  4] =         3.564152000000;     BAS[ATNO][  2].d[  4] =        -0.001211462136;
  BAS[ATNO][  2].a[  5] =         1.240443000000;     BAS[ATNO][  2].d[  5] =        -0.002457079702;
  BAS[ATNO][  2].a[  6] =         0.447316000000;     BAS[ATNO][  2].d[  6] =        -0.003072335592;
  BAS[ATNO][  2].a[  7] =         0.164206000000;     BAS[ATNO][  2].d[  7] =        -0.001401820939;
  BAS[ATNO][  2].a[  8] =         0.057472000000;     BAS[ATNO][  2].d[  8] =        -0.000038236183;
  BAS[ATNO][  2].a[  9] =      1149.270500000000;     BAS[ATNO][  2].d[  9] =        -0.000371515985;
  BAS[ATNO][  2].a[ 10] =       172.044570000000;     BAS[ATNO][  2].d[ 10] =        -0.002823829562;
  BAS[ATNO][  2].a[ 11] =        39.080465000000;     BAS[ATNO][  2].d[ 11] =        -0.015810364753;
  BAS[ATNO][  2].a[ 12] =        11.036173000000;     BAS[ATNO][  2].d[ 12] =        -0.071856414765;
  BAS[ATNO][  2].a[ 13] =         3.564152000000;     BAS[ATNO][  2].d[ 13] =        -0.320480779153;
  BAS[ATNO][  2].a[ 14] =         1.240443000000;     BAS[ATNO][  2].d[ 14] =        -0.424285328012;
  BAS[ATNO][  2].a[ 15] =         0.447316000000;     BAS[ATNO][  2].d[ 15] =         0.400022701539;
  BAS[ATNO][  2].a[ 16] =         0.164206000000;     BAS[ATNO][  2].d[ 16] =         0.383407443835;
  BAS[ATNO][  2].a[ 17] =         0.057472000000;     BAS[ATNO][  2].d[ 17] =         0.008163409092;
  BAS[ATNO][  2].a[ 18] =      1149.270500000000;     BAS[ATNO][  2].d[ 18] =        -0.000138524241;
  BAS[ATNO][  2].a[ 19] =       172.044570000000;     BAS[ATNO][  2].d[ 19] =        -0.001384769166;
  BAS[ATNO][  2].a[ 20] =        39.080465000000;     BAS[ATNO][  2].d[ 20] =        -0.006138465383;
  BAS[ATNO][  2].a[ 21] =        11.036173000000;     BAS[ATNO][  2].d[ 21] =        -0.063225769097;
  BAS[ATNO][  2].a[ 22] =         3.564152000000;     BAS[ATNO][  2].d[ 22] =        -0.197298231828;
  BAS[ATNO][  2].a[ 23] =         1.240443000000;     BAS[ATNO][  2].d[ 23] =         0.253469670067;
  BAS[ATNO][  2].a[ 24] =         0.447316000000;     BAS[ATNO][  2].d[ 24] =         0.092800401912;
  BAS[ATNO][  2].a[ 25] =         0.164206000000;     BAS[ATNO][  2].d[ 25] =        -0.187153878057;
  BAS[ATNO][  2].a[ 26] =         0.057472000000;     BAS[ATNO][  2].d[ 26] =        -0.009939428459;
  BAS[ATNO][  2].a[ 27] =      1149.270500000000;     BAS[ATNO][  2].d[ 27] =         0.000294404939;
  BAS[ATNO][  2].a[ 28] =       172.044570000000;     BAS[ATNO][  2].d[ 28] =         0.006529155870;
  BAS[ATNO][  2].a[ 29] =        39.080465000000;     BAS[ATNO][  2].d[ 29] =         0.012101589211;
  BAS[ATNO][  2].a[ 30] =        11.036173000000;     BAS[ATNO][  2].d[ 30] =         0.444372894602;
  BAS[ATNO][  2].a[ 31] =         3.564152000000;     BAS[ATNO][  2].d[ 31] =         0.006317610771;
  BAS[ATNO][  2].a[ 32] =         1.240443000000;     BAS[ATNO][  2].d[ 32] =        -1.206009008487;
  BAS[ATNO][  2].a[ 33] =         0.447316000000;     BAS[ATNO][  2].d[ 33] =         1.584661081783;
  BAS[ATNO][  2].a[ 34] =         0.164206000000;     BAS[ATNO][  2].d[ 34] =        -0.559968250604;
  BAS[ATNO][  2].a[ 35] =         0.057472000000;     BAS[ATNO][  2].d[ 35] =        -0.339145137585;
  BAS[ATNO][  2].a[ 36] =      1149.270500000000;     BAS[ATNO][  2].d[ 36] =        -0.000268106376;
  BAS[ATNO][  2].a[ 37] =       172.044570000000;     BAS[ATNO][  2].d[ 37] =        -0.003870566377;
  BAS[ATNO][  2].a[ 38] =        39.080465000000;     BAS[ATNO][  2].d[ 38] =        -0.021224765170;
  BAS[ATNO][  2].a[ 39] =        11.036173000000;     BAS[ATNO][  2].d[ 39] =        -0.422175263026;
  BAS[ATNO][  2].a[ 40] =         3.564152000000;     BAS[ATNO][  2].d[ 40] =         0.750108492258;
  BAS[ATNO][  2].a[ 41] =         1.240443000000;     BAS[ATNO][  2].d[ 41] =        -0.559337455145;
  BAS[ATNO][  2].a[ 42] =         0.447316000000;     BAS[ATNO][  2].d[ 42] =         0.040202636250;
  BAS[ATNO][  2].a[ 43] =         0.164206000000;     BAS[ATNO][  2].d[ 43] =         0.401428388796;
  BAS[ATNO][  2].a[ 44] =         0.057472000000;     BAS[ATNO][  2].d[ 44] =        -0.353775654714;

  // Basis function   4 L = s
  InitBFNGauss(BAS[ATNO][  3]);
  BAS[ATNO][  3].l  = 0;
  BAS[ATNO][  3].ng = 45;
  BAS[ATNO][  3].a[  0] =      1149.270500000000;     BAS[ATNO][  3].d[  0] =        -0.000000354497;
  BAS[ATNO][  3].a[  1] =       172.044570000000;     BAS[ATNO][  3].d[  1] =        -0.000002747754;
  BAS[ATNO][  3].a[  2] =        39.080465000000;     BAS[ATNO][  3].d[  2] =        -0.000014168766;
  BAS[ATNO][  3].a[  3] =        11.036173000000;     BAS[ATNO][  3].d[  3] =        -0.000055361054;
  BAS[ATNO][  3].a[  4] =         3.564152000000;     BAS[ATNO][  3].d[  4] =        -0.000161881965;
  BAS[ATNO][  3].a[  5] =         1.240443000000;     BAS[ATNO][  3].d[  5] =        -0.000328327959;
  BAS[ATNO][  3].a[  6] =         0.447316000000;     BAS[ATNO][  3].d[  6] =        -0.000410541699;
  BAS[ATNO][  3].a[  7] =         0.164206000000;     BAS[ATNO][  3].d[  7] =        -0.000187318713;
  BAS[ATNO][  3].a[  8] =         0.057472000000;     BAS[ATNO][  3].d[  8] =        -0.000005109321;
  BAS[ATNO][  3].a[  9] =      1149.270500000000;     BAS[ATNO][  3].d[  9] =         0.000145300436;
  BAS[ATNO][  3].a[ 10] =       172.044570000000;     BAS[ATNO][  3].d[ 10] =         0.001104403805;
  BAS[ATNO][  3].a[ 11] =        39.080465000000;     BAS[ATNO][  3].d[ 11] =         0.006183456407;
  BAS[ATNO][  3].a[ 12] =        11.036173000000;     BAS[ATNO][  3].d[ 12] =         0.028103147221;
  BAS[ATNO][  3].a[ 13] =         3.564152000000;     BAS[ATNO][  3].d[ 13] =         0.125340493920;
  BAS[ATNO][  3].a[ 14] =         1.240443000000;     BAS[ATNO][  3].d[ 14] =         0.165938602360;
  BAS[ATNO][  3].a[ 15] =         0.447316000000;     BAS[ATNO][  3].d[ 15] =        -0.156449454231;
  BAS[ATNO][  3].a[ 16] =         0.164206000000;     BAS[ATNO][  3].d[ 16] =        -0.149951203033;
  BAS[ATNO][  3].a[ 17] =         0.057472000000;     BAS[ATNO][  3].d[ 17] =        -0.003192721043;
  BAS[ATNO][  3].a[ 18] =      1149.270500000000;     BAS[ATNO][  3].d[ 18] =         0.000544640555;
  BAS[ATNO][  3].a[ 19] =       172.044570000000;     BAS[ATNO][  3].d[ 19] =         0.005444544885;
  BAS[ATNO][  3].a[ 20] =        39.080465000000;     BAS[ATNO][  3].d[ 20] =         0.024134816924;
  BAS[ATNO][  3].a[ 21] =        11.036173000000;     BAS[ATNO][  3].d[ 21] =         0.248586945902;
  BAS[ATNO][  3].a[ 22] =         3.564152000000;     BAS[ATNO][  3].d[ 22] =         0.775724290622;
  BAS[ATNO][  3].a[ 23] =         1.240443000000;     BAS[ATNO][  3].d[ 23] =        -0.996575479594;
  BAS[ATNO][  3].a[ 24] =         0.447316000000;     BAS[ATNO][  3].d[ 24] =        -0.364866553924;
  BAS[ATNO][  3].a[ 25] =         0.164206000000;     BAS[ATNO][  3].d[ 25] =         0.735839383595;
  BAS[ATNO][  3].a[ 26] =         0.057472000000;     BAS[ATNO][  3].d[ 26] =         0.039079195079;
  BAS[ATNO][  3].a[ 27] =      1149.270500000000;     BAS[ATNO][  3].d[ 27] =         0.000159133601;
  BAS[ATNO][  3].a[ 28] =       172.044570000000;     BAS[ATNO][  3].d[ 28] =         0.003529180212;
  BAS[ATNO][  3].a[ 29] =        39.080465000000;     BAS[ATNO][  3].d[ 29] =         0.006541226772;
  BAS[ATNO][  3].a[ 30] =        11.036173000000;     BAS[ATNO][  3].d[ 30] =         0.240195219340;
  BAS[ATNO][  3].a[ 31] =         3.564152000000;     BAS[ATNO][  3].d[ 31] =         0.003414834531;
  BAS[ATNO][  3].a[ 32] =         1.240443000000;     BAS[ATNO][  3].d[ 32] =        -0.651879540444;
  BAS[ATNO][  3].a[ 33] =         0.447316000000;     BAS[ATNO][  3].d[ 33] =         0.856550929954;
  BAS[ATNO][  3].a[ 34] =         0.164206000000;     BAS[ATNO][  3].d[ 34] =        -0.302677544942;
  BAS[ATNO][  3].a[ 35] =         0.057472000000;     BAS[ATNO][  3].d[ 35] =        -0.183316853255;
  BAS[ATNO][  3].a[ 36] =      1149.270500000000;     BAS[ATNO][  3].d[ 36] =        -0.000433412093;
  BAS[ATNO][  3].a[ 37] =       172.044570000000;     BAS[ATNO][  3].d[ 37] =        -0.006257032369;
  BAS[ATNO][  3].a[ 38] =        39.080465000000;     BAS[ATNO][  3].d[ 38] =        -0.034311268628;
  BAS[ATNO][  3].a[ 39] =        11.036173000000;     BAS[ATNO][  3].d[ 39] =        -0.682474870363;
  BAS[ATNO][  3].a[ 40] =         3.564152000000;     BAS[ATNO][  3].d[ 40] =         1.212601118177;
  BAS[ATNO][  3].a[ 41] =         1.240443000000;     BAS[ATNO][  3].d[ 41] =        -0.904206832141;
  BAS[ATNO][  3].a[ 42] =         0.447316000000;     BAS[ATNO][  3].d[ 42] =         0.064990280971;
  BAS[ATNO][  3].a[ 43] =         0.164206000000;     BAS[ATNO][  3].d[ 43] =         0.648936144765;
  BAS[ATNO][  3].a[ 44] =         0.057472000000;     BAS[ATNO][  3].d[ 44] =        -0.571902276693;

  // Basis function   5 L = s
  InitBFNGauss(BAS[ATNO][  4]);
  BAS[ATNO][  4].l  = 0;
  BAS[ATNO][  4].ng = 45;
  BAS[ATNO][  4].a[  0] =      1149.270500000000;     BAS[ATNO][  4].d[  0] =         0.000000338502;
  BAS[ATNO][  4].a[  1] =       172.044570000000;     BAS[ATNO][  4].d[  1] =         0.000002623772;
  BAS[ATNO][  4].a[  2] =        39.080465000000;     BAS[ATNO][  4].d[  2] =         0.000013529454;
  BAS[ATNO][  4].a[  3] =        11.036173000000;     BAS[ATNO][  4].d[  3] =         0.000052863095;
  BAS[ATNO][  4].a[  4] =         3.564152000000;     BAS[ATNO][  4].d[  4] =         0.000154577650;
  BAS[ATNO][  4].a[  5] =         1.240443000000;     BAS[ATNO][  4].d[  5] =         0.000313513395;
  BAS[ATNO][  4].a[  6] =         0.447316000000;     BAS[ATNO][  4].d[  6] =         0.000392017548;
  BAS[ATNO][  4].a[  7] =         0.164206000000;     BAS[ATNO][  4].d[  7] =         0.000178866661;
  BAS[ATNO][  4].a[  8] =         0.057472000000;     BAS[ATNO][  4].d[  8] =         0.000004878782;
  BAS[ATNO][  4].a[  9] =      1149.270500000000;     BAS[ATNO][  4].d[  9] =        -0.000018133493;
  BAS[ATNO][  4].a[ 10] =       172.044570000000;     BAS[ATNO][  4].d[ 10] =        -0.000137829585;
  BAS[ATNO][  4].a[ 11] =        39.080465000000;     BAS[ATNO][  4].d[ 11] =        -0.000771695304;
  BAS[ATNO][  4].a[ 12] =        11.036173000000;     BAS[ATNO][  4].d[ 12] =        -0.003507272520;
  BAS[ATNO][  4].a[ 13] =         3.564152000000;     BAS[ATNO][  4].d[ 13] =        -0.015642492512;
  BAS[ATNO][  4].a[ 14] =         1.240443000000;     BAS[ATNO][  4].d[ 14] =        -0.020709136080;
  BAS[ATNO][  4].a[ 15] =         0.447316000000;     BAS[ATNO][  4].d[ 15] =         0.019524890479;
  BAS[ATNO][  4].a[ 16] =         0.164206000000;     BAS[ATNO][  4].d[ 16] =         0.018713908788;
  BAS[ATNO][  4].a[ 17] =         0.057472000000;     BAS[ATNO][  4].d[ 17] =         0.000398451557;
  BAS[ATNO][  4].a[ 18] =      1149.270500000000;     BAS[ATNO][  4].d[ 18] =        -0.000186440071;
  BAS[ATNO][  4].a[ 19] =       172.044570000000;     BAS[ATNO][  4].d[ 19] =        -0.001863763771;
  BAS[ATNO][  4].a[ 20] =        39.080465000000;     BAS[ATNO][  4].d[ 20] =        -0.008261773636;
  BAS[ATNO][  4].a[ 21] =        11.036173000000;     BAS[ATNO][  4].d[ 21] =        -0.085095697322;
  BAS[ATNO][  4].a[ 22] =         3.564152000000;     BAS[ATNO][  4].d[ 22] =        -0.265544110534;
  BAS[ATNO][  4].a[ 23] =         1.240443000000;     BAS[ATNO][  4].d[ 23] =         0.341145368926;
  BAS[ATNO][  4].a[ 24] =         0.447316000000;     BAS[ATNO][  4].d[ 24] =         0.124900258631;
  BAS[ATNO][  4].a[ 25] =         0.164206000000;     BAS[ATNO][  4].d[ 25] =        -0.251890803182;
  BAS[ATNO][  4].a[ 26] =         0.057472000000;     BAS[ATNO][  4].d[ 26] =        -0.013377497937;
  BAS[ATNO][  4].a[ 27] =      1149.270500000000;     BAS[ATNO][  4].d[ 27] =        -0.000236473663;
  BAS[ATNO][  4].a[ 28] =       172.044570000000;     BAS[ATNO][  4].d[ 28] =        -0.005244386889;
  BAS[ATNO][  4].a[ 29] =        39.080465000000;     BAS[ATNO][  4].d[ 29] =        -0.009720309493;
  BAS[ATNO][  4].a[ 30] =        11.036173000000;     BAS[ATNO][  4].d[ 30] =        -0.356931803819;
  BAS[ATNO][  4].a[ 31] =         3.564152000000;     BAS[ATNO][  4].d[ 31] =        -0.005074468393;
  BAS[ATNO][  4].a[ 32] =         1.240443000000;     BAS[ATNO][  4].d[ 32] =         0.968697632215;
  BAS[ATNO][  4].a[ 33] =         0.447316000000;     BAS[ATNO][  4].d[ 33] =        -1.272840772318;
  BAS[ATNO][  4].a[ 34] =         0.164206000000;     BAS[ATNO][  4].d[ 34] =         0.449780983938;
  BAS[ATNO][  4].a[ 35] =         0.057472000000;     BAS[ATNO][  4].d[ 35] =         0.272410147390;
  BAS[ATNO][  4].a[ 36] =      1149.270500000000;     BAS[ATNO][  4].d[ 36] =        -0.000769113021;
  BAS[ATNO][  4].a[ 37] =       172.044570000000;     BAS[ATNO][  4].d[ 37] =        -0.011103439758;
  BAS[ATNO][  4].a[ 38] =        39.080465000000;     BAS[ATNO][  4].d[ 38] =        -0.060887187690;
  BAS[ATNO][  4].a[ 39] =        11.036173000000;     BAS[ATNO][  4].d[ 39] =        -1.211088286358;
  BAS[ATNO][  4].a[ 40] =         3.564152000000;     BAS[ATNO][  4].d[ 40] =         2.151825765344;
  BAS[ATNO][  4].a[ 41] =         1.240443000000;     BAS[ATNO][  4].d[ 41] =        -1.604563553040;
  BAS[ATNO][  4].a[ 42] =         0.447316000000;     BAS[ATNO][  4].d[ 42] =         0.115328741656;
  BAS[ATNO][  4].a[ 43] =         0.164206000000;     BAS[ATNO][  4].d[ 43] =         1.151572017737;
  BAS[ATNO][  4].a[ 44] =         0.057472000000;     BAS[ATNO][  4].d[ 44] =        -1.014871284383;

  // Basis function   6 L = p
  InitBFNGauss(BAS[ATNO][  5]);
  BAS[ATNO][  5].l  = 1;
  BAS[ATNO][  5].ng = 16;
  BAS[ATNO][  5].a[  0] =         4.550000000000;     BAS[ATNO][  5].d[  0] =         0.061915008750;
  BAS[ATNO][  5].a[  1] =         1.592500000000;     BAS[ATNO][  5].d[  1] =         0.263932890739;
  BAS[ATNO][  5].a[  2] =         0.557375000000;     BAS[ATNO][  5].d[  2] =         0.311531617014;
  BAS[ATNO][  5].a[  3] =         0.195081000000;     BAS[ATNO][  5].d[  3] =         0.192593088165;
  BAS[ATNO][  5].a[  4] =         4.550000000000;     BAS[ATNO][  5].d[  4] =        -0.129793623465;
  BAS[ATNO][  5].a[  5] =         1.592500000000;     BAS[ATNO][  5].d[  5] =        -0.355690550818;
  BAS[ATNO][  5].a[  6] =         0.557375000000;     BAS[ATNO][  5].d[  6] =        -0.137728247869;
  BAS[ATNO][  5].a[  7] =         0.195081000000;     BAS[ATNO][  5].d[  7] =         0.692204688922;
  BAS[ATNO][  5].a[  8] =         4.550000000000;     BAS[ATNO][  5].d[  8] =         0.151357156511;
  BAS[ATNO][  5].a[  9] =         1.592500000000;     BAS[ATNO][  5].d[  9] =         0.019345540254;
  BAS[ATNO][  5].a[ 10] =         0.557375000000;     BAS[ATNO][  5].d[ 10] =        -0.223755665082;
  BAS[ATNO][  5].a[ 11] =         0.195081000000;     BAS[ATNO][  5].d[ 11] =         0.159774200629;
  BAS[ATNO][  5].a[ 12] =         4.550000000000;     BAS[ATNO][  5].d[ 12] =        -0.092374776546;
  BAS[ATNO][  5].a[ 13] =         1.592500000000;     BAS[ATNO][  5].d[ 13] =         0.157606347585;
  BAS[ATNO][  5].a[ 14] =         0.557375000000;     BAS[ATNO][  5].d[ 14] =        -0.136395607638;
  BAS[ATNO][  5].a[ 15] =         0.195081000000;     BAS[ATNO][  5].d[ 15] =         0.060489514950;

  // Basis function   7 L = p
  InitBFNGauss(BAS[ATNO][  6]);
  BAS[ATNO][  6].l  = 1;
  BAS[ATNO][  6].ng = 16;
  BAS[ATNO][  6].a[  0] =         4.550000000000;     BAS[ATNO][  6].d[  0] =         0.057140325973;
  BAS[ATNO][  6].a[  1] =         1.592500000000;     BAS[ATNO][  6].d[  1] =         0.243579250273;
  BAS[ATNO][  6].a[  2] =         0.557375000000;     BAS[ATNO][  6].d[  2] =         0.287507318607;
  BAS[ATNO][  6].a[  3] =         0.195081000000;     BAS[ATNO][  6].d[  3] =         0.177740939720;
  BAS[ATNO][  6].a[  4] =         4.550000000000;     BAS[ATNO][  6].d[  4] =         0.088877311660;
  BAS[ATNO][  6].a[  5] =         1.592500000000;     BAS[ATNO][  6].d[  5] =         0.243562195859;
  BAS[ATNO][  6].a[  6] =         0.557375000000;     BAS[ATNO][  6].d[  6] =         0.094310614678;
  BAS[ATNO][  6].a[  7] =         0.195081000000;     BAS[ATNO][  6].d[  7] =        -0.473993176455;
  BAS[ATNO][  6].a[  8] =         4.550000000000;     BAS[ATNO][  6].d[  8] =        -0.458246865323;
  BAS[ATNO][  6].a[  9] =         1.592500000000;     BAS[ATNO][  6].d[  9] =        -0.058570294155;
  BAS[ATNO][  6].a[ 10] =         0.557375000000;     BAS[ATNO][  6].d[ 10] =         0.677439603687;
  BAS[ATNO][  6].a[ 11] =         0.195081000000;     BAS[ATNO][  6].d[ 11] =        -0.483730193441;
  BAS[ATNO][  6].a[ 12] =         4.550000000000;     BAS[ATNO][  6].d[ 12] =         0.385105419386;
  BAS[ATNO][  6].a[ 13] =         1.592500000000;     BAS[ATNO][  6].d[ 13] =        -0.657052291267;
  BAS[ATNO][  6].a[ 14] =         0.557375000000;     BAS[ATNO][  6].d[ 14] =         0.568625870027;
  BAS[ATNO][  6].a[ 15] =         0.195081000000;     BAS[ATNO][  6].d[ 15] =        -0.252177497955;

  // Basis function   8 L = p
  InitBFNGauss(BAS[ATNO][  7]);
  BAS[ATNO][  7].l  = 1;
  BAS[ATNO][  7].ng = 16;
  BAS[ATNO][  7].a[  0] =         4.550000000000;     BAS[ATNO][  7].d[  0] =         0.028939423903;
  BAS[ATNO][  7].a[  1] =         1.592500000000;     BAS[ATNO][  7].d[  1] =         0.123363720061;
  BAS[ATNO][  7].a[  2] =         0.557375000000;     BAS[ATNO][  7].d[  2] =         0.145611632881;
  BAS[ATNO][  7].a[  3] =         0.195081000000;     BAS[ATNO][  7].d[  3] =         0.090019094428;
  BAS[ATNO][  7].a[  4] =         4.550000000000;     BAS[ATNO][  7].d[  4] =         0.097059163055;
  BAS[ATNO][  7].a[  5] =         1.592500000000;     BAS[ATNO][  7].d[  5] =         0.265984000196;
  BAS[ATNO][  7].a[  6] =         0.557375000000;     BAS[ATNO][  7].d[  6] =         0.102992644094;
  BAS[ATNO][  7].a[  7] =         0.195081000000;     BAS[ATNO][  7].d[  7] =        -0.517627954103;
  BAS[ATNO][  7].a[  8] =         4.550000000000;     BAS[ATNO][  7].d[  8] =         0.480846403484;
  BAS[ATNO][  7].a[  9] =         1.592500000000;     BAS[ATNO][  7].d[  9] =         0.061458828039;
  BAS[ATNO][  7].a[ 10] =         0.557375000000;     BAS[ATNO][  7].d[ 10] =        -0.710849155031;
  BAS[ATNO][  7].a[ 11] =         0.195081000000;     BAS[ATNO][  7].d[ 11] =         0.507586502766;
  BAS[ATNO][  7].a[ 12] =         4.550000000000;     BAS[ATNO][  7].d[ 12] =        -0.773951197944;
  BAS[ATNO][  7].a[ 13] =         1.592500000000;     BAS[ATNO][  7].d[ 13] =         1.320486241787;
  BAS[ATNO][  7].a[ 14] =         0.557375000000;     BAS[ATNO][  7].d[ 14] =        -1.142774552460;
  BAS[ATNO][  7].a[ 15] =         0.195081000000;     BAS[ATNO][  7].d[ 15] =         0.506804284780;

  // Basis function   9 L = p
  InitBFNGauss(BAS[ATNO][  8]);
  BAS[ATNO][  8].l  = 1;
  BAS[ATNO][  8].ng = 16;
  BAS[ATNO][  8].a[  0] =         4.550000000000;     BAS[ATNO][  8].d[  0] =        -0.005610641016;
  BAS[ATNO][  8].a[  1] =         1.592500000000;     BAS[ATNO][  8].d[  1] =        -0.023917184736;
  BAS[ATNO][  8].a[  2] =         0.557375000000;     BAS[ATNO][  8].d[  2] =        -0.028230506680;
  BAS[ATNO][  8].a[  3] =         0.195081000000;     BAS[ATNO][  8].d[  3] =        -0.017452483681;
  BAS[ATNO][  8].a[  4] =         4.550000000000;     BAS[ATNO][  8].d[  4] =        -0.026531518604;
  BAS[ATNO][  8].a[  5] =         1.592500000000;     BAS[ATNO][  8].d[  5] =        -0.072707812713;
  BAS[ATNO][  8].a[  6] =         0.557375000000;     BAS[ATNO][  8].d[  6] =        -0.028153459878;
  BAS[ATNO][  8].a[  7] =         0.195081000000;     BAS[ATNO][  8].d[  7] =         0.141495715209;
  BAS[ATNO][  8].a[  8] =         4.550000000000;     BAS[ATNO][  8].d[  8] =        -0.516457618542;
  BAS[ATNO][  8].a[  9] =         1.592500000000;     BAS[ATNO][  8].d[  9] =        -0.066010434387;
  BAS[ATNO][  8].a[ 10] =         0.557375000000;     BAS[ATNO][  8].d[ 10] =         0.763494244917;
  BAS[ATNO][  8].a[ 11] =         0.195081000000;     BAS[ATNO][  8].d[ 11] =        -0.545178074585;
  BAS[ATNO][  8].a[ 12] =         4.550000000000;     BAS[ATNO][  8].d[ 12] =        -1.089357308222;
  BAS[ATNO][  8].a[ 13] =         1.592500000000;     BAS[ATNO][  8].d[ 13] =         1.858620209802;
  BAS[ATNO][  8].a[ 14] =         0.557375000000;     BAS[ATNO][  8].d[ 14] =        -1.608486185797;
  BAS[ATNO][  8].a[ 15] =         0.195081000000;     BAS[ATNO][  8].d[ 15] =         0.713340780311;

  // Basis function  10 L = d
  InitBFNGauss(BAS[ATNO][  9]);
  BAS[ATNO][  9].l  = 2;
  BAS[ATNO][  9].ng = 9;
  BAS[ATNO][  9].a[  0] =         3.400000000000;     BAS[ATNO][  9].d[  0] =        -0.187270183817;
  BAS[ATNO][  9].a[  1] =         1.360000000000;     BAS[ATNO][  9].d[  1] =        -0.377530066193;
  BAS[ATNO][  9].a[  2] =         0.544000000000;     BAS[ATNO][  9].d[  2] =        -0.202474324675;
  BAS[ATNO][  9].a[  3] =         3.400000000000;     BAS[ATNO][  9].d[  3] =         0.595015471580;
  BAS[ATNO][  9].a[  4] =         1.360000000000;     BAS[ATNO][  9].d[  4] =        -0.115728979458;
  BAS[ATNO][  9].a[  5] =         0.544000000000;     BAS[ATNO][  9].d[  5] =        -0.436966390391;
  BAS[ATNO][  9].a[  6] =         3.400000000000;     BAS[ATNO][  9].d[  6] =        -0.483470699569;
  BAS[ATNO][  9].a[  7] =         1.360000000000;     BAS[ATNO][  9].d[  7] =         0.812632753655;
  BAS[ATNO][  9].a[  8] =         0.544000000000;     BAS[ATNO][  9].d[  8] =        -0.547449520604;

  // Basis function  11 L = d
  InitBFNGauss(BAS[ATNO][ 10]);
  BAS[ATNO][ 10].l  = 2;
  BAS[ATNO][ 10].ng = 9;
  BAS[ATNO][ 10].a[  0] =         3.400000000000;     BAS[ATNO][ 10].d[  0] =         0.195673717091;
  BAS[ATNO][ 10].a[  1] =         1.360000000000;     BAS[ATNO][ 10].d[  1] =         0.394471292013;
  BAS[ATNO][ 10].a[  2] =         0.544000000000;     BAS[ATNO][ 10].d[  2] =         0.211560126216;
  BAS[ATNO][ 10].a[  3] =         3.400000000000;     BAS[ATNO][ 10].d[  3] =         0.318780541076;
  BAS[ATNO][ 10].a[  4] =         1.360000000000;     BAS[ATNO][ 10].d[  4] =        -0.062001995666;
  BAS[ATNO][ 10].a[  5] =         0.544000000000;     BAS[ATNO][ 10].d[  5] =        -0.234105479629;
  BAS[ATNO][ 10].a[  6] =         3.400000000000;     BAS[ATNO][ 10].d[  6] =        -0.757767720532;
  BAS[ATNO][ 10].a[  7] =         1.360000000000;     BAS[ATNO][ 10].d[  7] =         1.273679811240;
  BAS[ATNO][ 10].a[  8] =         0.544000000000;     BAS[ATNO][ 10].d[  8] =        -0.858044915036;

  // Basis function  12 L = d
  InitBFNGauss(BAS[ATNO][ 11]);
  BAS[ATNO][ 11].l  = 2;
  BAS[ATNO][ 11].ng = 9;
  BAS[ATNO][ 11].a[  0] =         3.400000000000;     BAS[ATNO][ 11].d[  0] =        -0.073151711694;
  BAS[ATNO][ 11].a[  1] =         1.360000000000;     BAS[ATNO][ 11].d[  1] =        -0.147471263151;
  BAS[ATNO][ 11].a[  2] =         0.544000000000;     BAS[ATNO][ 11].d[  2] =        -0.079090772072;
  BAS[ATNO][ 11].a[  3] =         3.400000000000;     BAS[ATNO][ 11].d[  3] =        -0.670547390047;
  BAS[ATNO][ 11].a[  4] =         1.360000000000;     BAS[ATNO][ 11].d[  4] =         0.130419743410;
  BAS[ATNO][ 11].a[  5] =         0.544000000000;     BAS[ATNO][ 11].d[  5] =         0.492435384641;
  BAS[ATNO][ 11].a[  6] =         3.400000000000;     BAS[ATNO][ 11].d[  6] =        -0.789256978880;
  BAS[ATNO][ 11].a[  7] =         1.360000000000;     BAS[ATNO][ 11].d[  7] =         1.326607946791;
  BAS[ATNO][ 11].a[  8] =         0.544000000000;     BAS[ATNO][ 11].d[  8] =        -0.893701221410;

  // Basis function  13 L = f
  InitBFNGauss(BAS[ATNO][ 12]);
  BAS[ATNO][ 12].l  = 3;
  BAS[ATNO][ 12].ng = 1;
  BAS[ATNO][ 12].a[  0] =         1.813333000000;     BAS[ATNO][ 12].d[  0] =         1.000000000000;

-------
TIMINGS
-------

Total SCF time: 0 days 0 hours 0 min 1 sec 

Total time                  ....       1.314 sec
Sum of individual times     ....       1.115 sec  ( 84.9%)

Fock matrix formation       ....       0.878 sec  ( 66.8%)
  XC integration            ....       0.014 sec  (  1.6% of F)
    Basis function eval.    ....       0.003 sec  ( 23.6% of XC)
    Density eval.           ....       0.001 sec  (  4.8% of XC)
    XC-Functional eval.     ....       0.001 sec  (  7.3% of XC)
    XC-Potential eval.      ....       0.001 sec  (  5.2% of XC)
Diagonalization             ....       0.000 sec  (  0.0%)
Density matrix formation    ....       0.000 sec  (  0.0%)
Population analysis         ....       0.001 sec  (  0.0%)
Initial guess               ....       0.095 sec  (  7.2%)
Orbital Transformation      ....       0.000 sec  (  0.0%)
Orbital Orthonormalization  ....       0.000 sec  (  0.0%)
DIIS solution               ....       0.000 sec  (  0.0%)
SOSCF solution              ....       0.001 sec  (  0.1%)
Grid generation             ....       0.140 sec  ( 10.7%)

-------------------------   --------------------
FINAL SINGLE POINT ENERGY        -2.834787317198
-------------------------   --------------------


                            ***************************************
                            *     ORCA property calculations      *
                            ***************************************

                                    ---------------------
                                    Active property flags
                                    ---------------------
   (+) Dipole Moment


------------------------------------------------------------------------------
                       ORCA ELECTRIC PROPERTIES CALCULATION
------------------------------------------------------------------------------

Dipole Moment Calculation                       ... on
Quadrupole Moment Calculation                   ... off
Polarizability Calculation                      ... off
GBWName                                         ... He_ano-rcc-qzp_2192.575824_.gbw
Electron density file                           ... He_ano-rcc-qzp_2192.575824_.scfp
The origin for moment calculation is the CENTER OF MASS  = ( 0.000000,  0.000000  0.000000)

-------------
DIPOLE MOMENT
-------------
                                X             Y             Z
Electronic contribution:      0.00000       0.00000      -0.00000
Nuclear contribution   :      0.00000       0.00000       0.00000
                        -----------------------------------------
Total Dipole Moment    :      0.00000       0.00000      -0.00000
                        -----------------------------------------
Magnitude (a.u.)       :      0.00000
Magnitude (Debye)      :      0.00000



--------------------
Rotational spectrum 
--------------------
 
Rotational constants in cm-1:     0.000000     0.000000     0.000000 
Rotational constants in MHz :     0.000000     0.000000     0.000000 

 Dipole components along the rotational axes: 
x,y,z [a.u.] :     0.000000     0.000000    -0.000000 
x,y,z [Debye]:     0.000000     0.000000    -0.000000 

 

Timings for individual modules:

Sum of individual times         ...        2.201 sec (=   0.037 min)
GTO integral calculation        ...        0.330 sec (=   0.006 min)  15.0 %
Relativistic integrals          ...        0.285 sec (=   0.005 min)  13.0 %
SCF iterations                  ...        1.586 sec (=   0.026 min)  72.0 %
                             ****ORCA TERMINATED NORMALLY****
TOTAL RUN TIME: 0 days 0 hours 0 minutes 2 seconds 522 msec
