
                                 *****************
                                 * O   R   C   A *
                                 *****************

           --- An Ab Initio, DFT and Semiempirical electronic structure package ---

                  #######################################################
                  #                        -***-                        #
                  #          Department of theory and spectroscopy      #
                  #               Directorship: Frank Neese             #
                  #        Max Planck Institute fuer Kohlenforschung    #
                  #                Kaiser Wilhelm Platz 1               #
                  #                 D-45470 Muelheim/Ruhr               #
                  #                      Germany                        #
                  #                                                     #
                  #                  All rights reserved                #
                  #                        -***-                        #
                  #######################################################


                         Program Version 4.2.1 -  RELEASE  -


 With contributions from (in alphabetic order):
   Daniel Aravena         : Magnetic Suceptibility
   Michael Atanasov       : Ab Initio Ligand Field Theory (pilot matlab implementation)
   Alexander A. Auer      : GIAO ZORA, VPT2
   Ute Becker             : Parallelization
   Giovanni Bistoni       : ED, misc. LED, open-shell LED, HFLD
   Martin Brehm           : Molecular dynamics
   Dmytro Bykov           : SCF Hessian
   Vijay G. Chilkuri      : MRCI spin determinant printing, contributions to CSF-ICE
   Dipayan Datta          : RHF DLPNO-CCSD density
   Achintya Kumar Dutta   : EOM-CC, STEOM-CC
   Dmitry Ganyushin       : Spin-Orbit,Spin-Spin,Magnetic field MRCI
   Miquel Garcia          : C-PCM Hessian, Gaussian charge scheme
   Yang Guo               : DLPNO-NEVPT2, CIM, IAO-localization
   Andreas Hansen         : Spin unrestricted coupled pair/coupled cluster methods
   Benjamin Helmich-Paris : CASSCF linear response (MC-RPA)
   Lee Huntington         : MR-EOM, pCC
   Robert Izsak           : Overlap fitted RIJCOSX, COSX-SCS-MP3, EOM
   Christian Kollmar      : KDIIS, OOCD, Brueckner-CCSD(T), CCSD density
   Simone Kossmann        : Meta GGA functionals, TD-DFT gradient, OOMP2, MP2 Hessian
   Martin Krupicka        : AUTO-CI
   Lucas Lang             : DCDCAS
   Dagmar Lenk            : GEPOL surface, SMD
   Dimitrios Liakos       : Extrapolation schemes; Compound Job, initial MDCI parallelization
   Dimitrios Manganas     : Further ROCIS development; embedding schemes
   Dimitrios Pantazis     : SARC Basis sets
   Taras Petrenko         : DFT Hessian,TD-DFT gradient, ASA, ECA, R-Raman, ABS, FL, XAS/XES, NRVS
   Peter Pinski           : DLPNO-MP2, DLPNO-MP2 Gradient
   Christoph Reimann      : Effective Core Potentials
   Marius Retegan         : Local ZFS, SOC
   Christoph Riplinger    : Optimizer, TS searches, QM/MM, DLPNO-CCSD(T), (RO)-DLPNO pert. Triples
   Tobias Risthaus        : Range-separated hybrids, TD-DFT gradient, RPA, STAB
   Michael Roemelt        : Original ROCIS implementation
   Masaaki Saitow         : Open-shell DLPNO-CCSD energy and density
   Barbara Sandhoefer     : DKH picture change effects
   Avijit Sen             : IP-ROCIS
   Kantharuban Sivalingam : CASSCF convergence, NEVPT2, FIC-MRCI
   Bernardo de Souza      : ESD, SOC TD-DFT
   Georgi Stoychev        : AutoAux, RI-MP2 NMR
   Willem Van den Heuvel  : Paramagnetic NMR
   Boris Wezisla          : Elementary symmetry handling
   Frank Wennmohs         : Technical directorship


 We gratefully acknowledge several colleagues who have allowed us to
 interface, adapt or use parts of their codes:
   Stefan Grimme, W. Hujo, H. Kruse,             : VdW corrections, initial TS optimization,
                  C. Bannwarth                     DFT functionals, gCP, sTDA/sTD-DF
   Ed Valeev, F. Pavosevic, A. Kumar             : LibInt (2-el integral package), F12 methods
   Garnet Chan, S. Sharma, J. Yang, R. Olivares  : DMRG
   Ulf Ekstrom                                   : XCFun DFT Library
   Mihaly Kallay                                 : mrcc  (arbitrary order and MRCC methods)
   Andreas Klamt, Michael Diedenhofen            : otool_cosmo (COSMO solvation model)
   Jiri Pittner, Ondrej Demel                    : Mk-CCSD
   Frank Weinhold                                : gennbo (NPA and NBO analysis)
   Christopher J. Cramer and Donald G. Truhlar   : smd solvation model
   Lars Goerigk                                  : TD-DFT with DH, B97 family of functionals
   V. Asgeirsson, H. Jonsson                     : NEB implementation
   FAccTs GmbH                                   : IRC, NEB, NEB-TS, Multilevel, MM, QM/MM, CI optimization
   S Lehtola, MJT Oliveira, MAL Marques          : LibXC Library


 Your calculation uses the libint2 library for the computation of 2-el integrals
 For citations please refer to: http://libint.valeyev.net

 Your ORCA version has been built with support for libXC version: 4.2.3
 For citations please refer to: https://tddft.org/programs/libxc/

 This ORCA versions uses:
   CBLAS   interface :  Fast vector & matrix operations
   LAPACKE interface :  Fast linear algebra routines
   SCALAPACK package :  Parallel linear algebra routines


----- Orbital basis set information -----
Your calculation utilizes the basis: ANO-RCC-QZP
   H, He:       P.-O. Widmark, P.-A. Malmqvist, and B. O. Roos, Theor. Chim. Acta 77, 291 (1990).
   s block:     B. O. Roos, V. Veryazov and P.-O. Widmark, Theor. Chem. Acc. 111, 345 (2004).
   p block:     B. O. Roos, R. Lindh, P.-A. Malmqvist, V. Veryazov, and P.-O. Widmark, J. Phys. Chem. A 108, 2851 (2004).
   d block:     B. O. Roos, R. Lindh, P.-A. Malmqvist, V. Veryazov, and P.-O. Widmark, J. Phys. Chem. A 109, 6575 (2005).
   actinides:   B. O. Roos, R. Lindh, P.-A. Malmqvist, V. Veryazov, and P.-O. Widmark, Chem. Phys. Letters 409, 295 (2005).
   lanthanides: B. O. Roos, R. Lindh, P.-A. Malmqvist, V. Veryazov, P.-O. Widmark and A. C. Borin, J. Phys. Chem. A 112, 11431 (2008).

================================================================================
                                        WARNINGS
                       Please study these warnings very carefully!
================================================================================


INFO   : the flag for use of LIBINT has been found!

================================================================================
                                       INPUT FILE
================================================================================
NAME = He_ano-rcc-qzp_68.5179945_.inp
|  1> ! LDA ano-rcc-qzp nori grid5 finalgrid6 verytightscf
|  2> %Pal NProcs 18 End
|  3> 
|  4> % REL
|  5>   Method ZORA
|  6>   ModelPot 1, 0, 0, 0
|  7>   velit 68.5179945
|  8> END
|  9> 
| 10> *xyz 0 1
| 11> He 0.0 0.0 0.0
| 12> **                         ****END OF INPUT****
================================================================================

                       ****************************
                       * Single Point Calculation *
                       ****************************

---------------------------------
CARTESIAN COORDINATES (ANGSTROEM)
---------------------------------
  He     0.000000    0.000000    0.000000

----------------------------
CARTESIAN COORDINATES (A.U.)
----------------------------
  NO LB      ZA    FRAG     MASS         X           Y           Z
   0 He    2.0000    0     4.003    0.000000    0.000000    0.000000

--------------------------------
INTERNAL COORDINATES (ANGSTROEM)
--------------------------------
 He     0   0   0     0.000000000000     0.00000000     0.00000000

---------------------------
INTERNAL COORDINATES (A.U.)
---------------------------
 He     0   0   0     0.000000000000     0.00000000     0.00000000

---------------------
BASIS SET INFORMATION
---------------------
There are 1 groups of distinct atoms

 Group   1 Type He  : 45s16p9d1f contracted to 5s4p3d1f pattern {99999/4444/333/1}

Atom   0He   basis set group =>   1


           ************************************************************
           *        Program running with 18 parallel MPI-processes    *
           *              working on a common directory               *
           ************************************************************


------------------------------------------------------------------------------
                       ORCA GTO INTEGRAL CALCULATION
                     -- ANO INTEGRAL GENERATION BRANCH --
------------------------------------------------------------------------------


Gathering ANO information                         ... done
Calculation Information:
Number of atoms                                   ... 1
Number of basis functions                         ... 39
Highest angular momentum                          ... 3
Number of primitive shells                        ... 17
Total number of shells                            ... 13
Maximum number of shells                          ... 13

Getting memory                                    ... done
Making prescreening integrals                     ... done
Gathering atom contracted prescreening            ... done
Making one-electron integrals                     ... done

Timings:

Total time                                        ...    0.1 sec
Prescreening matrix                               ...    0.0 sec
One-electron matrix                               ...    0.0 sec
Two-index integrals + Cholesky                    ...    0.0 sec


           ************************************************************
           *        Program running with 18 parallel MPI-processes    *
           *              working on a common directory               *
           ************************************************************
------------------------------------------------------------------------------
                          ORCA RELATIVISTIC HAMILTONIAN
------------------------------------------------------------------------------

Relativistic Method            ... ZORA(MP)
Treatment of potential         ... Van Wuellen
Nucleus model                  ... Point Nucleus
Speed of light used            ...  68.51799450000000


            *************************************************
            *         ZERO ORDER REGULAR APPROXIMATION      *
            *                     ZORA(MP)                  *
            *            Programmed by FN according to      *
            *                   C. van Wuellen              *
            *       J. Chem. Phys. (1998) vol 109, 392-399  *
            *************************************************

Terms included in model potential: +V(e,N)
Basis function cutoff value   ... 1.000000e-12
Loading the fitted atomic densities  (DKH4)  ... done
Calculating the cutoffs                      ... done
Number of fit functions                      ... 6
Setting up the integration grid ... done


           ************************************************************
           *        Program running with 18 parallel MPI-processes    *
           *              working on a common directory               *
           ************************************************************
-------------------------------------------------------------------------------
                                 ORCA SCF
-------------------------------------------------------------------------------

------------
SCF SETTINGS
------------
Hamiltonian:
 Density Functional     Method          .... DFT(GTOs)
 Exchange Functional    Exchange        .... Slater
   X-Alpha parameter    XAlpha          ....  0.666667
 Correlation Functional Correlation     .... VWN-5
 Gradients option       PostSCFGGA      .... off
   Density functional embedding theory  .... OFF

Relativistic Settings:
 Scalar relativistic method             .... ZORA
 Speed of light used       Velit        ....       68.5179945
Orbital energies will be scaled


General Settings:
 Integral files         IntName         .... He_ano-rcc-qzp_68.5179945_
 Hartree-Fock type      HFTyp           .... RHF
 Total Charge           Charge          ....    0
 Multiplicity           Mult            ....    1
 Number of Electrons    NEL             ....    2
 Basis Dimension        Dim             ....   39
 Nuclear Repulsion      ENuc            ....      0.0000000000 Eh

Convergence Acceleration:
 DIIS                   CNVDIIS         .... on
   Start iteration      DIISMaxIt       ....    12
   Startup error        DIISStart       ....  0.200000
   # of expansion vecs  DIISMaxEq       ....     5
   Bias factor          DIISBfac        ....   1.050
   Max. coefficient     DIISMaxC        ....  10.000
 Newton-Raphson         CNVNR           .... off
 SOSCF                  CNVSOSCF        .... on
   Start iteration      SOSCFMaxIt      ....   150
   Startup grad/error   SOSCFStart      ....  0.003300
 Level Shifting         CNVShift        .... on
   Level shift para.    LevelShift      ....    0.2500
   Turn off err/grad.   ShiftErr        ....    0.0010
 Zerner damping         CNVZerner       .... off
 Static damping         CNVDamp         .... on
   Fraction old density DampFac         ....    0.7000
   Max. Damping (<1)    DampMax         ....    0.9800
   Min. Damping (>=0)   DampMin         ....    0.0000
   Turn off err/grad.   DampErr         ....    0.1000
 Fernandez-Rico         CNVRico         .... off

SCF Procedure:
 Maximum # iterations   MaxIter         ....   125
 SCF integral mode      SCFMode         .... Direct
   Integral package                     .... LIBINT
 Reset frequency        DirectResetFreq ....    20
 Integral Threshold     Thresh          ....  1.000e-12 Eh
 Primitive CutOff       TCut            ....  1.000e-14 Eh

Convergence Tolerance:
 Convergence Check Mode ConvCheckMode   .... Total+1el-Energy
 Convergence forced     ConvForced      .... 0
 Energy Change          TolE            ....  1.000e-09 Eh
 1-El. energy change                    ....  1.000e-06 Eh
 Orbital Gradient       TolG            ....  2.000e-06
 Orbital Rotation angle TolX            ....  2.000e-06
 DIIS Error             TolErr          ....  1.000e-08


Diagonalization of the overlap matrix:
Smallest eigenvalue                        ... 1.000e+00
Time for diagonalization                   ...    0.001 sec
Threshold for overlap eigenvalues          ... 1.000e-08
Number of eigenvalues below threshold      ... 0
Time for construction of square roots      ...    0.001 sec
Total time needed                          ...    0.002 sec

-------------------
DFT GRID GENERATION
-------------------

General Integration Accuracy     IntAcc      ...  5.010
Radial Grid Type                 RadialGrid  ... Gauss-Chebyshev
Angular Grid (max. acc.)         AngularGrid ... Lebedev-434
Angular grid pruning method      GridPruning ... 3 (G Style)
Weight generation scheme         WeightScheme... Becke
Basis function cutoff            BFCut       ...    1.0000e-12
Integration weight cutoff        WCut        ...    1.0000e-14
Grids for H and He will be reduced by one unit

# of grid points (after initial pruning)     ...   6764 (   0.0 sec)
# of grid points (after weights+screening)   ...   6764 (   0.0 sec)
Grid point division into batches done        ...    0.0 sec
Reduced shell lists constructed in    0.0 sec

Total number of grid points                  ...     6764
Total number of batches                      ...      106
Average number of points per batch           ...       63
Average number of grid points per atom       ...     6764
Average number of shells per batch           ...     7.71 (59.34%)
Average number of basis functions per batch  ...    14.57 (37.36%)
Average number of large shells per batch     ...     6.86 (88.89%)
Average number of large basis fcns per batch ...    12.00 (82.35%)
Maximum spatial batch extension              ...  15.22, 15.22, 15.22 au
Average spatial batch extension              ...   0.77,  0.77,  0.77 au

Time for grid setup =    0.057 sec

------------------------------
INITIAL GUESS: MODEL POTENTIAL
------------------------------
Loading ZORA relativistic densities                ... done
Calculating cut-offs                               ... done
Setting up the integral package                    ... done
Initializing the effective Hamiltonian             ... done
Starting the Coulomb interaction                   ... done (   0.0 sec)
Reading the grid                                   ... done
Mapping shells                                     ... done
Starting the XC term evaluation                    ... done (   0.0 sec)
  promolecular density results
     # of electrons  =      1.999920377
     EX              =     -0.884114011
     EC              =     -0.112857661
     EX+EC           =     -0.996971673
Transforming the Hamiltonian                       ... done (   0.0 sec)
Diagonalizing the Hamiltonian                      ... done (   0.0 sec)
Back transforming the eigenvectors                 ... done (   0.0 sec)
Now organizing SCF variables                       ... done
                      ------------------
                      INITIAL GUESS DONE (   0.1 sec)
                      ------------------
--------------
SCF ITERATIONS
--------------
ITER       Energy         Delta-E        Max-DP      RMS-DP      [F,P]     Damp
               ***  Starting incremental Fock matrix formation  ***
  0     -2.8356541088   0.000000000000 0.00568450  0.00015001  0.0324395 0.7000
                      *** Initiating the SOSCF procedure ***
                      *** Re-Reading the Fockian *** 
                      *** Removing any level shift *** 
ITER      Energy       Delta-E        Grad      Rot      Max-DP    RMS-DP
  1     -2.83574534  -0.0000912290  0.001161  0.001161  0.014780  0.000400
               *** Restarting incremental Fock matrix formation ***
  2     -2.83588114  -0.0001357987  0.003120  0.002591  0.005849  0.000155
  3     -2.83589388  -0.0000127397  0.001249  0.000826  0.001771  0.000048
  4     -2.83589670  -0.0000028239  0.000002  0.000001  0.000001  0.000000
                 **** Energy Check signals convergence ****
              ***Rediagonalizing the Fockian in SOSCF/NRSCF***

               *****************************************************
               *                     SUCCESS                       *
               *           SCF CONVERGED AFTER   5 CYCLES          *
               *****************************************************

Setting up the final grid:

General Integration Accuracy     IntAcc      ...  5.340
Radial Grid Type                 RadialGrid  ... Gauss-Chebyshev
Angular Grid (max. acc.)         AngularGrid ... Lebedev-590
Angular grid pruning method      GridPruning ... 3 (G Style)
Weight generation scheme         WeightScheme... Becke
Basis function cutoff            BFCut       ...    1.0000e-12
Integration weight cutoff        WCut        ...    1.0000e-14
Grids for H and He will be reduced by one unit

# of grid points (after initial pruning)     ...  11406 (   0.0 sec)
# of grid points (after weights+screening)   ...  11406 (   0.0 sec)
Grid point division into batches done        ...    0.1 sec
Reduced shell lists constructed in    0.1 sec

Total number of grid points                  ...    11406
Total number of batches                      ...      179
Average number of points per batch           ...       63
Average number of grid points per atom       ...    11406
Average number of shells per batch           ...     6.00 (46.15%)
Average number of basis functions per batch  ...     8.91 (22.84%)
Average number of large shells per batch     ...     4.00 (66.67%)
Average number of large basis fcns per batch ...     4.00 (44.90%)
Maximum spatial batch extension              ...  16.29, 16.29, 16.29 au
Average spatial batch extension              ...   0.81,  0.81,  0.81 au

Final grid set up in    0.1 sec
Final integration                            ... done (   0.0 sec)
Change in XC energy                          ...     0.000000004
Integrated number of electrons               ...     1.999999999
Previous integrated no of electrons          ...     2.000000002

----------------
TOTAL SCF ENERGY
----------------

Total Energy       :           -2.83589670 Eh             -77.16867 eV

Components:
Nuclear Repulsion  :            0.00000000 Eh               0.00000 eV
Electronic Energy  :           -2.83589670 Eh             -77.16867 eV
One Electron Energy:           -3.85915661 Eh            -105.01299 eV
Two Electron Energy:            1.02325991 Eh              27.84432 eV

Virial components:
Potential Energy   :           -5.60568036 Eh            -152.53832 eV
Kinetic Energy     :            2.76978367 Eh              75.36965 eV
Virial Ratio       :            2.02386938


DFT components:
N(Alpha)           :        0.999999999539 electrons
N(Beta)            :        0.999999999539 electrons
N(Total)           :        1.999999999078 electrons
E(X)               :       -0.862231794016 Eh       
E(C)               :       -0.111485175863 Eh       
E(XC)              :       -0.973716969879 Eh       
DFET-embed. en.    :        0.000000000000 Eh       

---------------
SCF CONVERGENCE
---------------

  Last Energy change         ...   -4.1593e-12  Tolerance :   1.0000e-09
  Last MAX-Density change    ...    3.9875e-08  Tolerance :   1.0000e-08
  Last RMS-Density change    ...    1.2064e-09  Tolerance :   1.0000e-09
  Last Orbital Gradient      ...    3.0250e-08  Tolerance :   2.0000e-06
  Last Orbital Rotation      ...    1.7621e-08  Tolerance :   2.0000e-06

             **** THE GBW FILE WAS UPDATED (He_ano-rcc-qzp_68.5179945_.gbw) ****
             **** DENSITY FILE WAS UPDATED (He_ano-rcc-qzp_68.5179945_.scfp) ****
             **** ENERGY FILE WAS UPDATED (He_ano-rcc-qzp_68.5179945_.en.tmp) ****
             **** THE GBW FILE WAS UPDATED (He_ano-rcc-qzp_68.5179945_.gbw) ****
             **** DENSITY FILE WAS UPDATED (He_ano-rcc-qzp_68.5179945_.scfp) ****
----------------
ORBITAL ENERGIES
----------------

  NO   OCC          E(Eh)            E(eV) 
   0   2.0000      -0.570591       -15.5266 
   1   0.0000       0.188481         5.1288 
   2   0.0000       0.264838         7.2066 
   3   0.0000       0.264838         7.2066 
   4   0.0000       0.264838         7.2066 
   5   0.0000       1.296006        35.2661 
   6   0.0000       1.296006        35.2661 
   7   0.0000       1.296006        35.2661 
   8   0.0000       1.393626        37.9225 
   9   0.0000       1.433731        39.0138 
  10   0.0000       1.433731        39.0138 
  11   0.0000       1.433731        39.0138 
  12   0.0000       1.433731        39.0138 
  13   0.0000       1.433731        39.0138 
  14   0.0000       4.468868       121.6041 
  15   0.0000       4.468868       121.6041 
  16   0.0000       4.468868       121.6041 
  17   0.0000       5.043402       137.2380 
  18   0.0000       5.043402       137.2380 
  19   0.0000       5.043402       137.2380 
  20   0.0000       5.043402       137.2380 
  21   0.0000       5.043402       137.2380 
  22   0.0000       5.681853       154.6111 
  23   0.0000       7.408871       201.6056 
  24   0.0000       7.408871       201.6056 
  25   0.0000       7.408871       201.6056 
  26   0.0000       7.408871       201.6056 
  27   0.0000       7.408871       201.6056 
  28   0.0000       7.408871       201.6056 
  29   0.0000       7.408871       201.6056 
  30   0.0000      14.340213       390.2170 
  31   0.0000      14.340213       390.2170 
  32   0.0000      14.340213       390.2170 
  33   0.0000      14.636695       398.2847 
  34   0.0000      14.636695       398.2847 
  35   0.0000      14.636695       398.2847 
  36   0.0000      14.636695       398.2847 
  37   0.0000      14.636695       398.2847 
  38   0.0000      20.549673       559.1850 

                    ********************************
                    * MULLIKEN POPULATION ANALYSIS *
                    ********************************

-----------------------
MULLIKEN ATOMIC CHARGES
-----------------------
   0 He:    0.000000
Sum of atomic charges:    0.0000000

--------------------------------
MULLIKEN REDUCED ORBITAL CHARGES
--------------------------------
  0 Hes       :     2.000000  s :     2.000000
      pz      :     0.000000  p :     0.000000
      px      :     0.000000
      py      :     0.000000
      dz2     :     0.000000  d :     0.000000
      dxz     :     0.000000
      dyz     :     0.000000
      dx2y2   :     0.000000
      dxy     :     0.000000
      f0      :     0.000000  f :     0.000000
      f+1     :     0.000000
      f-1     :     0.000000
      f+2     :     0.000000
      f-2     :     0.000000
      f+3     :     0.000000
      f-3     :     0.000000


                     *******************************
                     * LOEWDIN POPULATION ANALYSIS *
                     *******************************

----------------------
LOEWDIN ATOMIC CHARGES
----------------------
   0 He:    0.000000

-------------------------------
LOEWDIN REDUCED ORBITAL CHARGES
-------------------------------
  0 Hes       :     2.000000  s :     2.000000
      pz      :     0.000000  p :     0.000000
      px      :     0.000000
      py      :     0.000000
      dz2     :     0.000000  d :     0.000000
      dxz     :     0.000000
      dyz     :     0.000000
      dx2y2   :     0.000000
      dxy     :     0.000000
      f0      :     0.000000  f :     0.000000
      f+1     :     0.000000
      f-1     :     0.000000
      f+2     :     0.000000
      f-2     :     0.000000
      f+3     :     0.000000
      f-3     :     0.000000


                      *****************************
                      * MAYER POPULATION ANALYSIS *
                      *****************************

  NA   - Mulliken gross atomic population
  ZA   - Total nuclear charge
  QA   - Mulliken gross atomic charge
  VA   - Mayer's total valence
  BVA  - Mayer's bonded valence
  FA   - Mayer's free valence

  ATOM       NA         ZA         QA         VA         BVA        FA
  0 He     2.0000     2.0000     0.0000     0.0000     0.0000     0.0000

  Mayer bond orders larger than 0.100000


--------------------------
ATOM BASIS FOR ELEMENT He
--------------------------
 NewGTO He
 S 45
    1       1149.270500000000         0.000357622218
    2        172.044570000000         0.002771977058
    3         39.080465000000         0.014293672425
    4         11.036173000000         0.055849096282
    5          3.564152000000         0.163309054693
    6          1.240443000000         0.331222372988
    7          0.447316000000         0.414160877461
    8          0.164206000000         0.188970043330
    9          0.057472000000         0.005154362427
   10       1149.270500000000        -0.000011074866
   11        172.044570000000        -0.000084178168
   12         39.080465000000        -0.000471305903
   13         11.036173000000        -0.002142034860
   14          3.564152000000        -0.009553510331
   15          1.240443000000        -0.012647916905
   16          0.447316000000         0.011924649653
   17          0.164206000000         0.011429349945
   18          0.057472000000         0.000243350672
   19       1149.270500000000         0.000009237897
   20        172.044570000000         0.000092347413
   21         39.080465000000         0.000409361654
   22         11.036173000000         0.004216396740
   23          3.564152000000         0.013157414031
   24          1.240443000000        -0.016903371928
   25          0.447316000000        -0.006188668286
   26          0.164206000000         0.012480907904
   27          0.057472000000         0.000662840078
   28       1149.270500000000        -0.000003231382
   29        172.044570000000        -0.000071663857
   30         39.080465000000        -0.000132826751
   31         11.036173000000        -0.004877426167
   32          3.564152000000        -0.000069341943
   33          1.240443000000         0.013237125773
   34          0.447316000000        -0.017393201791
   35          0.164206000000         0.006146198005
   36          0.057472000000         0.003722448846
   37       1149.270500000000         0.000001961275
   38        172.044570000000         0.000028314309
   39         39.080465000000         0.000155265279
   40         11.036173000000         0.003088333821
   41          3.564152000000        -0.005487259981
   42          1.240443000000         0.004091714819
   43          0.447316000000        -0.000294093880
   44          0.164206000000        -0.002936564452
   45          0.057472000000         0.002587970957
 S 45
    1       1149.270500000000         0.000008796285
    2        172.044570000000         0.000068181166
    3         39.080465000000         0.000351575513
    4         11.036173000000         0.001373696982
    5          3.564152000000         0.004016844864
    6          1.240443000000         0.008146938883
    7          0.447316000000         0.010186942766
    8          0.164206000000         0.004648017523
    9          0.057472000000         0.000126779708
   10       1149.270500000000         0.000349276846
   11        172.044570000000         0.002654793664
   12         39.080465000000         0.014863948139
   13         11.036173000000         0.067555052601
   14          3.564152000000         0.301296633910
   15          1.240443000000         0.398887388770
   16          0.447316000000        -0.376077135670
   17          0.164206000000        -0.360456475888
   18          0.057472000000        -0.007674743200
   19       1149.270500000000        -0.000383312193
   20        172.044570000000        -0.003831812415
   21         39.080465000000        -0.016985825825
   22         11.036173000000        -0.174952831782
   23          3.564152000000        -0.545946452796
   24          1.240443000000         0.701379155720
   25          0.447316000000         0.256789175312
   26          0.164206000000        -0.517875882137
   27          0.057472000000        -0.027503519213
   28       1149.270500000000         0.000234591421
   29        172.044570000000         0.005202643538
   30         39.080465000000         0.009642939479
   31         11.036173000000         0.354090760666
   32          3.564152000000         0.005034077530
   33          1.240443000000        -0.960987162748
   34          0.447316000000         1.262709437643
   35          0.164206000000        -0.446200896171
   36          0.057472000000        -0.270241864890
   37       1149.270500000000        -0.000144734621
   38        172.044570000000        -0.002089487639
   39         39.080465000000        -0.011457983185
   40         11.036173000000        -0.227907212465
   41          3.564152000000         0.404938778959
   42          1.240443000000        -0.301952888749
   43          0.447316000000         0.021703002435
   44          0.164206000000         0.216707214058
   45          0.057472000000        -0.190982348719
 S 45
    1       1149.270500000000        -0.000002565598
    2        172.044570000000        -0.000019886286
    3         39.080465000000        -0.000102543436
    4         11.036173000000        -0.000400663877
    5          3.564152000000        -0.001171586353
    6          1.240443000000        -0.002376203895
    7          0.447316000000        -0.002971208380
    8          0.164206000000        -0.001355679416
    9          0.057472000000        -0.000036977623
   10       1149.270500000000        -0.000371495129
   11        172.044570000000        -0.002823671045
   12         39.080465000000        -0.015809477227
   13         11.036173000000        -0.071852381056
   14          3.564152000000        -0.320462788744
   15          1.240443000000        -0.424261510463
   16          0.447316000000         0.400000245990
   17          0.164206000000         0.383385920995
   18          0.057472000000         0.008162950833
   19       1149.270500000000        -0.000138715475
   20        172.044570000000        -0.001386680854
   21         39.080465000000        -0.006146939599
   22         11.036173000000        -0.063313052934
   23          3.564152000000        -0.197570604105
   24          1.240443000000         0.253819587604
   25          0.447316000000         0.092928513839
   26          0.164206000000        -0.187412245948
   27          0.057472000000        -0.009953149944
   28       1149.270500000000         0.000294374397
   29        172.044570000000         0.006528478530
   30         39.080465000000         0.012100333781
   31         11.036173000000         0.444326794971
   32          3.564152000000         0.006316955377
   33          1.240443000000        -1.205883896063
   34          0.447316000000         1.584496687662
   35          0.164206000000        -0.559910159010
   36          0.057472000000        -0.339109954373
   37       1149.270500000000        -0.000268159582
   38        172.044570000000        -0.003871334484
   39         39.080465000000        -0.021228977188
   40         11.036173000000        -0.422259042982
   41          3.564152000000         0.750257350000
   42          1.240443000000        -0.559448454702
   43          0.447316000000         0.040210614394
   44          0.164206000000         0.401508051570
   45          0.057472000000        -0.353845860885
 S 45
    1       1149.270500000000         0.000000399686
    2        172.044570000000         0.000003098022
    3         39.080465000000         0.000015974919
    4         11.036173000000         0.000062418165
    5          3.564152000000         0.000182517752
    6          1.240443000000         0.000370181329
    7          0.447316000000         0.000462875205
    8          0.164206000000         0.000211197031
    9          0.057472000000         0.000005760628
   10       1149.270500000000        -0.000145208689
   11        172.044570000000        -0.001103706453
   12         39.080465000000        -0.006179551995
   13         11.036173000000        -0.028085402086
   14          3.564152000000        -0.125261350330
   15          1.240443000000        -0.165833823957
   16          0.447316000000         0.156350667549
   17          0.164206000000         0.149856519533
   18          0.057472000000         0.003190705068
   19       1149.270500000000        -0.000544681141
   20        172.044570000000        -0.005444950615
   21         39.080465000000        -0.024136615461
   22         11.036173000000        -0.248605470705
   23          3.564152000000        -0.775782097918
   24          1.240443000000         0.996649744812
   25          0.447316000000         0.364893743931
   26          0.164206000000        -0.735894218652
   27          0.057472000000        -0.039082107277
   28       1149.270500000000        -0.000159226668
   29        172.044570000000        -0.003531244199
   30         39.080465000000        -0.006545052308
   31         11.036173000000        -0.240335693828
   32          3.564152000000        -0.003416831644
   33          1.240443000000         0.652260782192
   34          0.447316000000        -0.857051870623
   35          0.164206000000         0.302854561261
   36          0.057472000000         0.183424063304
   37       1149.270500000000         0.000433283962
   38        172.044570000000         0.006255182582
   39         39.080465000000         0.034301125073
   40         11.036173000000         0.682273108043
   41          3.564152000000        -1.212242632867
   42          1.240443000000         0.903939518462
   43          0.447316000000        -0.064971067677
   44          0.164206000000        -0.648744297610
   45          0.057472000000         0.571733203318
 S 45
    1       1149.270500000000        -0.000000376401
    2        172.044570000000        -0.000002917533
    3         39.080465000000        -0.000015044232
    4         11.036173000000        -0.000058781726
    5          3.564152000000        -0.000171884395
    6          1.240443000000        -0.000348614823
    7          0.447316000000        -0.000435908420
    8          0.164206000000        -0.000198892840
    9          0.057472000000        -0.000005425017
   10       1149.270500000000         0.000018033267
   11        172.044570000000         0.000137067786
   12         39.080465000000         0.000767430060
   13         11.036173000000         0.003487887441
   14          3.564152000000         0.015556034746
   15          1.240443000000         0.020594674420
   16          0.447316000000        -0.019416974274
   17          0.164206000000        -0.018610474968
   18          0.057472000000        -0.000396249272
   19       1149.270500000000         0.000186312838
   20        172.044570000000         0.001862491874
   21         39.080465000000         0.008256135516
   22         11.036173000000         0.085037625072
   23          3.564152000000         0.265362894040
   24          1.240443000000        -0.340912559516
   25          0.447316000000        -0.124815022371
   26          0.164206000000         0.251718904178
   27          0.057472000000         0.013368368669
   28       1149.270500000000         0.000236473771
   29        172.044570000000         0.005244389304
   30         39.080465000000         0.009720313969
   31         11.036173000000         0.356931968172
   32          3.564152000000         0.005074470730
   33          1.240443000000        -0.968698078261
   34          0.447316000000         1.272841358410
   35          0.164206000000        -0.449781191044
   36          0.057472000000        -0.272410272824
   37       1149.270500000000         0.000769174107
   38        172.044570000000         0.011104321646
   39         39.080465000000         0.060892023639
   40         11.036173000000         1.211184476744
   41          3.564152000000        -2.151996673571
   42          1.240443000000         1.604690995102
   43          0.447316000000        -0.115337901613
   44          0.164206000000        -1.151663481058
   45          0.057472000000         1.014951890283
 P 16
    1          4.550000000000         0.061916416260
    2          1.592500000000         0.263938890708
    3          0.557375000000         0.311538699042
    4          0.195081000000         0.192597466371
    5          4.550000000000        -0.129790519292
    6          1.592500000000        -0.355682044045
    7          0.557375000000        -0.137724953930
    8          0.195081000000         0.692188134002
    9          4.550000000000         0.151360461510
   10          1.592500000000         0.019345962678
   11          0.557375000000        -0.223760550957
   12          0.195081000000         0.159777689420
   13          4.550000000000        -0.092373345056
   14          1.592500000000         0.157603905232
   15          0.557375000000        -0.136393493978
   16          0.195081000000         0.060488577572
 P 16
    1          4.550000000000        -0.057141592272
    2          1.592500000000        -0.243584648282
    3          0.557375000000        -0.287513690115
    4          0.195081000000        -0.177744878673
    5          4.550000000000        -0.088887320610
    6          1.592500000000        -0.243589624703
    7          0.557375000000        -0.094321235501
    8          0.195081000000         0.474046555368
    9          4.550000000000         0.458195761869
   10          1.592500000000         0.058563762426
   11          0.557375000000        -0.677364055971
   12          0.195081000000         0.483676248100
   13          4.550000000000        -0.385092539646
   14          1.592500000000         0.657030316341
   15          0.557375000000        -0.568606852498
   16          0.195081000000         0.252169063951
 P 16
    1          4.550000000000        -0.028935102018
    2          1.592500000000        -0.123345296619
    3          0.557375000000        -0.145589886881
    4          0.195081000000        -0.090005650755
    5          4.550000000000        -0.097058129293
    6          1.592500000000        -0.265981167240
    7          0.557375000000        -0.102991547135
    8          0.195081000000         0.517622440926
    9          4.550000000000        -0.480941020080
   10          1.592500000000        -0.061470921350
   11          0.557375000000         0.710989029482
   12          0.195081000000        -0.507686381036
   13          4.550000000000         0.773841548849
   14          1.592500000000        -1.320299162652
   15          0.557375000000         1.142612650527
   16          0.195081000000        -0.506732483572
 P 16
    1          4.550000000000         0.005604499146
    2          1.592500000000         0.023891003016
    3          0.557375000000         0.028199603243
    4          0.195081000000         0.017433378755
    5          4.550000000000         0.026516951319
    6          1.592500000000         0.072667892064
    7          0.557375000000         0.028138002056
    8          0.195081000000        -0.141418026161
    9          4.550000000000         0.516413887885
   10          1.592500000000         0.066004845004
   11          0.557375000000        -0.763429596622
   12          0.195081000000         0.545131912045
   13          4.550000000000         1.089439876021
   14          1.592500000000        -1.858761083856
   15          0.557375000000         1.608608100951
   16          0.195081000000        -0.713394847950
 D 9
    1          3.400000000000        -0.187274851015
    2          1.360000000000        -0.377539475100
    3          0.544000000000        -0.202479370795
    4          3.400000000000         0.595002210116
    5          1.360000000000        -0.115726400138
    6          0.544000000000        -0.436956651461
    7          3.400000000000        -0.483463630544
    8          1.360000000000         0.812620871815
    9          0.544000000000        -0.547441516117
 D 9
    1          3.400000000000        -0.195673318530
    2          1.360000000000        -0.394470488528
    3          0.544000000000        -0.211559695297
    4          3.400000000000        -0.318823160494
    5          1.360000000000         0.062010285033
    6          0.544000000000         0.234136778400
    7          3.400000000000         0.757741250731
    8          1.360000000000        -1.273635319965
    9          0.544000000000         0.858014942423
 D 9
    1          3.400000000000         0.073140828704
    2          1.360000000000         0.147449323429
    3          0.544000000000         0.079079005511
    4          3.400000000000         0.670538894754
    5          1.360000000000        -0.130418091098
    6          0.544000000000        -0.492429145883
    7          3.400000000000         0.789286721804
    8          1.360000000000        -1.326657939633
    9          0.544000000000         0.893734900286
 F 1
    1          1.813333000000         1.000000000000
 end
  // -----------------------------------------------
  // The basis set
  // -----------------------------------------------
  BAS[ATNO] = new BFNGauss[NSH];
  // Basis function   1 L = s
  InitBFNGauss(BAS[ATNO][  0]);
  BAS[ATNO][  0].l  = 0;
  BAS[ATNO][  0].ng = 45;
  BAS[ATNO][  0].a[  0] =      1149.270500000000;     BAS[ATNO][  0].d[  0] =         0.000357622218;
  BAS[ATNO][  0].a[  1] =       172.044570000000;     BAS[ATNO][  0].d[  1] =         0.002771977058;
  BAS[ATNO][  0].a[  2] =        39.080465000000;     BAS[ATNO][  0].d[  2] =         0.014293672425;
  BAS[ATNO][  0].a[  3] =        11.036173000000;     BAS[ATNO][  0].d[  3] =         0.055849096282;
  BAS[ATNO][  0].a[  4] =         3.564152000000;     BAS[ATNO][  0].d[  4] =         0.163309054693;
  BAS[ATNO][  0].a[  5] =         1.240443000000;     BAS[ATNO][  0].d[  5] =         0.331222372988;
  BAS[ATNO][  0].a[  6] =         0.447316000000;     BAS[ATNO][  0].d[  6] =         0.414160877461;
  BAS[ATNO][  0].a[  7] =         0.164206000000;     BAS[ATNO][  0].d[  7] =         0.188970043330;
  BAS[ATNO][  0].a[  8] =         0.057472000000;     BAS[ATNO][  0].d[  8] =         0.005154362427;
  BAS[ATNO][  0].a[  9] =      1149.270500000000;     BAS[ATNO][  0].d[  9] =        -0.000011074866;
  BAS[ATNO][  0].a[ 10] =       172.044570000000;     BAS[ATNO][  0].d[ 10] =        -0.000084178168;
  BAS[ATNO][  0].a[ 11] =        39.080465000000;     BAS[ATNO][  0].d[ 11] =        -0.000471305903;
  BAS[ATNO][  0].a[ 12] =        11.036173000000;     BAS[ATNO][  0].d[ 12] =        -0.002142034860;
  BAS[ATNO][  0].a[ 13] =         3.564152000000;     BAS[ATNO][  0].d[ 13] =        -0.009553510331;
  BAS[ATNO][  0].a[ 14] =         1.240443000000;     BAS[ATNO][  0].d[ 14] =        -0.012647916905;
  BAS[ATNO][  0].a[ 15] =         0.447316000000;     BAS[ATNO][  0].d[ 15] =         0.011924649653;
  BAS[ATNO][  0].a[ 16] =         0.164206000000;     BAS[ATNO][  0].d[ 16] =         0.011429349945;
  BAS[ATNO][  0].a[ 17] =         0.057472000000;     BAS[ATNO][  0].d[ 17] =         0.000243350672;
  BAS[ATNO][  0].a[ 18] =      1149.270500000000;     BAS[ATNO][  0].d[ 18] =         0.000009237897;
  BAS[ATNO][  0].a[ 19] =       172.044570000000;     BAS[ATNO][  0].d[ 19] =         0.000092347413;
  BAS[ATNO][  0].a[ 20] =        39.080465000000;     BAS[ATNO][  0].d[ 20] =         0.000409361654;
  BAS[ATNO][  0].a[ 21] =        11.036173000000;     BAS[ATNO][  0].d[ 21] =         0.004216396740;
  BAS[ATNO][  0].a[ 22] =         3.564152000000;     BAS[ATNO][  0].d[ 22] =         0.013157414031;
  BAS[ATNO][  0].a[ 23] =         1.240443000000;     BAS[ATNO][  0].d[ 23] =        -0.016903371928;
  BAS[ATNO][  0].a[ 24] =         0.447316000000;     BAS[ATNO][  0].d[ 24] =        -0.006188668286;
  BAS[ATNO][  0].a[ 25] =         0.164206000000;     BAS[ATNO][  0].d[ 25] =         0.012480907904;
  BAS[ATNO][  0].a[ 26] =         0.057472000000;     BAS[ATNO][  0].d[ 26] =         0.000662840078;
  BAS[ATNO][  0].a[ 27] =      1149.270500000000;     BAS[ATNO][  0].d[ 27] =        -0.000003231382;
  BAS[ATNO][  0].a[ 28] =       172.044570000000;     BAS[ATNO][  0].d[ 28] =        -0.000071663857;
  BAS[ATNO][  0].a[ 29] =        39.080465000000;     BAS[ATNO][  0].d[ 29] =        -0.000132826751;
  BAS[ATNO][  0].a[ 30] =        11.036173000000;     BAS[ATNO][  0].d[ 30] =        -0.004877426167;
  BAS[ATNO][  0].a[ 31] =         3.564152000000;     BAS[ATNO][  0].d[ 31] =        -0.000069341943;
  BAS[ATNO][  0].a[ 32] =         1.240443000000;     BAS[ATNO][  0].d[ 32] =         0.013237125773;
  BAS[ATNO][  0].a[ 33] =         0.447316000000;     BAS[ATNO][  0].d[ 33] =        -0.017393201791;
  BAS[ATNO][  0].a[ 34] =         0.164206000000;     BAS[ATNO][  0].d[ 34] =         0.006146198005;
  BAS[ATNO][  0].a[ 35] =         0.057472000000;     BAS[ATNO][  0].d[ 35] =         0.003722448846;
  BAS[ATNO][  0].a[ 36] =      1149.270500000000;     BAS[ATNO][  0].d[ 36] =         0.000001961275;
  BAS[ATNO][  0].a[ 37] =       172.044570000000;     BAS[ATNO][  0].d[ 37] =         0.000028314309;
  BAS[ATNO][  0].a[ 38] =        39.080465000000;     BAS[ATNO][  0].d[ 38] =         0.000155265279;
  BAS[ATNO][  0].a[ 39] =        11.036173000000;     BAS[ATNO][  0].d[ 39] =         0.003088333821;
  BAS[ATNO][  0].a[ 40] =         3.564152000000;     BAS[ATNO][  0].d[ 40] =        -0.005487259981;
  BAS[ATNO][  0].a[ 41] =         1.240443000000;     BAS[ATNO][  0].d[ 41] =         0.004091714819;
  BAS[ATNO][  0].a[ 42] =         0.447316000000;     BAS[ATNO][  0].d[ 42] =        -0.000294093880;
  BAS[ATNO][  0].a[ 43] =         0.164206000000;     BAS[ATNO][  0].d[ 43] =        -0.002936564452;
  BAS[ATNO][  0].a[ 44] =         0.057472000000;     BAS[ATNO][  0].d[ 44] =         0.002587970957;

  // Basis function   2 L = s
  InitBFNGauss(BAS[ATNO][  1]);
  BAS[ATNO][  1].l  = 0;
  BAS[ATNO][  1].ng = 45;
  BAS[ATNO][  1].a[  0] =      1149.270500000000;     BAS[ATNO][  1].d[  0] =         0.000008796285;
  BAS[ATNO][  1].a[  1] =       172.044570000000;     BAS[ATNO][  1].d[  1] =         0.000068181166;
  BAS[ATNO][  1].a[  2] =        39.080465000000;     BAS[ATNO][  1].d[  2] =         0.000351575513;
  BAS[ATNO][  1].a[  3] =        11.036173000000;     BAS[ATNO][  1].d[  3] =         0.001373696982;
  BAS[ATNO][  1].a[  4] =         3.564152000000;     BAS[ATNO][  1].d[  4] =         0.004016844864;
  BAS[ATNO][  1].a[  5] =         1.240443000000;     BAS[ATNO][  1].d[  5] =         0.008146938883;
  BAS[ATNO][  1].a[  6] =         0.447316000000;     BAS[ATNO][  1].d[  6] =         0.010186942766;
  BAS[ATNO][  1].a[  7] =         0.164206000000;     BAS[ATNO][  1].d[  7] =         0.004648017523;
  BAS[ATNO][  1].a[  8] =         0.057472000000;     BAS[ATNO][  1].d[  8] =         0.000126779708;
  BAS[ATNO][  1].a[  9] =      1149.270500000000;     BAS[ATNO][  1].d[  9] =         0.000349276846;
  BAS[ATNO][  1].a[ 10] =       172.044570000000;     BAS[ATNO][  1].d[ 10] =         0.002654793664;
  BAS[ATNO][  1].a[ 11] =        39.080465000000;     BAS[ATNO][  1].d[ 11] =         0.014863948139;
  BAS[ATNO][  1].a[ 12] =        11.036173000000;     BAS[ATNO][  1].d[ 12] =         0.067555052601;
  BAS[ATNO][  1].a[ 13] =         3.564152000000;     BAS[ATNO][  1].d[ 13] =         0.301296633910;
  BAS[ATNO][  1].a[ 14] =         1.240443000000;     BAS[ATNO][  1].d[ 14] =         0.398887388770;
  BAS[ATNO][  1].a[ 15] =         0.447316000000;     BAS[ATNO][  1].d[ 15] =        -0.376077135670;
  BAS[ATNO][  1].a[ 16] =         0.164206000000;     BAS[ATNO][  1].d[ 16] =        -0.360456475888;
  BAS[ATNO][  1].a[ 17] =         0.057472000000;     BAS[ATNO][  1].d[ 17] =        -0.007674743200;
  BAS[ATNO][  1].a[ 18] =      1149.270500000000;     BAS[ATNO][  1].d[ 18] =        -0.000383312193;
  BAS[ATNO][  1].a[ 19] =       172.044570000000;     BAS[ATNO][  1].d[ 19] =        -0.003831812415;
  BAS[ATNO][  1].a[ 20] =        39.080465000000;     BAS[ATNO][  1].d[ 20] =        -0.016985825825;
  BAS[ATNO][  1].a[ 21] =        11.036173000000;     BAS[ATNO][  1].d[ 21] =        -0.174952831782;
  BAS[ATNO][  1].a[ 22] =         3.564152000000;     BAS[ATNO][  1].d[ 22] =        -0.545946452796;
  BAS[ATNO][  1].a[ 23] =         1.240443000000;     BAS[ATNO][  1].d[ 23] =         0.701379155720;
  BAS[ATNO][  1].a[ 24] =         0.447316000000;     BAS[ATNO][  1].d[ 24] =         0.256789175312;
  BAS[ATNO][  1].a[ 25] =         0.164206000000;     BAS[ATNO][  1].d[ 25] =        -0.517875882137;
  BAS[ATNO][  1].a[ 26] =         0.057472000000;     BAS[ATNO][  1].d[ 26] =        -0.027503519213;
  BAS[ATNO][  1].a[ 27] =      1149.270500000000;     BAS[ATNO][  1].d[ 27] =         0.000234591421;
  BAS[ATNO][  1].a[ 28] =       172.044570000000;     BAS[ATNO][  1].d[ 28] =         0.005202643538;
  BAS[ATNO][  1].a[ 29] =        39.080465000000;     BAS[ATNO][  1].d[ 29] =         0.009642939479;
  BAS[ATNO][  1].a[ 30] =        11.036173000000;     BAS[ATNO][  1].d[ 30] =         0.354090760666;
  BAS[ATNO][  1].a[ 31] =         3.564152000000;     BAS[ATNO][  1].d[ 31] =         0.005034077530;
  BAS[ATNO][  1].a[ 32] =         1.240443000000;     BAS[ATNO][  1].d[ 32] =        -0.960987162748;
  BAS[ATNO][  1].a[ 33] =         0.447316000000;     BAS[ATNO][  1].d[ 33] =         1.262709437643;
  BAS[ATNO][  1].a[ 34] =         0.164206000000;     BAS[ATNO][  1].d[ 34] =        -0.446200896171;
  BAS[ATNO][  1].a[ 35] =         0.057472000000;     BAS[ATNO][  1].d[ 35] =        -0.270241864890;
  BAS[ATNO][  1].a[ 36] =      1149.270500000000;     BAS[ATNO][  1].d[ 36] =        -0.000144734621;
  BAS[ATNO][  1].a[ 37] =       172.044570000000;     BAS[ATNO][  1].d[ 37] =        -0.002089487639;
  BAS[ATNO][  1].a[ 38] =        39.080465000000;     BAS[ATNO][  1].d[ 38] =        -0.011457983185;
  BAS[ATNO][  1].a[ 39] =        11.036173000000;     BAS[ATNO][  1].d[ 39] =        -0.227907212465;
  BAS[ATNO][  1].a[ 40] =         3.564152000000;     BAS[ATNO][  1].d[ 40] =         0.404938778959;
  BAS[ATNO][  1].a[ 41] =         1.240443000000;     BAS[ATNO][  1].d[ 41] =        -0.301952888749;
  BAS[ATNO][  1].a[ 42] =         0.447316000000;     BAS[ATNO][  1].d[ 42] =         0.021703002435;
  BAS[ATNO][  1].a[ 43] =         0.164206000000;     BAS[ATNO][  1].d[ 43] =         0.216707214058;
  BAS[ATNO][  1].a[ 44] =         0.057472000000;     BAS[ATNO][  1].d[ 44] =        -0.190982348719;

  // Basis function   3 L = s
  InitBFNGauss(BAS[ATNO][  2]);
  BAS[ATNO][  2].l  = 0;
  BAS[ATNO][  2].ng = 45;
  BAS[ATNO][  2].a[  0] =      1149.270500000000;     BAS[ATNO][  2].d[  0] =        -0.000002565598;
  BAS[ATNO][  2].a[  1] =       172.044570000000;     BAS[ATNO][  2].d[  1] =        -0.000019886286;
  BAS[ATNO][  2].a[  2] =        39.080465000000;     BAS[ATNO][  2].d[  2] =        -0.000102543436;
  BAS[ATNO][  2].a[  3] =        11.036173000000;     BAS[ATNO][  2].d[  3] =        -0.000400663877;
  BAS[ATNO][  2].a[  4] =         3.564152000000;     BAS[ATNO][  2].d[  4] =        -0.001171586353;
  BAS[ATNO][  2].a[  5] =         1.240443000000;     BAS[ATNO][  2].d[  5] =        -0.002376203895;
  BAS[ATNO][  2].a[  6] =         0.447316000000;     BAS[ATNO][  2].d[  6] =        -0.002971208380;
  BAS[ATNO][  2].a[  7] =         0.164206000000;     BAS[ATNO][  2].d[  7] =        -0.001355679416;
  BAS[ATNO][  2].a[  8] =         0.057472000000;     BAS[ATNO][  2].d[  8] =        -0.000036977623;
  BAS[ATNO][  2].a[  9] =      1149.270500000000;     BAS[ATNO][  2].d[  9] =        -0.000371495129;
  BAS[ATNO][  2].a[ 10] =       172.044570000000;     BAS[ATNO][  2].d[ 10] =        -0.002823671045;
  BAS[ATNO][  2].a[ 11] =        39.080465000000;     BAS[ATNO][  2].d[ 11] =        -0.015809477227;
  BAS[ATNO][  2].a[ 12] =        11.036173000000;     BAS[ATNO][  2].d[ 12] =        -0.071852381056;
  BAS[ATNO][  2].a[ 13] =         3.564152000000;     BAS[ATNO][  2].d[ 13] =        -0.320462788744;
  BAS[ATNO][  2].a[ 14] =         1.240443000000;     BAS[ATNO][  2].d[ 14] =        -0.424261510463;
  BAS[ATNO][  2].a[ 15] =         0.447316000000;     BAS[ATNO][  2].d[ 15] =         0.400000245990;
  BAS[ATNO][  2].a[ 16] =         0.164206000000;     BAS[ATNO][  2].d[ 16] =         0.383385920995;
  BAS[ATNO][  2].a[ 17] =         0.057472000000;     BAS[ATNO][  2].d[ 17] =         0.008162950833;
  BAS[ATNO][  2].a[ 18] =      1149.270500000000;     BAS[ATNO][  2].d[ 18] =        -0.000138715475;
  BAS[ATNO][  2].a[ 19] =       172.044570000000;     BAS[ATNO][  2].d[ 19] =        -0.001386680854;
  BAS[ATNO][  2].a[ 20] =        39.080465000000;     BAS[ATNO][  2].d[ 20] =        -0.006146939599;
  BAS[ATNO][  2].a[ 21] =        11.036173000000;     BAS[ATNO][  2].d[ 21] =        -0.063313052934;
  BAS[ATNO][  2].a[ 22] =         3.564152000000;     BAS[ATNO][  2].d[ 22] =        -0.197570604105;
  BAS[ATNO][  2].a[ 23] =         1.240443000000;     BAS[ATNO][  2].d[ 23] =         0.253819587604;
  BAS[ATNO][  2].a[ 24] =         0.447316000000;     BAS[ATNO][  2].d[ 24] =         0.092928513839;
  BAS[ATNO][  2].a[ 25] =         0.164206000000;     BAS[ATNO][  2].d[ 25] =        -0.187412245948;
  BAS[ATNO][  2].a[ 26] =         0.057472000000;     BAS[ATNO][  2].d[ 26] =        -0.009953149944;
  BAS[ATNO][  2].a[ 27] =      1149.270500000000;     BAS[ATNO][  2].d[ 27] =         0.000294374397;
  BAS[ATNO][  2].a[ 28] =       172.044570000000;     BAS[ATNO][  2].d[ 28] =         0.006528478530;
  BAS[ATNO][  2].a[ 29] =        39.080465000000;     BAS[ATNO][  2].d[ 29] =         0.012100333781;
  BAS[ATNO][  2].a[ 30] =        11.036173000000;     BAS[ATNO][  2].d[ 30] =         0.444326794971;
  BAS[ATNO][  2].a[ 31] =         3.564152000000;     BAS[ATNO][  2].d[ 31] =         0.006316955377;
  BAS[ATNO][  2].a[ 32] =         1.240443000000;     BAS[ATNO][  2].d[ 32] =        -1.205883896063;
  BAS[ATNO][  2].a[ 33] =         0.447316000000;     BAS[ATNO][  2].d[ 33] =         1.584496687662;
  BAS[ATNO][  2].a[ 34] =         0.164206000000;     BAS[ATNO][  2].d[ 34] =        -0.559910159010;
  BAS[ATNO][  2].a[ 35] =         0.057472000000;     BAS[ATNO][  2].d[ 35] =        -0.339109954373;
  BAS[ATNO][  2].a[ 36] =      1149.270500000000;     BAS[ATNO][  2].d[ 36] =        -0.000268159582;
  BAS[ATNO][  2].a[ 37] =       172.044570000000;     BAS[ATNO][  2].d[ 37] =        -0.003871334484;
  BAS[ATNO][  2].a[ 38] =        39.080465000000;     BAS[ATNO][  2].d[ 38] =        -0.021228977188;
  BAS[ATNO][  2].a[ 39] =        11.036173000000;     BAS[ATNO][  2].d[ 39] =        -0.422259042982;
  BAS[ATNO][  2].a[ 40] =         3.564152000000;     BAS[ATNO][  2].d[ 40] =         0.750257350000;
  BAS[ATNO][  2].a[ 41] =         1.240443000000;     BAS[ATNO][  2].d[ 41] =        -0.559448454702;
  BAS[ATNO][  2].a[ 42] =         0.447316000000;     BAS[ATNO][  2].d[ 42] =         0.040210614394;
  BAS[ATNO][  2].a[ 43] =         0.164206000000;     BAS[ATNO][  2].d[ 43] =         0.401508051570;
  BAS[ATNO][  2].a[ 44] =         0.057472000000;     BAS[ATNO][  2].d[ 44] =        -0.353845860885;

  // Basis function   4 L = s
  InitBFNGauss(BAS[ATNO][  3]);
  BAS[ATNO][  3].l  = 0;
  BAS[ATNO][  3].ng = 45;
  BAS[ATNO][  3].a[  0] =      1149.270500000000;     BAS[ATNO][  3].d[  0] =        -0.000000399686;
  BAS[ATNO][  3].a[  1] =       172.044570000000;     BAS[ATNO][  3].d[  1] =        -0.000003098022;
  BAS[ATNO][  3].a[  2] =        39.080465000000;     BAS[ATNO][  3].d[  2] =        -0.000015974919;
  BAS[ATNO][  3].a[  3] =        11.036173000000;     BAS[ATNO][  3].d[  3] =        -0.000062418165;
  BAS[ATNO][  3].a[  4] =         3.564152000000;     BAS[ATNO][  3].d[  4] =        -0.000182517752;
  BAS[ATNO][  3].a[  5] =         1.240443000000;     BAS[ATNO][  3].d[  5] =        -0.000370181329;
  BAS[ATNO][  3].a[  6] =         0.447316000000;     BAS[ATNO][  3].d[  6] =        -0.000462875205;
  BAS[ATNO][  3].a[  7] =         0.164206000000;     BAS[ATNO][  3].d[  7] =        -0.000211197031;
  BAS[ATNO][  3].a[  8] =         0.057472000000;     BAS[ATNO][  3].d[  8] =        -0.000005760628;
  BAS[ATNO][  3].a[  9] =      1149.270500000000;     BAS[ATNO][  3].d[  9] =         0.000145208689;
  BAS[ATNO][  3].a[ 10] =       172.044570000000;     BAS[ATNO][  3].d[ 10] =         0.001103706453;
  BAS[ATNO][  3].a[ 11] =        39.080465000000;     BAS[ATNO][  3].d[ 11] =         0.006179551995;
  BAS[ATNO][  3].a[ 12] =        11.036173000000;     BAS[ATNO][  3].d[ 12] =         0.028085402086;
  BAS[ATNO][  3].a[ 13] =         3.564152000000;     BAS[ATNO][  3].d[ 13] =         0.125261350330;
  BAS[ATNO][  3].a[ 14] =         1.240443000000;     BAS[ATNO][  3].d[ 14] =         0.165833823957;
  BAS[ATNO][  3].a[ 15] =         0.447316000000;     BAS[ATNO][  3].d[ 15] =        -0.156350667549;
  BAS[ATNO][  3].a[ 16] =         0.164206000000;     BAS[ATNO][  3].d[ 16] =        -0.149856519533;
  BAS[ATNO][  3].a[ 17] =         0.057472000000;     BAS[ATNO][  3].d[ 17] =        -0.003190705068;
  BAS[ATNO][  3].a[ 18] =      1149.270500000000;     BAS[ATNO][  3].d[ 18] =         0.000544681141;
  BAS[ATNO][  3].a[ 19] =       172.044570000000;     BAS[ATNO][  3].d[ 19] =         0.005444950615;
  BAS[ATNO][  3].a[ 20] =        39.080465000000;     BAS[ATNO][  3].d[ 20] =         0.024136615461;
  BAS[ATNO][  3].a[ 21] =        11.036173000000;     BAS[ATNO][  3].d[ 21] =         0.248605470705;
  BAS[ATNO][  3].a[ 22] =         3.564152000000;     BAS[ATNO][  3].d[ 22] =         0.775782097918;
  BAS[ATNO][  3].a[ 23] =         1.240443000000;     BAS[ATNO][  3].d[ 23] =        -0.996649744812;
  BAS[ATNO][  3].a[ 24] =         0.447316000000;     BAS[ATNO][  3].d[ 24] =        -0.364893743931;
  BAS[ATNO][  3].a[ 25] =         0.164206000000;     BAS[ATNO][  3].d[ 25] =         0.735894218652;
  BAS[ATNO][  3].a[ 26] =         0.057472000000;     BAS[ATNO][  3].d[ 26] =         0.039082107277;
  BAS[ATNO][  3].a[ 27] =      1149.270500000000;     BAS[ATNO][  3].d[ 27] =         0.000159226668;
  BAS[ATNO][  3].a[ 28] =       172.044570000000;     BAS[ATNO][  3].d[ 28] =         0.003531244199;
  BAS[ATNO][  3].a[ 29] =        39.080465000000;     BAS[ATNO][  3].d[ 29] =         0.006545052308;
  BAS[ATNO][  3].a[ 30] =        11.036173000000;     BAS[ATNO][  3].d[ 30] =         0.240335693828;
  BAS[ATNO][  3].a[ 31] =         3.564152000000;     BAS[ATNO][  3].d[ 31] =         0.003416831644;
  BAS[ATNO][  3].a[ 32] =         1.240443000000;     BAS[ATNO][  3].d[ 32] =        -0.652260782192;
  BAS[ATNO][  3].a[ 33] =         0.447316000000;     BAS[ATNO][  3].d[ 33] =         0.857051870623;
  BAS[ATNO][  3].a[ 34] =         0.164206000000;     BAS[ATNO][  3].d[ 34] =        -0.302854561261;
  BAS[ATNO][  3].a[ 35] =         0.057472000000;     BAS[ATNO][  3].d[ 35] =        -0.183424063304;
  BAS[ATNO][  3].a[ 36] =      1149.270500000000;     BAS[ATNO][  3].d[ 36] =        -0.000433283962;
  BAS[ATNO][  3].a[ 37] =       172.044570000000;     BAS[ATNO][  3].d[ 37] =        -0.006255182582;
  BAS[ATNO][  3].a[ 38] =        39.080465000000;     BAS[ATNO][  3].d[ 38] =        -0.034301125073;
  BAS[ATNO][  3].a[ 39] =        11.036173000000;     BAS[ATNO][  3].d[ 39] =        -0.682273108043;
  BAS[ATNO][  3].a[ 40] =         3.564152000000;     BAS[ATNO][  3].d[ 40] =         1.212242632867;
  BAS[ATNO][  3].a[ 41] =         1.240443000000;     BAS[ATNO][  3].d[ 41] =        -0.903939518462;
  BAS[ATNO][  3].a[ 42] =         0.447316000000;     BAS[ATNO][  3].d[ 42] =         0.064971067677;
  BAS[ATNO][  3].a[ 43] =         0.164206000000;     BAS[ATNO][  3].d[ 43] =         0.648744297610;
  BAS[ATNO][  3].a[ 44] =         0.057472000000;     BAS[ATNO][  3].d[ 44] =        -0.571733203318;

  // Basis function   5 L = s
  InitBFNGauss(BAS[ATNO][  4]);
  BAS[ATNO][  4].l  = 0;
  BAS[ATNO][  4].ng = 45;
  BAS[ATNO][  4].a[  0] =      1149.270500000000;     BAS[ATNO][  4].d[  0] =         0.000000376401;
  BAS[ATNO][  4].a[  1] =       172.044570000000;     BAS[ATNO][  4].d[  1] =         0.000002917533;
  BAS[ATNO][  4].a[  2] =        39.080465000000;     BAS[ATNO][  4].d[  2] =         0.000015044232;
  BAS[ATNO][  4].a[  3] =        11.036173000000;     BAS[ATNO][  4].d[  3] =         0.000058781726;
  BAS[ATNO][  4].a[  4] =         3.564152000000;     BAS[ATNO][  4].d[  4] =         0.000171884395;
  BAS[ATNO][  4].a[  5] =         1.240443000000;     BAS[ATNO][  4].d[  5] =         0.000348614823;
  BAS[ATNO][  4].a[  6] =         0.447316000000;     BAS[ATNO][  4].d[  6] =         0.000435908420;
  BAS[ATNO][  4].a[  7] =         0.164206000000;     BAS[ATNO][  4].d[  7] =         0.000198892840;
  BAS[ATNO][  4].a[  8] =         0.057472000000;     BAS[ATNO][  4].d[  8] =         0.000005425017;
  BAS[ATNO][  4].a[  9] =      1149.270500000000;     BAS[ATNO][  4].d[  9] =        -0.000018033267;
  BAS[ATNO][  4].a[ 10] =       172.044570000000;     BAS[ATNO][  4].d[ 10] =        -0.000137067786;
  BAS[ATNO][  4].a[ 11] =        39.080465000000;     BAS[ATNO][  4].d[ 11] =        -0.000767430060;
  BAS[ATNO][  4].a[ 12] =        11.036173000000;     BAS[ATNO][  4].d[ 12] =        -0.003487887441;
  BAS[ATNO][  4].a[ 13] =         3.564152000000;     BAS[ATNO][  4].d[ 13] =        -0.015556034746;
  BAS[ATNO][  4].a[ 14] =         1.240443000000;     BAS[ATNO][  4].d[ 14] =        -0.020594674420;
  BAS[ATNO][  4].a[ 15] =         0.447316000000;     BAS[ATNO][  4].d[ 15] =         0.019416974274;
  BAS[ATNO][  4].a[ 16] =         0.164206000000;     BAS[ATNO][  4].d[ 16] =         0.018610474968;
  BAS[ATNO][  4].a[ 17] =         0.057472000000;     BAS[ATNO][  4].d[ 17] =         0.000396249272;
  BAS[ATNO][  4].a[ 18] =      1149.270500000000;     BAS[ATNO][  4].d[ 18] =        -0.000186312838;
  BAS[ATNO][  4].a[ 19] =       172.044570000000;     BAS[ATNO][  4].d[ 19] =        -0.001862491874;
  BAS[ATNO][  4].a[ 20] =        39.080465000000;     BAS[ATNO][  4].d[ 20] =        -0.008256135516;
  BAS[ATNO][  4].a[ 21] =        11.036173000000;     BAS[ATNO][  4].d[ 21] =        -0.085037625072;
  BAS[ATNO][  4].a[ 22] =         3.564152000000;     BAS[ATNO][  4].d[ 22] =        -0.265362894040;
  BAS[ATNO][  4].a[ 23] =         1.240443000000;     BAS[ATNO][  4].d[ 23] =         0.340912559516;
  BAS[ATNO][  4].a[ 24] =         0.447316000000;     BAS[ATNO][  4].d[ 24] =         0.124815022371;
  BAS[ATNO][  4].a[ 25] =         0.164206000000;     BAS[ATNO][  4].d[ 25] =        -0.251718904178;
  BAS[ATNO][  4].a[ 26] =         0.057472000000;     BAS[ATNO][  4].d[ 26] =        -0.013368368669;
  BAS[ATNO][  4].a[ 27] =      1149.270500000000;     BAS[ATNO][  4].d[ 27] =        -0.000236473771;
  BAS[ATNO][  4].a[ 28] =       172.044570000000;     BAS[ATNO][  4].d[ 28] =        -0.005244389304;
  BAS[ATNO][  4].a[ 29] =        39.080465000000;     BAS[ATNO][  4].d[ 29] =        -0.009720313969;
  BAS[ATNO][  4].a[ 30] =        11.036173000000;     BAS[ATNO][  4].d[ 30] =        -0.356931968172;
  BAS[ATNO][  4].a[ 31] =         3.564152000000;     BAS[ATNO][  4].d[ 31] =        -0.005074470730;
  BAS[ATNO][  4].a[ 32] =         1.240443000000;     BAS[ATNO][  4].d[ 32] =         0.968698078261;
  BAS[ATNO][  4].a[ 33] =         0.447316000000;     BAS[ATNO][  4].d[ 33] =        -1.272841358410;
  BAS[ATNO][  4].a[ 34] =         0.164206000000;     BAS[ATNO][  4].d[ 34] =         0.449781191044;
  BAS[ATNO][  4].a[ 35] =         0.057472000000;     BAS[ATNO][  4].d[ 35] =         0.272410272824;
  BAS[ATNO][  4].a[ 36] =      1149.270500000000;     BAS[ATNO][  4].d[ 36] =        -0.000769174107;
  BAS[ATNO][  4].a[ 37] =       172.044570000000;     BAS[ATNO][  4].d[ 37] =        -0.011104321646;
  BAS[ATNO][  4].a[ 38] =        39.080465000000;     BAS[ATNO][  4].d[ 38] =        -0.060892023639;
  BAS[ATNO][  4].a[ 39] =        11.036173000000;     BAS[ATNO][  4].d[ 39] =        -1.211184476744;
  BAS[ATNO][  4].a[ 40] =         3.564152000000;     BAS[ATNO][  4].d[ 40] =         2.151996673571;
  BAS[ATNO][  4].a[ 41] =         1.240443000000;     BAS[ATNO][  4].d[ 41] =        -1.604690995102;
  BAS[ATNO][  4].a[ 42] =         0.447316000000;     BAS[ATNO][  4].d[ 42] =         0.115337901613;
  BAS[ATNO][  4].a[ 43] =         0.164206000000;     BAS[ATNO][  4].d[ 43] =         1.151663481058;
  BAS[ATNO][  4].a[ 44] =         0.057472000000;     BAS[ATNO][  4].d[ 44] =        -1.014951890283;

  // Basis function   6 L = p
  InitBFNGauss(BAS[ATNO][  5]);
  BAS[ATNO][  5].l  = 1;
  BAS[ATNO][  5].ng = 16;
  BAS[ATNO][  5].a[  0] =         4.550000000000;     BAS[ATNO][  5].d[  0] =         0.061916416260;
  BAS[ATNO][  5].a[  1] =         1.592500000000;     BAS[ATNO][  5].d[  1] =         0.263938890708;
  BAS[ATNO][  5].a[  2] =         0.557375000000;     BAS[ATNO][  5].d[  2] =         0.311538699042;
  BAS[ATNO][  5].a[  3] =         0.195081000000;     BAS[ATNO][  5].d[  3] =         0.192597466371;
  BAS[ATNO][  5].a[  4] =         4.550000000000;     BAS[ATNO][  5].d[  4] =        -0.129790519292;
  BAS[ATNO][  5].a[  5] =         1.592500000000;     BAS[ATNO][  5].d[  5] =        -0.355682044045;
  BAS[ATNO][  5].a[  6] =         0.557375000000;     BAS[ATNO][  5].d[  6] =        -0.137724953930;
  BAS[ATNO][  5].a[  7] =         0.195081000000;     BAS[ATNO][  5].d[  7] =         0.692188134002;
  BAS[ATNO][  5].a[  8] =         4.550000000000;     BAS[ATNO][  5].d[  8] =         0.151360461510;
  BAS[ATNO][  5].a[  9] =         1.592500000000;     BAS[ATNO][  5].d[  9] =         0.019345962678;
  BAS[ATNO][  5].a[ 10] =         0.557375000000;     BAS[ATNO][  5].d[ 10] =        -0.223760550957;
  BAS[ATNO][  5].a[ 11] =         0.195081000000;     BAS[ATNO][  5].d[ 11] =         0.159777689420;
  BAS[ATNO][  5].a[ 12] =         4.550000000000;     BAS[ATNO][  5].d[ 12] =        -0.092373345056;
  BAS[ATNO][  5].a[ 13] =         1.592500000000;     BAS[ATNO][  5].d[ 13] =         0.157603905232;
  BAS[ATNO][  5].a[ 14] =         0.557375000000;     BAS[ATNO][  5].d[ 14] =        -0.136393493978;
  BAS[ATNO][  5].a[ 15] =         0.195081000000;     BAS[ATNO][  5].d[ 15] =         0.060488577572;

  // Basis function   7 L = p
  InitBFNGauss(BAS[ATNO][  6]);
  BAS[ATNO][  6].l  = 1;
  BAS[ATNO][  6].ng = 16;
  BAS[ATNO][  6].a[  0] =         4.550000000000;     BAS[ATNO][  6].d[  0] =         0.057141592272;
  BAS[ATNO][  6].a[  1] =         1.592500000000;     BAS[ATNO][  6].d[  1] =         0.243584648282;
  BAS[ATNO][  6].a[  2] =         0.557375000000;     BAS[ATNO][  6].d[  2] =         0.287513690115;
  BAS[ATNO][  6].a[  3] =         0.195081000000;     BAS[ATNO][  6].d[  3] =         0.177744878673;
  BAS[ATNO][  6].a[  4] =         4.550000000000;     BAS[ATNO][  6].d[  4] =         0.088887320610;
  BAS[ATNO][  6].a[  5] =         1.592500000000;     BAS[ATNO][  6].d[  5] =         0.243589624703;
  BAS[ATNO][  6].a[  6] =         0.557375000000;     BAS[ATNO][  6].d[  6] =         0.094321235501;
  BAS[ATNO][  6].a[  7] =         0.195081000000;     BAS[ATNO][  6].d[  7] =        -0.474046555368;
  BAS[ATNO][  6].a[  8] =         4.550000000000;     BAS[ATNO][  6].d[  8] =        -0.458195761869;
  BAS[ATNO][  6].a[  9] =         1.592500000000;     BAS[ATNO][  6].d[  9] =        -0.058563762426;
  BAS[ATNO][  6].a[ 10] =         0.557375000000;     BAS[ATNO][  6].d[ 10] =         0.677364055971;
  BAS[ATNO][  6].a[ 11] =         0.195081000000;     BAS[ATNO][  6].d[ 11] =        -0.483676248100;
  BAS[ATNO][  6].a[ 12] =         4.550000000000;     BAS[ATNO][  6].d[ 12] =         0.385092539646;
  BAS[ATNO][  6].a[ 13] =         1.592500000000;     BAS[ATNO][  6].d[ 13] =        -0.657030316341;
  BAS[ATNO][  6].a[ 14] =         0.557375000000;     BAS[ATNO][  6].d[ 14] =         0.568606852498;
  BAS[ATNO][  6].a[ 15] =         0.195081000000;     BAS[ATNO][  6].d[ 15] =        -0.252169063951;

  // Basis function   8 L = p
  InitBFNGauss(BAS[ATNO][  7]);
  BAS[ATNO][  7].l  = 1;
  BAS[ATNO][  7].ng = 16;
  BAS[ATNO][  7].a[  0] =         4.550000000000;     BAS[ATNO][  7].d[  0] =         0.028935102018;
  BAS[ATNO][  7].a[  1] =         1.592500000000;     BAS[ATNO][  7].d[  1] =         0.123345296619;
  BAS[ATNO][  7].a[  2] =         0.557375000000;     BAS[ATNO][  7].d[  2] =         0.145589886881;
  BAS[ATNO][  7].a[  3] =         0.195081000000;     BAS[ATNO][  7].d[  3] =         0.090005650755;
  BAS[ATNO][  7].a[  4] =         4.550000000000;     BAS[ATNO][  7].d[  4] =         0.097058129293;
  BAS[ATNO][  7].a[  5] =         1.592500000000;     BAS[ATNO][  7].d[  5] =         0.265981167240;
  BAS[ATNO][  7].a[  6] =         0.557375000000;     BAS[ATNO][  7].d[  6] =         0.102991547135;
  BAS[ATNO][  7].a[  7] =         0.195081000000;     BAS[ATNO][  7].d[  7] =        -0.517622440926;
  BAS[ATNO][  7].a[  8] =         4.550000000000;     BAS[ATNO][  7].d[  8] =         0.480941020080;
  BAS[ATNO][  7].a[  9] =         1.592500000000;     BAS[ATNO][  7].d[  9] =         0.061470921350;
  BAS[ATNO][  7].a[ 10] =         0.557375000000;     BAS[ATNO][  7].d[ 10] =        -0.710989029482;
  BAS[ATNO][  7].a[ 11] =         0.195081000000;     BAS[ATNO][  7].d[ 11] =         0.507686381036;
  BAS[ATNO][  7].a[ 12] =         4.550000000000;     BAS[ATNO][  7].d[ 12] =        -0.773841548849;
  BAS[ATNO][  7].a[ 13] =         1.592500000000;     BAS[ATNO][  7].d[ 13] =         1.320299162652;
  BAS[ATNO][  7].a[ 14] =         0.557375000000;     BAS[ATNO][  7].d[ 14] =        -1.142612650527;
  BAS[ATNO][  7].a[ 15] =         0.195081000000;     BAS[ATNO][  7].d[ 15] =         0.506732483572;

  // Basis function   9 L = p
  InitBFNGauss(BAS[ATNO][  8]);
  BAS[ATNO][  8].l  = 1;
  BAS[ATNO][  8].ng = 16;
  BAS[ATNO][  8].a[  0] =         4.550000000000;     BAS[ATNO][  8].d[  0] =        -0.005604499146;
  BAS[ATNO][  8].a[  1] =         1.592500000000;     BAS[ATNO][  8].d[  1] =        -0.023891003016;
  BAS[ATNO][  8].a[  2] =         0.557375000000;     BAS[ATNO][  8].d[  2] =        -0.028199603243;
  BAS[ATNO][  8].a[  3] =         0.195081000000;     BAS[ATNO][  8].d[  3] =        -0.017433378755;
  BAS[ATNO][  8].a[  4] =         4.550000000000;     BAS[ATNO][  8].d[  4] =        -0.026516951319;
  BAS[ATNO][  8].a[  5] =         1.592500000000;     BAS[ATNO][  8].d[  5] =        -0.072667892064;
  BAS[ATNO][  8].a[  6] =         0.557375000000;     BAS[ATNO][  8].d[  6] =        -0.028138002056;
  BAS[ATNO][  8].a[  7] =         0.195081000000;     BAS[ATNO][  8].d[  7] =         0.141418026161;
  BAS[ATNO][  8].a[  8] =         4.550000000000;     BAS[ATNO][  8].d[  8] =        -0.516413887885;
  BAS[ATNO][  8].a[  9] =         1.592500000000;     BAS[ATNO][  8].d[  9] =        -0.066004845004;
  BAS[ATNO][  8].a[ 10] =         0.557375000000;     BAS[ATNO][  8].d[ 10] =         0.763429596622;
  BAS[ATNO][  8].a[ 11] =         0.195081000000;     BAS[ATNO][  8].d[ 11] =        -0.545131912045;
  BAS[ATNO][  8].a[ 12] =         4.550000000000;     BAS[ATNO][  8].d[ 12] =        -1.089439876021;
  BAS[ATNO][  8].a[ 13] =         1.592500000000;     BAS[ATNO][  8].d[ 13] =         1.858761083856;
  BAS[ATNO][  8].a[ 14] =         0.557375000000;     BAS[ATNO][  8].d[ 14] =        -1.608608100951;
  BAS[ATNO][  8].a[ 15] =         0.195081000000;     BAS[ATNO][  8].d[ 15] =         0.713394847950;

  // Basis function  10 L = d
  InitBFNGauss(BAS[ATNO][  9]);
  BAS[ATNO][  9].l  = 2;
  BAS[ATNO][  9].ng = 9;
  BAS[ATNO][  9].a[  0] =         3.400000000000;     BAS[ATNO][  9].d[  0] =        -0.187274851015;
  BAS[ATNO][  9].a[  1] =         1.360000000000;     BAS[ATNO][  9].d[  1] =        -0.377539475100;
  BAS[ATNO][  9].a[  2] =         0.544000000000;     BAS[ATNO][  9].d[  2] =        -0.202479370795;
  BAS[ATNO][  9].a[  3] =         3.400000000000;     BAS[ATNO][  9].d[  3] =         0.595002210116;
  BAS[ATNO][  9].a[  4] =         1.360000000000;     BAS[ATNO][  9].d[  4] =        -0.115726400138;
  BAS[ATNO][  9].a[  5] =         0.544000000000;     BAS[ATNO][  9].d[  5] =        -0.436956651461;
  BAS[ATNO][  9].a[  6] =         3.400000000000;     BAS[ATNO][  9].d[  6] =        -0.483463630544;
  BAS[ATNO][  9].a[  7] =         1.360000000000;     BAS[ATNO][  9].d[  7] =         0.812620871815;
  BAS[ATNO][  9].a[  8] =         0.544000000000;     BAS[ATNO][  9].d[  8] =        -0.547441516117;

  // Basis function  11 L = d
  InitBFNGauss(BAS[ATNO][ 10]);
  BAS[ATNO][ 10].l  = 2;
  BAS[ATNO][ 10].ng = 9;
  BAS[ATNO][ 10].a[  0] =         3.400000000000;     BAS[ATNO][ 10].d[  0] =         0.195673318530;
  BAS[ATNO][ 10].a[  1] =         1.360000000000;     BAS[ATNO][ 10].d[  1] =         0.394470488528;
  BAS[ATNO][ 10].a[  2] =         0.544000000000;     BAS[ATNO][ 10].d[  2] =         0.211559695297;
  BAS[ATNO][ 10].a[  3] =         3.400000000000;     BAS[ATNO][ 10].d[  3] =         0.318823160494;
  BAS[ATNO][ 10].a[  4] =         1.360000000000;     BAS[ATNO][ 10].d[  4] =        -0.062010285033;
  BAS[ATNO][ 10].a[  5] =         0.544000000000;     BAS[ATNO][ 10].d[  5] =        -0.234136778400;
  BAS[ATNO][ 10].a[  6] =         3.400000000000;     BAS[ATNO][ 10].d[  6] =        -0.757741250731;
  BAS[ATNO][ 10].a[  7] =         1.360000000000;     BAS[ATNO][ 10].d[  7] =         1.273635319965;
  BAS[ATNO][ 10].a[  8] =         0.544000000000;     BAS[ATNO][ 10].d[  8] =        -0.858014942423;

  // Basis function  12 L = d
  InitBFNGauss(BAS[ATNO][ 11]);
  BAS[ATNO][ 11].l  = 2;
  BAS[ATNO][ 11].ng = 9;
  BAS[ATNO][ 11].a[  0] =         3.400000000000;     BAS[ATNO][ 11].d[  0] =        -0.073140828704;
  BAS[ATNO][ 11].a[  1] =         1.360000000000;     BAS[ATNO][ 11].d[  1] =        -0.147449323429;
  BAS[ATNO][ 11].a[  2] =         0.544000000000;     BAS[ATNO][ 11].d[  2] =        -0.079079005511;
  BAS[ATNO][ 11].a[  3] =         3.400000000000;     BAS[ATNO][ 11].d[  3] =        -0.670538894754;
  BAS[ATNO][ 11].a[  4] =         1.360000000000;     BAS[ATNO][ 11].d[  4] =         0.130418091098;
  BAS[ATNO][ 11].a[  5] =         0.544000000000;     BAS[ATNO][ 11].d[  5] =         0.492429145883;
  BAS[ATNO][ 11].a[  6] =         3.400000000000;     BAS[ATNO][ 11].d[  6] =        -0.789286721804;
  BAS[ATNO][ 11].a[  7] =         1.360000000000;     BAS[ATNO][ 11].d[  7] =         1.326657939633;
  BAS[ATNO][ 11].a[  8] =         0.544000000000;     BAS[ATNO][ 11].d[  8] =        -0.893734900286;

  // Basis function  13 L = f
  InitBFNGauss(BAS[ATNO][ 12]);
  BAS[ATNO][ 12].l  = 3;
  BAS[ATNO][ 12].ng = 1;
  BAS[ATNO][ 12].a[  0] =         1.813333000000;     BAS[ATNO][ 12].d[  0] =         1.000000000000;

-------
TIMINGS
-------

Total SCF time: 0 days 0 hours 0 min 1 sec 

Total time                  ....       1.288 sec
Sum of individual times     ....       1.116 sec  ( 86.7%)

Fock matrix formation       ....       0.878 sec  ( 68.2%)
  XC integration            ....       0.017 sec  (  1.9% of F)
    Basis function eval.    ....       0.003 sec  ( 19.0% of XC)
    Density eval.           ....       0.001 sec  (  3.8% of XC)
    XC-Functional eval.     ....       0.001 sec  (  5.7% of XC)
    XC-Potential eval.      ....       0.001 sec  (  4.1% of XC)
Diagonalization             ....       0.000 sec  (  0.0%)
Density matrix formation    ....       0.000 sec  (  0.0%)
Population analysis         ....       0.001 sec  (  0.0%)
Initial guess               ....       0.092 sec  (  7.2%)
Orbital Transformation      ....       0.000 sec  (  0.0%)
Orbital Orthonormalization  ....       0.000 sec  (  0.0%)
DIIS solution               ....       0.000 sec  (  0.0%)
SOSCF solution              ....       0.001 sec  (  0.1%)
Grid generation             ....       0.144 sec  ( 11.1%)

-------------------------   --------------------
FINAL SINGLE POINT ENERGY        -2.835896695906
-------------------------   --------------------


                            ***************************************
                            *     ORCA property calculations      *
                            ***************************************

                                    ---------------------
                                    Active property flags
                                    ---------------------
   (+) Dipole Moment


------------------------------------------------------------------------------
                       ORCA ELECTRIC PROPERTIES CALCULATION
------------------------------------------------------------------------------

Dipole Moment Calculation                       ... on
Quadrupole Moment Calculation                   ... off
Polarizability Calculation                      ... off
GBWName                                         ... He_ano-rcc-qzp_68.5179945_.gbw
Electron density file                           ... He_ano-rcc-qzp_68.5179945_.scfp
The origin for moment calculation is the CENTER OF MASS  = ( 0.000000,  0.000000  0.000000)

-------------
DIPOLE MOMENT
-------------
                                X             Y             Z
Electronic contribution:      0.00000       0.00000      -0.00000
Nuclear contribution   :      0.00000       0.00000       0.00000
                        -----------------------------------------
Total Dipole Moment    :      0.00000       0.00000      -0.00000
                        -----------------------------------------
Magnitude (a.u.)       :      0.00000
Magnitude (Debye)      :      0.00000



--------------------
Rotational spectrum 
--------------------
 
Rotational constants in cm-1:     0.000000     0.000000     0.000000 
Rotational constants in MHz :     0.000000     0.000000     0.000000 

 Dipole components along the rotational axes: 
x,y,z [a.u.] :     0.000000     0.000000    -0.000000 
x,y,z [Debye]:     0.000000     0.000000    -0.000000 

 

Timings for individual modules:

Sum of individual times         ...        2.154 sec (=   0.036 min)
GTO integral calculation        ...        0.326 sec (=   0.005 min)  15.1 %
Relativistic integrals          ...        0.287 sec (=   0.005 min)  13.3 %
SCF iterations                  ...        1.541 sec (=   0.026 min)  71.5 %
                             ****ORCA TERMINATED NORMALLY****
TOTAL RUN TIME: 0 days 0 hours 0 minutes 2 seconds 476 msec
