
                                 *****************
                                 * O   R   C   A *
                                 *****************

           --- An Ab Initio, DFT and Semiempirical electronic structure package ---

                  #######################################################
                  #                        -***-                        #
                  #          Department of theory and spectroscopy      #
                  #               Directorship: Frank Neese             #
                  #        Max Planck Institute fuer Kohlenforschung    #
                  #                Kaiser Wilhelm Platz 1               #
                  #                 D-45470 Muelheim/Ruhr               #
                  #                      Germany                        #
                  #                                                     #
                  #                  All rights reserved                #
                  #                        -***-                        #
                  #######################################################


                         Program Version 4.2.1 -  RELEASE  -


 With contributions from (in alphabetic order):
   Daniel Aravena         : Magnetic Suceptibility
   Michael Atanasov       : Ab Initio Ligand Field Theory (pilot matlab implementation)
   Alexander A. Auer      : GIAO ZORA, VPT2
   Ute Becker             : Parallelization
   Giovanni Bistoni       : ED, misc. LED, open-shell LED, HFLD
   Martin Brehm           : Molecular dynamics
   Dmytro Bykov           : SCF Hessian
   Vijay G. Chilkuri      : MRCI spin determinant printing, contributions to CSF-ICE
   Dipayan Datta          : RHF DLPNO-CCSD density
   Achintya Kumar Dutta   : EOM-CC, STEOM-CC
   Dmitry Ganyushin       : Spin-Orbit,Spin-Spin,Magnetic field MRCI
   Miquel Garcia          : C-PCM Hessian, Gaussian charge scheme
   Yang Guo               : DLPNO-NEVPT2, CIM, IAO-localization
   Andreas Hansen         : Spin unrestricted coupled pair/coupled cluster methods
   Benjamin Helmich-Paris : CASSCF linear response (MC-RPA)
   Lee Huntington         : MR-EOM, pCC
   Robert Izsak           : Overlap fitted RIJCOSX, COSX-SCS-MP3, EOM
   Christian Kollmar      : KDIIS, OOCD, Brueckner-CCSD(T), CCSD density
   Simone Kossmann        : Meta GGA functionals, TD-DFT gradient, OOMP2, MP2 Hessian
   Martin Krupicka        : AUTO-CI
   Lucas Lang             : DCDCAS
   Dagmar Lenk            : GEPOL surface, SMD
   Dimitrios Liakos       : Extrapolation schemes; Compound Job, initial MDCI parallelization
   Dimitrios Manganas     : Further ROCIS development; embedding schemes
   Dimitrios Pantazis     : SARC Basis sets
   Taras Petrenko         : DFT Hessian,TD-DFT gradient, ASA, ECA, R-Raman, ABS, FL, XAS/XES, NRVS
   Peter Pinski           : DLPNO-MP2, DLPNO-MP2 Gradient
   Christoph Reimann      : Effective Core Potentials
   Marius Retegan         : Local ZFS, SOC
   Christoph Riplinger    : Optimizer, TS searches, QM/MM, DLPNO-CCSD(T), (RO)-DLPNO pert. Triples
   Tobias Risthaus        : Range-separated hybrids, TD-DFT gradient, RPA, STAB
   Michael Roemelt        : Original ROCIS implementation
   Masaaki Saitow         : Open-shell DLPNO-CCSD energy and density
   Barbara Sandhoefer     : DKH picture change effects
   Avijit Sen             : IP-ROCIS
   Kantharuban Sivalingam : CASSCF convergence, NEVPT2, FIC-MRCI
   Bernardo de Souza      : ESD, SOC TD-DFT
   Georgi Stoychev        : AutoAux, RI-MP2 NMR
   Willem Van den Heuvel  : Paramagnetic NMR
   Boris Wezisla          : Elementary symmetry handling
   Frank Wennmohs         : Technical directorship


 We gratefully acknowledge several colleagues who have allowed us to
 interface, adapt or use parts of their codes:
   Stefan Grimme, W. Hujo, H. Kruse,             : VdW corrections, initial TS optimization,
                  C. Bannwarth                     DFT functionals, gCP, sTDA/sTD-DF
   Ed Valeev, F. Pavosevic, A. Kumar             : LibInt (2-el integral package), F12 methods
   Garnet Chan, S. Sharma, J. Yang, R. Olivares  : DMRG
   Ulf Ekstrom                                   : XCFun DFT Library
   Mihaly Kallay                                 : mrcc  (arbitrary order and MRCC methods)
   Andreas Klamt, Michael Diedenhofen            : otool_cosmo (COSMO solvation model)
   Jiri Pittner, Ondrej Demel                    : Mk-CCSD
   Frank Weinhold                                : gennbo (NPA and NBO analysis)
   Christopher J. Cramer and Donald G. Truhlar   : smd solvation model
   Lars Goerigk                                  : TD-DFT with DH, B97 family of functionals
   V. Asgeirsson, H. Jonsson                     : NEB implementation
   FAccTs GmbH                                   : IRC, NEB, NEB-TS, Multilevel, MM, QM/MM, CI optimization
   S Lehtola, MJT Oliveira, MAL Marques          : LibXC Library


 Your calculation uses the libint2 library for the computation of 2-el integrals
 For citations please refer to: http://libint.valeyev.net

 Your ORCA version has been built with support for libXC version: 4.2.3
 For citations please refer to: https://tddft.org/programs/libxc/

 This ORCA versions uses:
   CBLAS   interface :  Fast vector & matrix operations
   LAPACKE interface :  Fast linear algebra routines
   SCALAPACK package :  Parallel linear algebra routines


----- Orbital basis set information -----
Your calculation utilizes the basis: ANO-RCC-TZP
   H, He:       P.-O. Widmark, P.-A. Malmqvist, and B. O. Roos, Theor. Chim. Acta 77, 291 (1990).
   s block:     B. O. Roos, V. Veryazov and P.-O. Widmark, Theor. Chem. Acc. 111, 345 (2004).
   p block:     B. O. Roos, R. Lindh, P.-A. Malmqvist, V. Veryazov, and P.-O. Widmark, J. Phys. Chem. A 108, 2851 (2004).
   d block:     B. O. Roos, R. Lindh, P.-A. Malmqvist, V. Veryazov, and P.-O. Widmark, J. Phys. Chem. A 109, 6575 (2005).
   actinides:   B. O. Roos, R. Lindh, P.-A. Malmqvist, V. Veryazov, and P.-O. Widmark, Chem. Phys. Letters 409, 295 (2005).
   lanthanides: B. O. Roos, R. Lindh, P.-A. Malmqvist, V. Veryazov, P.-O. Widmark and A. C. Borin, J. Phys. Chem. A 112, 11431 (2008).

================================================================================
                                        WARNINGS
                       Please study these warnings very carefully!
================================================================================


INFO   : the flag for use of LIBINT has been found!

================================================================================
                                       INPUT FILE
================================================================================
NAME = He_ano-rcc-tzp_68.5179945_.inp
|  1> ! LDA ano-rcc-tzp nori grid5 finalgrid6 verytightscf
|  2> %Pal NProcs 18 End
|  3> 
|  4> % REL
|  5>   Method ZORA
|  6>   ModelPot 1, 0, 0, 0
|  7>   velit 68.5179945
|  8> END
|  9> 
| 10> *xyz 0 1
| 11> He 0.0 0.0 0.0
| 12> **                         ****END OF INPUT****
================================================================================

                       ****************************
                       * Single Point Calculation *
                       ****************************

---------------------------------
CARTESIAN COORDINATES (ANGSTROEM)
---------------------------------
  He     0.000000    0.000000    0.000000

----------------------------
CARTESIAN COORDINATES (A.U.)
----------------------------
  NO LB      ZA    FRAG     MASS         X           Y           Z
   0 He    2.0000    0     4.003    0.000000    0.000000    0.000000

--------------------------------
INTERNAL COORDINATES (ANGSTROEM)
--------------------------------
 He     0   0   0     0.000000000000     0.00000000     0.00000000

---------------------------
INTERNAL COORDINATES (A.U.)
---------------------------
 He     0   0   0     0.000000000000     0.00000000     0.00000000

---------------------
BASIS SET INFORMATION
---------------------
There are 1 groups of distinct atoms

 Group   1 Type He  : 36s12p6d contracted to 4s3p2d pattern {9999/444/33}

Atom   0He   basis set group =>   1


           ************************************************************
           *        Program running with 18 parallel MPI-processes    *
           *              working on a common directory               *
           ************************************************************


------------------------------------------------------------------------------
                       ORCA GTO INTEGRAL CALCULATION
                     -- ANO INTEGRAL GENERATION BRANCH --
------------------------------------------------------------------------------


Gathering ANO information                         ... done
Calculation Information:
Number of atoms                                   ... 1
Number of basis functions                         ... 23
Highest angular momentum                          ... 2
Number of primitive shells                        ... 16
Total number of shells                            ... 9
Maximum number of shells                          ... 9

Getting memory                                    ... done
Making prescreening integrals                     ... done
Gathering atom contracted prescreening            ... done
Making one-electron integrals                     ... done

Timings:

Total time                                        ...    0.1 sec
Prescreening matrix                               ...    0.0 sec
One-electron matrix                               ...    0.0 sec
Two-index integrals + Cholesky                    ...    0.0 sec


           ************************************************************
           *        Program running with 18 parallel MPI-processes    *
           *              working on a common directory               *
           ************************************************************
------------------------------------------------------------------------------
                          ORCA RELATIVISTIC HAMILTONIAN
------------------------------------------------------------------------------

Relativistic Method            ... ZORA(MP)
Treatment of potential         ... Van Wuellen
Nucleus model                  ... Point Nucleus
Speed of light used            ...  68.51799450000000


            *************************************************
            *         ZERO ORDER REGULAR APPROXIMATION      *
            *                     ZORA(MP)                  *
            *            Programmed by FN according to      *
            *                   C. van Wuellen              *
            *       J. Chem. Phys. (1998) vol 109, 392-399  *
            *************************************************

Terms included in model potential: +V(e,N)
Basis function cutoff value   ... 1.000000e-12
Loading the fitted atomic densities  (DKH4)  ... done
Calculating the cutoffs                      ... done
Number of fit functions                      ... 6
Setting up the integration grid ... done


           ************************************************************
           *        Program running with 18 parallel MPI-processes    *
           *              working on a common directory               *
           ************************************************************
-------------------------------------------------------------------------------
                                 ORCA SCF
-------------------------------------------------------------------------------

------------
SCF SETTINGS
------------
Hamiltonian:
 Density Functional     Method          .... DFT(GTOs)
 Exchange Functional    Exchange        .... Slater
   X-Alpha parameter    XAlpha          ....  0.666667
 Correlation Functional Correlation     .... VWN-5
 Gradients option       PostSCFGGA      .... off
   Density functional embedding theory  .... OFF

Relativistic Settings:
 Scalar relativistic method             .... ZORA
 Speed of light used       Velit        ....       68.5179945
Orbital energies will be scaled


General Settings:
 Integral files         IntName         .... He_ano-rcc-tzp_68.5179945_
 Hartree-Fock type      HFTyp           .... RHF
 Total Charge           Charge          ....    0
 Multiplicity           Mult            ....    1
 Number of Electrons    NEL             ....    2
 Basis Dimension        Dim             ....   23
 Nuclear Repulsion      ENuc            ....      0.0000000000 Eh

Convergence Acceleration:
 DIIS                   CNVDIIS         .... on
   Start iteration      DIISMaxIt       ....    12
   Startup error        DIISStart       ....  0.200000
   # of expansion vecs  DIISMaxEq       ....     5
   Bias factor          DIISBfac        ....   1.050
   Max. coefficient     DIISMaxC        ....  10.000
 Newton-Raphson         CNVNR           .... off
 SOSCF                  CNVSOSCF        .... on
   Start iteration      SOSCFMaxIt      ....   150
   Startup grad/error   SOSCFStart      ....  0.003300
 Level Shifting         CNVShift        .... on
   Level shift para.    LevelShift      ....    0.2500
   Turn off err/grad.   ShiftErr        ....    0.0010
 Zerner damping         CNVZerner       .... off
 Static damping         CNVDamp         .... on
   Fraction old density DampFac         ....    0.7000
   Max. Damping (<1)    DampMax         ....    0.9800
   Min. Damping (>=0)   DampMin         ....    0.0000
   Turn off err/grad.   DampErr         ....    0.1000
 Fernandez-Rico         CNVRico         .... off

SCF Procedure:
 Maximum # iterations   MaxIter         ....   125
 SCF integral mode      SCFMode         .... Direct
   Integral package                     .... LIBINT
 Reset frequency        DirectResetFreq ....    20
 Integral Threshold     Thresh          ....  1.000e-12 Eh
 Primitive CutOff       TCut            ....  1.000e-14 Eh

Convergence Tolerance:
 Convergence Check Mode ConvCheckMode   .... Total+1el-Energy
 Convergence forced     ConvForced      .... 0
 Energy Change          TolE            ....  1.000e-09 Eh
 1-El. energy change                    ....  1.000e-06 Eh
 Orbital Gradient       TolG            ....  2.000e-06
 Orbital Rotation angle TolX            ....  2.000e-06
 DIIS Error             TolErr          ....  1.000e-08


Diagonalization of the overlap matrix:
Smallest eigenvalue                        ... 1.000e+00
Time for diagonalization                   ...    0.000 sec
Threshold for overlap eigenvalues          ... 1.000e-08
Number of eigenvalues below threshold      ... 0
Time for construction of square roots      ...    0.001 sec
Total time needed                          ...    0.001 sec

-------------------
DFT GRID GENERATION
-------------------

General Integration Accuracy     IntAcc      ...  5.010
Radial Grid Type                 RadialGrid  ... Gauss-Chebyshev
Angular Grid (max. acc.)         AngularGrid ... Lebedev-434
Angular grid pruning method      GridPruning ... 3 (G Style)
Weight generation scheme         WeightScheme... Becke
Basis function cutoff            BFCut       ...    1.0000e-12
Integration weight cutoff        WCut        ...    1.0000e-14
Grids for H and He will be reduced by one unit

# of grid points (after initial pruning)     ...   6764 (   0.0 sec)
# of grid points (after weights+screening)   ...   6764 (   0.0 sec)
Grid point division into batches done        ...    0.0 sec
Reduced shell lists constructed in    0.0 sec

Total number of grid points                  ...     6764
Total number of batches                      ...      106
Average number of points per batch           ...       63
Average number of grid points per atom       ...     6764
Average number of shells per batch           ...     6.00 (66.67%)
Average number of basis functions per batch  ...    11.14 (48.45%)
Average number of large shells per batch     ...     5.14 (85.71%)
Average number of large basis fcns per batch ...     8.57 (76.92%)
Maximum spatial batch extension              ...  15.22, 15.22, 15.22 au
Average spatial batch extension              ...   0.77,  0.77,  0.77 au

Time for grid setup =    0.049 sec

------------------------------
INITIAL GUESS: MODEL POTENTIAL
------------------------------
Loading ZORA relativistic densities                ... done
Calculating cut-offs                               ... done
Setting up the integral package                    ... done
Initializing the effective Hamiltonian             ... done
Starting the Coulomb interaction                   ... done (   0.0 sec)
Reading the grid                                   ... done
Mapping shells                                     ... done
Starting the XC term evaluation                    ... done (   0.0 sec)
  promolecular density results
     # of electrons  =      1.999920377
     EX              =     -0.884114011
     EC              =     -0.112857661
     EX+EC           =     -0.996971673
Transforming the Hamiltonian                       ... done (   0.0 sec)
Diagonalizing the Hamiltonian                      ... done (   0.0 sec)
Back transforming the eigenvectors                 ... done (   0.0 sec)
Now organizing SCF variables                       ... done
                      ------------------
                      INITIAL GUESS DONE (   0.1 sec)
                      ------------------
--------------
SCF ITERATIONS
--------------
ITER       Energy         Delta-E        Max-DP      RMS-DP      [F,P]     Damp
               ***  Starting incremental Fock matrix formation  ***
  0     -2.8356081375   0.000000000000 0.00547091  0.00024040  0.0315259 0.7000
                      *** Initiating the SOSCF procedure ***
                      *** Re-Reading the Fockian *** 
                      *** Removing any level shift *** 
ITER      Energy       Delta-E        Grad      Rot      Max-DP    RMS-DP
  1     -2.83569326  -0.0000851264  0.001089  0.001089  0.014133  0.000632
               *** Restarting incremental Fock matrix formation ***
  2     -2.83582043  -0.0001271676  0.003063  0.002678  0.005561  0.000246
  3     -2.83583225  -0.0000118222  0.001209  0.000815  0.001658  0.000074
  4     -2.83583477  -0.0000025194  0.000002  0.000001  0.000001  0.000000
                 **** Energy Check signals convergence ****
              ***Rediagonalizing the Fockian in SOSCF/NRSCF***

               *****************************************************
               *                     SUCCESS                       *
               *           SCF CONVERGED AFTER   5 CYCLES          *
               *****************************************************

Setting up the final grid:

General Integration Accuracy     IntAcc      ...  5.340
Radial Grid Type                 RadialGrid  ... Gauss-Chebyshev
Angular Grid (max. acc.)         AngularGrid ... Lebedev-590
Angular grid pruning method      GridPruning ... 3 (G Style)
Weight generation scheme         WeightScheme... Becke
Basis function cutoff            BFCut       ...    1.0000e-12
Integration weight cutoff        WCut        ...    1.0000e-14
Grids for H and He will be reduced by one unit

# of grid points (after initial pruning)     ...  11406 (   0.0 sec)
# of grid points (after weights+screening)   ...  11406 (   0.0 sec)
Grid point division into batches done        ...    0.1 sec
Reduced shell lists constructed in    0.1 sec

Total number of grid points                  ...    11406
Total number of batches                      ...      179
Average number of points per batch           ...       63
Average number of grid points per atom       ...    11406
Average number of shells per batch           ...     4.73 (52.53%)
Average number of basis functions per batch  ...     6.91 (30.04%)
Average number of large shells per batch     ...     3.09 (65.38%)
Average number of large basis fcns per batch ...     3.09 (44.74%)
Maximum spatial batch extension              ...  16.29, 16.29, 16.29 au
Average spatial batch extension              ...   0.81,  0.81,  0.81 au

Final grid set up in    0.1 sec
Final integration                            ... done (   0.0 sec)
Change in XC energy                          ...     0.000000004
Integrated number of electrons               ...     1.999999999
Previous integrated no of electrons          ...     2.000000002

----------------
TOTAL SCF ENERGY
----------------

Total Energy       :           -2.83583477 Eh             -77.16699 eV

Components:
Nuclear Repulsion  :            0.00000000 Eh               0.00000 eV
Electronic Energy  :           -2.83583477 Eh             -77.16699 eV
One Electron Energy:           -3.86004880 Eh            -105.03727 eV
Two Electron Energy:            1.02421403 Eh              27.87028 eV

Virial components:
Potential Energy   :           -5.60505613 Eh            -152.52133 eV
Kinetic Energy     :            2.76922136 Eh              75.35434 eV
Virial Ratio       :            2.02405492


DFT components:
N(Alpha)           :        0.999999999544 electrons
N(Beta)            :        0.999999999544 electrons
N(Total)           :        1.999999999088 electrons
E(X)               :       -0.862751637481 Eh       
E(C)               :       -0.111540588659 Eh       
E(XC)              :       -0.974292226140 Eh       
DFET-embed. en.    :        0.000000000000 Eh       

---------------
SCF CONVERGENCE
---------------

  Last Energy change         ...   -1.6387e-12  Tolerance :   1.0000e-09
  Last MAX-Density change    ...    2.6337e-09  Tolerance :   1.0000e-08
  Last RMS-Density change    ...    1.3176e-10  Tolerance :   1.0000e-09
  Last Orbital Gradient      ...    5.2404e-09  Tolerance :   2.0000e-06
  Last Orbital Rotation      ...    1.4301e-09  Tolerance :   2.0000e-06

             **** THE GBW FILE WAS UPDATED (He_ano-rcc-tzp_68.5179945_.gbw) ****
             **** DENSITY FILE WAS UPDATED (He_ano-rcc-tzp_68.5179945_.scfp) ****
             **** ENERGY FILE WAS UPDATED (He_ano-rcc-tzp_68.5179945_.en.tmp) ****
             **** THE GBW FILE WAS UPDATED (He_ano-rcc-tzp_68.5179945_.gbw) ****
             **** DENSITY FILE WAS UPDATED (He_ano-rcc-tzp_68.5179945_.scfp) ****
----------------
ORBITAL ENERGIES
----------------

  NO   OCC          E(Eh)            E(eV) 
   0   2.0000      -0.569885       -15.5074 
   1   0.0000       0.288161         7.8412 
   2   0.0000       0.288161         7.8412 
   3   0.0000       0.288161         7.8412 
   4   0.0000       0.346597         9.4314 
   5   0.0000       1.773698        48.2648 
   6   0.0000       1.773698        48.2648 
   7   0.0000       1.773698        48.2648 
   8   0.0000       2.312781        62.9340 
   9   0.0000       2.326491        63.3070 
  10   0.0000       2.326491        63.3070 
  11   0.0000       2.326491        63.3070 
  12   0.0000       2.326491        63.3070 
  13   0.0000       2.326491        63.3070 
  14   0.0000       8.070493       219.6093 
  15   0.0000       8.070493       219.6093 
  16   0.0000       8.070493       219.6093 
  17   0.0000       9.875501       268.7261 
  18   0.0000      10.157960       276.4121 
  19   0.0000      10.157960       276.4121 
  20   0.0000      10.157960       276.4121 
  21   0.0000      10.157960       276.4121 
  22   0.0000      10.157960       276.4121 

                    ********************************
                    * MULLIKEN POPULATION ANALYSIS *
                    ********************************

-----------------------
MULLIKEN ATOMIC CHARGES
-----------------------
   0 He:    0.000000
Sum of atomic charges:    0.0000000

--------------------------------
MULLIKEN REDUCED ORBITAL CHARGES
--------------------------------
  0 Hes       :     2.000000  s :     2.000000
      pz      :     0.000000  p :     0.000000
      px      :     0.000000
      py      :     0.000000
      dz2     :     0.000000  d :     0.000000
      dxz     :     0.000000
      dyz     :     0.000000
      dx2y2   :     0.000000
      dxy     :     0.000000


                     *******************************
                     * LOEWDIN POPULATION ANALYSIS *
                     *******************************

----------------------
LOEWDIN ATOMIC CHARGES
----------------------
   0 He:    0.000000

-------------------------------
LOEWDIN REDUCED ORBITAL CHARGES
-------------------------------
  0 Hes       :     2.000000  s :     2.000000
      pz      :     0.000000  p :     0.000000
      px      :     0.000000
      py      :     0.000000
      dz2     :     0.000000  d :     0.000000
      dxz     :     0.000000
      dyz     :     0.000000
      dx2y2   :     0.000000
      dxy     :     0.000000


                      *****************************
                      * MAYER POPULATION ANALYSIS *
                      *****************************

  NA   - Mulliken gross atomic population
  ZA   - Total nuclear charge
  QA   - Mulliken gross atomic charge
  VA   - Mayer's total valence
  BVA  - Mayer's bonded valence
  FA   - Mayer's free valence

  ATOM       NA         ZA         QA         VA         BVA        FA
  0 He     2.0000     2.0000     0.0000     0.0000     0.0000     0.0000

  Mayer bond orders larger than 0.100000


--------------------------
ATOM BASIS FOR ELEMENT He
--------------------------
 NewGTO He
 S 36
    1       1149.270500000000         0.000357639000
    2        172.044570000000         0.002772107135
    3         39.080465000000         0.014294343166
    4         11.036173000000         0.055851717040
    5          3.564152000000         0.163316718088
    6          1.240443000000         0.331237915835
    7          0.447316000000         0.414180312257
    8          0.164206000000         0.188978910885
    9          0.057472000000         0.005154604300
   10       1149.270500000000        -0.000010762492
   11        172.044570000000        -0.000081803861
   12         39.080465000000        -0.000458012373
   13         11.036173000000        -0.002081617190
   14          3.564152000000        -0.009284046541
   15          1.240443000000        -0.012291173100
   16          0.447316000000         0.011588306133
   17          0.164206000000         0.011106976718
   18          0.057472000000         0.000236486788
   19       1149.270500000000         0.000008290360
   20        172.044570000000         0.000082875277
   21         39.080465000000         0.000367373157
   22         11.036173000000         0.003783918117
   23          3.564152000000         0.011807849307
   24          1.240443000000        -0.015169581806
   25          0.447316000000        -0.005553892456
   26          0.164206000000         0.011200732864
   27          0.057472000000         0.000594852130
   28       1149.270500000000        -0.000001832103
   29        172.044570000000        -0.000040631412
   30         39.080465000000        -0.000075309070
   31         11.036173000000        -0.002765364833
   32          3.564152000000        -0.000039314951
   33          1.240443000000         0.007505081748
   34          0.447316000000        -0.009861461131
   35          0.164206000000         0.003484723138
   36          0.057472000000         0.002110524850
 S 36
    1       1149.270500000000        -0.000008401887
    2        172.044570000000        -0.000065124139
    3         39.080465000000        -0.000335811980
    4         11.036173000000        -0.001312104758
    5          3.564152000000        -0.003836742256
    6          1.240443000000        -0.007781655934
    7          0.447316000000        -0.009730192500
    8          0.164206000000        -0.004439615131
    9          0.057472000000        -0.000121095307
   10       1149.270500000000        -0.000422652479
   11        172.044570000000        -0.003212509326
   12         39.080465000000        -0.017986547378
   13         11.036173000000        -0.081746931761
   14          3.564152000000        -0.364592645902
   15          1.240443000000        -0.482685141886
   16          0.447316000000         0.455082939952
   17          0.164206000000         0.436180711916
   18          0.057472000000         0.009287043448
   19       1149.270500000000         0.000369350727
   20        172.044570000000         0.003692245456
   21         39.080465000000         0.016367147301
   22         11.036173000000         0.168580485760
   23          3.564152000000         0.526061323349
   24          1.240443000000        -0.675832666258
   25          0.447316000000        -0.247436085892
   26          0.164206000000         0.499013173348
   27          0.057472000000         0.026501752397
   28       1149.270500000000        -0.000142301179
   29        172.044570000000        -0.003155879728
   30         39.080465000000        -0.005849325829
   31         11.036173000000        -0.214788471555
   32          3.564152000000        -0.003053629008
   33          1.240443000000         0.582926714839
   34          0.447316000000        -0.765948904226
   35          0.164206000000         0.270661703554
   36          0.057472000000         0.163926437958
 S 36
    1       1149.270500000000        -0.000001112519
    2        172.044570000000        -0.000008623280
    3         39.080465000000        -0.000044465860
    4         11.036173000000        -0.000173739682
    5          3.564152000000        -0.000508034419
    6          1.240443000000        -0.001030392138
    7          0.447316000000        -0.001288403642
    8          0.164206000000        -0.000587862605
    9          0.057472000000        -0.000016034589
   10       1149.270500000000        -0.000311748251
   11        172.044570000000        -0.002369545228
   12         39.080465000000        -0.013266868106
   13         11.036173000000        -0.060296494870
   14          3.564152000000        -0.268923348310
   15          1.240443000000        -0.356028312679
   16          0.447316000000         0.335668942713
   17          0.164206000000         0.321726669024
   18          0.057472000000         0.006850118476
   19       1149.270500000000        -0.000391628675
   20        172.044570000000        -0.003914948821
   21         39.080465000000        -0.017354356528
   22         11.036173000000        -0.178748672547
   23          3.564152000000        -0.557791507143
   24          1.240443000000         0.716596534961
   25          0.447316000000         0.262360567382
   26          0.164206000000        -0.529111907095
   27          0.057472000000        -0.028100245647
   28       1149.270500000000         0.000277993473
   29        172.044570000000         0.006165191112
   30         39.080465000000         0.011426991745
   31         11.036173000000         0.419601534158
   32          3.564152000000         0.005965438496
   33          1.240443000000        -1.138780596919
   34          0.447316000000         1.496324886404
   35          0.164206000000        -0.528753080774
   36          0.057472000000        -0.320239649541
 S 36
    1       1149.270500000000        -0.000000652421
    2        172.044570000000        -0.000005056998
    3         39.080465000000        -0.000026076361
    4         11.036173000000        -0.000101887127
    5          3.564152000000        -0.000297929448
    6          1.240443000000        -0.000604258588
    7          0.447316000000        -0.000755565709
    8          0.164206000000        -0.000344743534
    9          0.057472000000        -0.000009403253
   10       1149.270500000000         0.000074822718
   11        172.044570000000         0.000568714705
   12         39.080465000000         0.003184181881
   13         11.036173000000         0.014471765675
   14          3.564152000000         0.064544310406
   15          1.240443000000         0.085450378598
   16          0.447316000000        -0.080563924882
   17          0.164206000000        -0.077217638862
   18          0.057472000000        -0.001644097383
   19       1149.270500000000         0.000455833160
   20        172.044570000000         0.004556774331
   21         39.080465000000         0.020199468745
   22         11.036173000000         0.208053131704
   23          3.564152000000         0.649237100592
   24          1.240443000000        -0.834076981622
   25          0.447316000000        -0.305372548515
   26          0.164206000000         0.615855702448
   27          0.057472000000         0.032707063081
   28       1149.270500000000         0.000354174372
   29        172.044570000000         0.007854690507
   30         39.080465000000         0.014558426813
   31         11.036173000000         0.534588486793
   32          3.564152000000         0.007600197995
   33          1.240443000000        -1.450850262782
   34          0.447316000000         1.906375433968
   35          0.164206000000        -0.673651753694
   36          0.057472000000        -0.407997625660
 P 12
    1          4.550000000000        -0.065717960894
    2          1.592500000000        -0.280144212889
    3          0.557375000000        -0.330666554646
    4          0.195081000000        -0.204422567195
    5          4.550000000000         0.124629814164
    6          1.592500000000         0.341539484490
    7          0.557375000000         0.132248761370
    8          0.195081000000        -0.664665485412
    9          4.550000000000        -0.095561406621
   10          1.592500000000        -0.012214070885
   11          0.557375000000         0.141271193167
   12          0.195081000000        -0.100875622309
 P 12
    1          4.550000000000        -0.058088750816
    2          1.592500000000        -0.247622220069
    3          0.557375000000        -0.292279413947
    4          0.195081000000        -0.180691114047
    5          4.550000000000        -0.121940560841
    6          1.592500000000        -0.334169769629
    7          0.557375000000        -0.129395106943
    8          0.195081000000         0.650323380538
    9          4.550000000000         0.331166961211
   10          1.592500000000         0.042327722894
   11          0.557375000000        -0.489573703463
   12          0.195081000000         0.349583314869
 P 12
    1          4.550000000000         0.016562045582
    2          1.592500000000         0.070601113610
    3          0.557375000000         0.083333604327
    4          0.195081000000         0.051517969056
    5          4.550000000000         0.066842148946
    6          1.592500000000         0.183176339036
    7          0.557375000000         0.070928384711
    8          0.195081000000        -0.356477057061
    9          4.550000000000         0.782328176193
   10          1.592500000000         0.099992372830
   11          0.557375000000        -1.156538385177
   12          0.195081000000         0.825833821553
 D 6
    1          3.400000000000        -0.247001477557
    2          1.360000000000        -0.497946241476
    3          0.544000000000        -0.267055098377
    4          3.400000000000         0.451196830722
    5          1.360000000000        -0.087756623564
    6          0.544000000000        -0.331349115937
 D 6
    1          3.400000000000         0.133040476230
    2          1.360000000000         0.268204893986
    3          0.544000000000         0.143841801348
    4          3.400000000000         0.837687093749
    5          1.360000000000        -0.162927986070
    6          0.544000000000        -0.615179139226
 end
  // -----------------------------------------------
  // The basis set
  // -----------------------------------------------
  BAS[ATNO] = new BFNGauss[NSH];
  // Basis function   1 L = s
  InitBFNGauss(BAS[ATNO][  0]);
  BAS[ATNO][  0].l  = 0;
  BAS[ATNO][  0].ng = 36;
  BAS[ATNO][  0].a[  0] =      1149.270500000000;     BAS[ATNO][  0].d[  0] =         0.000357639000;
  BAS[ATNO][  0].a[  1] =       172.044570000000;     BAS[ATNO][  0].d[  1] =         0.002772107135;
  BAS[ATNO][  0].a[  2] =        39.080465000000;     BAS[ATNO][  0].d[  2] =         0.014294343166;
  BAS[ATNO][  0].a[  3] =        11.036173000000;     BAS[ATNO][  0].d[  3] =         0.055851717040;
  BAS[ATNO][  0].a[  4] =         3.564152000000;     BAS[ATNO][  0].d[  4] =         0.163316718088;
  BAS[ATNO][  0].a[  5] =         1.240443000000;     BAS[ATNO][  0].d[  5] =         0.331237915835;
  BAS[ATNO][  0].a[  6] =         0.447316000000;     BAS[ATNO][  0].d[  6] =         0.414180312257;
  BAS[ATNO][  0].a[  7] =         0.164206000000;     BAS[ATNO][  0].d[  7] =         0.188978910885;
  BAS[ATNO][  0].a[  8] =         0.057472000000;     BAS[ATNO][  0].d[  8] =         0.005154604300;
  BAS[ATNO][  0].a[  9] =      1149.270500000000;     BAS[ATNO][  0].d[  9] =        -0.000010762492;
  BAS[ATNO][  0].a[ 10] =       172.044570000000;     BAS[ATNO][  0].d[ 10] =        -0.000081803861;
  BAS[ATNO][  0].a[ 11] =        39.080465000000;     BAS[ATNO][  0].d[ 11] =        -0.000458012373;
  BAS[ATNO][  0].a[ 12] =        11.036173000000;     BAS[ATNO][  0].d[ 12] =        -0.002081617190;
  BAS[ATNO][  0].a[ 13] =         3.564152000000;     BAS[ATNO][  0].d[ 13] =        -0.009284046541;
  BAS[ATNO][  0].a[ 14] =         1.240443000000;     BAS[ATNO][  0].d[ 14] =        -0.012291173100;
  BAS[ATNO][  0].a[ 15] =         0.447316000000;     BAS[ATNO][  0].d[ 15] =         0.011588306133;
  BAS[ATNO][  0].a[ 16] =         0.164206000000;     BAS[ATNO][  0].d[ 16] =         0.011106976718;
  BAS[ATNO][  0].a[ 17] =         0.057472000000;     BAS[ATNO][  0].d[ 17] =         0.000236486788;
  BAS[ATNO][  0].a[ 18] =      1149.270500000000;     BAS[ATNO][  0].d[ 18] =         0.000008290360;
  BAS[ATNO][  0].a[ 19] =       172.044570000000;     BAS[ATNO][  0].d[ 19] =         0.000082875277;
  BAS[ATNO][  0].a[ 20] =        39.080465000000;     BAS[ATNO][  0].d[ 20] =         0.000367373157;
  BAS[ATNO][  0].a[ 21] =        11.036173000000;     BAS[ATNO][  0].d[ 21] =         0.003783918117;
  BAS[ATNO][  0].a[ 22] =         3.564152000000;     BAS[ATNO][  0].d[ 22] =         0.011807849307;
  BAS[ATNO][  0].a[ 23] =         1.240443000000;     BAS[ATNO][  0].d[ 23] =        -0.015169581806;
  BAS[ATNO][  0].a[ 24] =         0.447316000000;     BAS[ATNO][  0].d[ 24] =        -0.005553892456;
  BAS[ATNO][  0].a[ 25] =         0.164206000000;     BAS[ATNO][  0].d[ 25] =         0.011200732864;
  BAS[ATNO][  0].a[ 26] =         0.057472000000;     BAS[ATNO][  0].d[ 26] =         0.000594852130;
  BAS[ATNO][  0].a[ 27] =      1149.270500000000;     BAS[ATNO][  0].d[ 27] =        -0.000001832103;
  BAS[ATNO][  0].a[ 28] =       172.044570000000;     BAS[ATNO][  0].d[ 28] =        -0.000040631412;
  BAS[ATNO][  0].a[ 29] =        39.080465000000;     BAS[ATNO][  0].d[ 29] =        -0.000075309070;
  BAS[ATNO][  0].a[ 30] =        11.036173000000;     BAS[ATNO][  0].d[ 30] =        -0.002765364833;
  BAS[ATNO][  0].a[ 31] =         3.564152000000;     BAS[ATNO][  0].d[ 31] =        -0.000039314951;
  BAS[ATNO][  0].a[ 32] =         1.240443000000;     BAS[ATNO][  0].d[ 32] =         0.007505081748;
  BAS[ATNO][  0].a[ 33] =         0.447316000000;     BAS[ATNO][  0].d[ 33] =        -0.009861461131;
  BAS[ATNO][  0].a[ 34] =         0.164206000000;     BAS[ATNO][  0].d[ 34] =         0.003484723138;
  BAS[ATNO][  0].a[ 35] =         0.057472000000;     BAS[ATNO][  0].d[ 35] =         0.002110524850;

  // Basis function   2 L = s
  InitBFNGauss(BAS[ATNO][  1]);
  BAS[ATNO][  1].l  = 0;
  BAS[ATNO][  1].ng = 36;
  BAS[ATNO][  1].a[  0] =      1149.270500000000;     BAS[ATNO][  1].d[  0] =         0.000008401887;
  BAS[ATNO][  1].a[  1] =       172.044570000000;     BAS[ATNO][  1].d[  1] =         0.000065124139;
  BAS[ATNO][  1].a[  2] =        39.080465000000;     BAS[ATNO][  1].d[  2] =         0.000335811980;
  BAS[ATNO][  1].a[  3] =        11.036173000000;     BAS[ATNO][  1].d[  3] =         0.001312104758;
  BAS[ATNO][  1].a[  4] =         3.564152000000;     BAS[ATNO][  1].d[  4] =         0.003836742256;
  BAS[ATNO][  1].a[  5] =         1.240443000000;     BAS[ATNO][  1].d[  5] =         0.007781655934;
  BAS[ATNO][  1].a[  6] =         0.447316000000;     BAS[ATNO][  1].d[  6] =         0.009730192500;
  BAS[ATNO][  1].a[  7] =         0.164206000000;     BAS[ATNO][  1].d[  7] =         0.004439615131;
  BAS[ATNO][  1].a[  8] =         0.057472000000;     BAS[ATNO][  1].d[  8] =         0.000121095307;
  BAS[ATNO][  1].a[  9] =      1149.270500000000;     BAS[ATNO][  1].d[  9] =         0.000422652479;
  BAS[ATNO][  1].a[ 10] =       172.044570000000;     BAS[ATNO][  1].d[ 10] =         0.003212509326;
  BAS[ATNO][  1].a[ 11] =        39.080465000000;     BAS[ATNO][  1].d[ 11] =         0.017986547378;
  BAS[ATNO][  1].a[ 12] =        11.036173000000;     BAS[ATNO][  1].d[ 12] =         0.081746931761;
  BAS[ATNO][  1].a[ 13] =         3.564152000000;     BAS[ATNO][  1].d[ 13] =         0.364592645902;
  BAS[ATNO][  1].a[ 14] =         1.240443000000;     BAS[ATNO][  1].d[ 14] =         0.482685141886;
  BAS[ATNO][  1].a[ 15] =         0.447316000000;     BAS[ATNO][  1].d[ 15] =        -0.455082939952;
  BAS[ATNO][  1].a[ 16] =         0.164206000000;     BAS[ATNO][  1].d[ 16] =        -0.436180711916;
  BAS[ATNO][  1].a[ 17] =         0.057472000000;     BAS[ATNO][  1].d[ 17] =        -0.009287043448;
  BAS[ATNO][  1].a[ 18] =      1149.270500000000;     BAS[ATNO][  1].d[ 18] =        -0.000369350727;
  BAS[ATNO][  1].a[ 19] =       172.044570000000;     BAS[ATNO][  1].d[ 19] =        -0.003692245456;
  BAS[ATNO][  1].a[ 20] =        39.080465000000;     BAS[ATNO][  1].d[ 20] =        -0.016367147301;
  BAS[ATNO][  1].a[ 21] =        11.036173000000;     BAS[ATNO][  1].d[ 21] =        -0.168580485760;
  BAS[ATNO][  1].a[ 22] =         3.564152000000;     BAS[ATNO][  1].d[ 22] =        -0.526061323349;
  BAS[ATNO][  1].a[ 23] =         1.240443000000;     BAS[ATNO][  1].d[ 23] =         0.675832666258;
  BAS[ATNO][  1].a[ 24] =         0.447316000000;     BAS[ATNO][  1].d[ 24] =         0.247436085892;
  BAS[ATNO][  1].a[ 25] =         0.164206000000;     BAS[ATNO][  1].d[ 25] =        -0.499013173348;
  BAS[ATNO][  1].a[ 26] =         0.057472000000;     BAS[ATNO][  1].d[ 26] =        -0.026501752397;
  BAS[ATNO][  1].a[ 27] =      1149.270500000000;     BAS[ATNO][  1].d[ 27] =         0.000142301179;
  BAS[ATNO][  1].a[ 28] =       172.044570000000;     BAS[ATNO][  1].d[ 28] =         0.003155879728;
  BAS[ATNO][  1].a[ 29] =        39.080465000000;     BAS[ATNO][  1].d[ 29] =         0.005849325829;
  BAS[ATNO][  1].a[ 30] =        11.036173000000;     BAS[ATNO][  1].d[ 30] =         0.214788471555;
  BAS[ATNO][  1].a[ 31] =         3.564152000000;     BAS[ATNO][  1].d[ 31] =         0.003053629008;
  BAS[ATNO][  1].a[ 32] =         1.240443000000;     BAS[ATNO][  1].d[ 32] =        -0.582926714839;
  BAS[ATNO][  1].a[ 33] =         0.447316000000;     BAS[ATNO][  1].d[ 33] =         0.765948904226;
  BAS[ATNO][  1].a[ 34] =         0.164206000000;     BAS[ATNO][  1].d[ 34] =        -0.270661703554;
  BAS[ATNO][  1].a[ 35] =         0.057472000000;     BAS[ATNO][  1].d[ 35] =        -0.163926437958;

  // Basis function   3 L = s
  InitBFNGauss(BAS[ATNO][  2]);
  BAS[ATNO][  2].l  = 0;
  BAS[ATNO][  2].ng = 36;
  BAS[ATNO][  2].a[  0] =      1149.270500000000;     BAS[ATNO][  2].d[  0] =        -0.000001112519;
  BAS[ATNO][  2].a[  1] =       172.044570000000;     BAS[ATNO][  2].d[  1] =        -0.000008623280;
  BAS[ATNO][  2].a[  2] =        39.080465000000;     BAS[ATNO][  2].d[  2] =        -0.000044465860;
  BAS[ATNO][  2].a[  3] =        11.036173000000;     BAS[ATNO][  2].d[  3] =        -0.000173739682;
  BAS[ATNO][  2].a[  4] =         3.564152000000;     BAS[ATNO][  2].d[  4] =        -0.000508034419;
  BAS[ATNO][  2].a[  5] =         1.240443000000;     BAS[ATNO][  2].d[  5] =        -0.001030392138;
  BAS[ATNO][  2].a[  6] =         0.447316000000;     BAS[ATNO][  2].d[  6] =        -0.001288403642;
  BAS[ATNO][  2].a[  7] =         0.164206000000;     BAS[ATNO][  2].d[  7] =        -0.000587862605;
  BAS[ATNO][  2].a[  8] =         0.057472000000;     BAS[ATNO][  2].d[  8] =        -0.000016034589;
  BAS[ATNO][  2].a[  9] =      1149.270500000000;     BAS[ATNO][  2].d[  9] =        -0.000311748251;
  BAS[ATNO][  2].a[ 10] =       172.044570000000;     BAS[ATNO][  2].d[ 10] =        -0.002369545228;
  BAS[ATNO][  2].a[ 11] =        39.080465000000;     BAS[ATNO][  2].d[ 11] =        -0.013266868106;
  BAS[ATNO][  2].a[ 12] =        11.036173000000;     BAS[ATNO][  2].d[ 12] =        -0.060296494870;
  BAS[ATNO][  2].a[ 13] =         3.564152000000;     BAS[ATNO][  2].d[ 13] =        -0.268923348310;
  BAS[ATNO][  2].a[ 14] =         1.240443000000;     BAS[ATNO][  2].d[ 14] =        -0.356028312679;
  BAS[ATNO][  2].a[ 15] =         0.447316000000;     BAS[ATNO][  2].d[ 15] =         0.335668942713;
  BAS[ATNO][  2].a[ 16] =         0.164206000000;     BAS[ATNO][  2].d[ 16] =         0.321726669024;
  BAS[ATNO][  2].a[ 17] =         0.057472000000;     BAS[ATNO][  2].d[ 17] =         0.006850118476;
  BAS[ATNO][  2].a[ 18] =      1149.270500000000;     BAS[ATNO][  2].d[ 18] =        -0.000391628675;
  BAS[ATNO][  2].a[ 19] =       172.044570000000;     BAS[ATNO][  2].d[ 19] =        -0.003914948821;
  BAS[ATNO][  2].a[ 20] =        39.080465000000;     BAS[ATNO][  2].d[ 20] =        -0.017354356528;
  BAS[ATNO][  2].a[ 21] =        11.036173000000;     BAS[ATNO][  2].d[ 21] =        -0.178748672547;
  BAS[ATNO][  2].a[ 22] =         3.564152000000;     BAS[ATNO][  2].d[ 22] =        -0.557791507143;
  BAS[ATNO][  2].a[ 23] =         1.240443000000;     BAS[ATNO][  2].d[ 23] =         0.716596534961;
  BAS[ATNO][  2].a[ 24] =         0.447316000000;     BAS[ATNO][  2].d[ 24] =         0.262360567382;
  BAS[ATNO][  2].a[ 25] =         0.164206000000;     BAS[ATNO][  2].d[ 25] =        -0.529111907095;
  BAS[ATNO][  2].a[ 26] =         0.057472000000;     BAS[ATNO][  2].d[ 26] =        -0.028100245647;
  BAS[ATNO][  2].a[ 27] =      1149.270500000000;     BAS[ATNO][  2].d[ 27] =         0.000277993473;
  BAS[ATNO][  2].a[ 28] =       172.044570000000;     BAS[ATNO][  2].d[ 28] =         0.006165191112;
  BAS[ATNO][  2].a[ 29] =        39.080465000000;     BAS[ATNO][  2].d[ 29] =         0.011426991745;
  BAS[ATNO][  2].a[ 30] =        11.036173000000;     BAS[ATNO][  2].d[ 30] =         0.419601534158;
  BAS[ATNO][  2].a[ 31] =         3.564152000000;     BAS[ATNO][  2].d[ 31] =         0.005965438496;
  BAS[ATNO][  2].a[ 32] =         1.240443000000;     BAS[ATNO][  2].d[ 32] =        -1.138780596919;
  BAS[ATNO][  2].a[ 33] =         0.447316000000;     BAS[ATNO][  2].d[ 33] =         1.496324886404;
  BAS[ATNO][  2].a[ 34] =         0.164206000000;     BAS[ATNO][  2].d[ 34] =        -0.528753080774;
  BAS[ATNO][  2].a[ 35] =         0.057472000000;     BAS[ATNO][  2].d[ 35] =        -0.320239649541;

  // Basis function   4 L = s
  InitBFNGauss(BAS[ATNO][  3]);
  BAS[ATNO][  3].l  = 0;
  BAS[ATNO][  3].ng = 36;
  BAS[ATNO][  3].a[  0] =      1149.270500000000;     BAS[ATNO][  3].d[  0] =        -0.000000652421;
  BAS[ATNO][  3].a[  1] =       172.044570000000;     BAS[ATNO][  3].d[  1] =        -0.000005056998;
  BAS[ATNO][  3].a[  2] =        39.080465000000;     BAS[ATNO][  3].d[  2] =        -0.000026076361;
  BAS[ATNO][  3].a[  3] =        11.036173000000;     BAS[ATNO][  3].d[  3] =        -0.000101887127;
  BAS[ATNO][  3].a[  4] =         3.564152000000;     BAS[ATNO][  3].d[  4] =        -0.000297929448;
  BAS[ATNO][  3].a[  5] =         1.240443000000;     BAS[ATNO][  3].d[  5] =        -0.000604258588;
  BAS[ATNO][  3].a[  6] =         0.447316000000;     BAS[ATNO][  3].d[  6] =        -0.000755565709;
  BAS[ATNO][  3].a[  7] =         0.164206000000;     BAS[ATNO][  3].d[  7] =        -0.000344743534;
  BAS[ATNO][  3].a[  8] =         0.057472000000;     BAS[ATNO][  3].d[  8] =        -0.000009403253;
  BAS[ATNO][  3].a[  9] =      1149.270500000000;     BAS[ATNO][  3].d[  9] =         0.000074822718;
  BAS[ATNO][  3].a[ 10] =       172.044570000000;     BAS[ATNO][  3].d[ 10] =         0.000568714705;
  BAS[ATNO][  3].a[ 11] =        39.080465000000;     BAS[ATNO][  3].d[ 11] =         0.003184181881;
  BAS[ATNO][  3].a[ 12] =        11.036173000000;     BAS[ATNO][  3].d[ 12] =         0.014471765675;
  BAS[ATNO][  3].a[ 13] =         3.564152000000;     BAS[ATNO][  3].d[ 13] =         0.064544310406;
  BAS[ATNO][  3].a[ 14] =         1.240443000000;     BAS[ATNO][  3].d[ 14] =         0.085450378598;
  BAS[ATNO][  3].a[ 15] =         0.447316000000;     BAS[ATNO][  3].d[ 15] =        -0.080563924882;
  BAS[ATNO][  3].a[ 16] =         0.164206000000;     BAS[ATNO][  3].d[ 16] =        -0.077217638862;
  BAS[ATNO][  3].a[ 17] =         0.057472000000;     BAS[ATNO][  3].d[ 17] =        -0.001644097383;
  BAS[ATNO][  3].a[ 18] =      1149.270500000000;     BAS[ATNO][  3].d[ 18] =         0.000455833160;
  BAS[ATNO][  3].a[ 19] =       172.044570000000;     BAS[ATNO][  3].d[ 19] =         0.004556774331;
  BAS[ATNO][  3].a[ 20] =        39.080465000000;     BAS[ATNO][  3].d[ 20] =         0.020199468745;
  BAS[ATNO][  3].a[ 21] =        11.036173000000;     BAS[ATNO][  3].d[ 21] =         0.208053131704;
  BAS[ATNO][  3].a[ 22] =         3.564152000000;     BAS[ATNO][  3].d[ 22] =         0.649237100592;
  BAS[ATNO][  3].a[ 23] =         1.240443000000;     BAS[ATNO][  3].d[ 23] =        -0.834076981622;
  BAS[ATNO][  3].a[ 24] =         0.447316000000;     BAS[ATNO][  3].d[ 24] =        -0.305372548515;
  BAS[ATNO][  3].a[ 25] =         0.164206000000;     BAS[ATNO][  3].d[ 25] =         0.615855702448;
  BAS[ATNO][  3].a[ 26] =         0.057472000000;     BAS[ATNO][  3].d[ 26] =         0.032707063081;
  BAS[ATNO][  3].a[ 27] =      1149.270500000000;     BAS[ATNO][  3].d[ 27] =         0.000354174372;
  BAS[ATNO][  3].a[ 28] =       172.044570000000;     BAS[ATNO][  3].d[ 28] =         0.007854690507;
  BAS[ATNO][  3].a[ 29] =        39.080465000000;     BAS[ATNO][  3].d[ 29] =         0.014558426813;
  BAS[ATNO][  3].a[ 30] =        11.036173000000;     BAS[ATNO][  3].d[ 30] =         0.534588486793;
  BAS[ATNO][  3].a[ 31] =         3.564152000000;     BAS[ATNO][  3].d[ 31] =         0.007600197995;
  BAS[ATNO][  3].a[ 32] =         1.240443000000;     BAS[ATNO][  3].d[ 32] =        -1.450850262782;
  BAS[ATNO][  3].a[ 33] =         0.447316000000;     BAS[ATNO][  3].d[ 33] =         1.906375433968;
  BAS[ATNO][  3].a[ 34] =         0.164206000000;     BAS[ATNO][  3].d[ 34] =        -0.673651753694;
  BAS[ATNO][  3].a[ 35] =         0.057472000000;     BAS[ATNO][  3].d[ 35] =        -0.407997625660;

  // Basis function   5 L = p
  InitBFNGauss(BAS[ATNO][  4]);
  BAS[ATNO][  4].l  = 1;
  BAS[ATNO][  4].ng = 12;
  BAS[ATNO][  4].a[  0] =         4.550000000000;     BAS[ATNO][  4].d[  0] =         0.065717960894;
  BAS[ATNO][  4].a[  1] =         1.592500000000;     BAS[ATNO][  4].d[  1] =         0.280144212889;
  BAS[ATNO][  4].a[  2] =         0.557375000000;     BAS[ATNO][  4].d[  2] =         0.330666554646;
  BAS[ATNO][  4].a[  3] =         0.195081000000;     BAS[ATNO][  4].d[  3] =         0.204422567195;
  BAS[ATNO][  4].a[  4] =         4.550000000000;     BAS[ATNO][  4].d[  4] =        -0.124629814164;
  BAS[ATNO][  4].a[  5] =         1.592500000000;     BAS[ATNO][  4].d[  5] =        -0.341539484490;
  BAS[ATNO][  4].a[  6] =         0.557375000000;     BAS[ATNO][  4].d[  6] =        -0.132248761370;
  BAS[ATNO][  4].a[  7] =         0.195081000000;     BAS[ATNO][  4].d[  7] =         0.664665485412;
  BAS[ATNO][  4].a[  8] =         4.550000000000;     BAS[ATNO][  4].d[  8] =         0.095561406621;
  BAS[ATNO][  4].a[  9] =         1.592500000000;     BAS[ATNO][  4].d[  9] =         0.012214070885;
  BAS[ATNO][  4].a[ 10] =         0.557375000000;     BAS[ATNO][  4].d[ 10] =        -0.141271193167;
  BAS[ATNO][  4].a[ 11] =         0.195081000000;     BAS[ATNO][  4].d[ 11] =         0.100875622309;

  // Basis function   6 L = p
  InitBFNGauss(BAS[ATNO][  5]);
  BAS[ATNO][  5].l  = 1;
  BAS[ATNO][  5].ng = 12;
  BAS[ATNO][  5].a[  0] =         4.550000000000;     BAS[ATNO][  5].d[  0] =        -0.058088750816;
  BAS[ATNO][  5].a[  1] =         1.592500000000;     BAS[ATNO][  5].d[  1] =        -0.247622220069;
  BAS[ATNO][  5].a[  2] =         0.557375000000;     BAS[ATNO][  5].d[  2] =        -0.292279413947;
  BAS[ATNO][  5].a[  3] =         0.195081000000;     BAS[ATNO][  5].d[  3] =        -0.180691114047;
  BAS[ATNO][  5].a[  4] =         4.550000000000;     BAS[ATNO][  5].d[  4] =        -0.121940560841;
  BAS[ATNO][  5].a[  5] =         1.592500000000;     BAS[ATNO][  5].d[  5] =        -0.334169769629;
  BAS[ATNO][  5].a[  6] =         0.557375000000;     BAS[ATNO][  5].d[  6] =        -0.129395106943;
  BAS[ATNO][  5].a[  7] =         0.195081000000;     BAS[ATNO][  5].d[  7] =         0.650323380538;
  BAS[ATNO][  5].a[  8] =         4.550000000000;     BAS[ATNO][  5].d[  8] =         0.331166961211;
  BAS[ATNO][  5].a[  9] =         1.592500000000;     BAS[ATNO][  5].d[  9] =         0.042327722894;
  BAS[ATNO][  5].a[ 10] =         0.557375000000;     BAS[ATNO][  5].d[ 10] =        -0.489573703463;
  BAS[ATNO][  5].a[ 11] =         0.195081000000;     BAS[ATNO][  5].d[ 11] =         0.349583314869;

  // Basis function   7 L = p
  InitBFNGauss(BAS[ATNO][  6]);
  BAS[ATNO][  6].l  = 1;
  BAS[ATNO][  6].ng = 12;
  BAS[ATNO][  6].a[  0] =         4.550000000000;     BAS[ATNO][  6].d[  0] =        -0.016562045582;
  BAS[ATNO][  6].a[  1] =         1.592500000000;     BAS[ATNO][  6].d[  1] =        -0.070601113610;
  BAS[ATNO][  6].a[  2] =         0.557375000000;     BAS[ATNO][  6].d[  2] =        -0.083333604327;
  BAS[ATNO][  6].a[  3] =         0.195081000000;     BAS[ATNO][  6].d[  3] =        -0.051517969056;
  BAS[ATNO][  6].a[  4] =         4.550000000000;     BAS[ATNO][  6].d[  4] =        -0.066842148946;
  BAS[ATNO][  6].a[  5] =         1.592500000000;     BAS[ATNO][  6].d[  5] =        -0.183176339036;
  BAS[ATNO][  6].a[  6] =         0.557375000000;     BAS[ATNO][  6].d[  6] =        -0.070928384711;
  BAS[ATNO][  6].a[  7] =         0.195081000000;     BAS[ATNO][  6].d[  7] =         0.356477057061;
  BAS[ATNO][  6].a[  8] =         4.550000000000;     BAS[ATNO][  6].d[  8] =        -0.782328176193;
  BAS[ATNO][  6].a[  9] =         1.592500000000;     BAS[ATNO][  6].d[  9] =        -0.099992372830;
  BAS[ATNO][  6].a[ 10] =         0.557375000000;     BAS[ATNO][  6].d[ 10] =         1.156538385177;
  BAS[ATNO][  6].a[ 11] =         0.195081000000;     BAS[ATNO][  6].d[ 11] =        -0.825833821553;

  // Basis function   8 L = d
  InitBFNGauss(BAS[ATNO][  7]);
  BAS[ATNO][  7].l  = 2;
  BAS[ATNO][  7].ng = 6;
  BAS[ATNO][  7].a[  0] =         3.400000000000;     BAS[ATNO][  7].d[  0] =         0.247001477557;
  BAS[ATNO][  7].a[  1] =         1.360000000000;     BAS[ATNO][  7].d[  1] =         0.497946241476;
  BAS[ATNO][  7].a[  2] =         0.544000000000;     BAS[ATNO][  7].d[  2] =         0.267055098377;
  BAS[ATNO][  7].a[  3] =         3.400000000000;     BAS[ATNO][  7].d[  3] =        -0.451196830722;
  BAS[ATNO][  7].a[  4] =         1.360000000000;     BAS[ATNO][  7].d[  4] =         0.087756623564;
  BAS[ATNO][  7].a[  5] =         0.544000000000;     BAS[ATNO][  7].d[  5] =         0.331349115937;

  // Basis function   9 L = d
  InitBFNGauss(BAS[ATNO][  8]);
  BAS[ATNO][  8].l  = 2;
  BAS[ATNO][  8].ng = 6;
  BAS[ATNO][  8].a[  0] =         3.400000000000;     BAS[ATNO][  8].d[  0] =         0.133040476230;
  BAS[ATNO][  8].a[  1] =         1.360000000000;     BAS[ATNO][  8].d[  1] =         0.268204893986;
  BAS[ATNO][  8].a[  2] =         0.544000000000;     BAS[ATNO][  8].d[  2] =         0.143841801348;
  BAS[ATNO][  8].a[  3] =         3.400000000000;     BAS[ATNO][  8].d[  3] =         0.837687093749;
  BAS[ATNO][  8].a[  4] =         1.360000000000;     BAS[ATNO][  8].d[  4] =        -0.162927986070;
  BAS[ATNO][  8].a[  5] =         0.544000000000;     BAS[ATNO][  8].d[  5] =        -0.615179139226;

-------
TIMINGS
-------

Total SCF time: 0 days 0 hours 0 min 1 sec 

Total time                  ....       1.161 sec
Sum of individual times     ....       0.970 sec  ( 83.5%)

Fock matrix formation       ....       0.742 sec  ( 63.9%)
  XC integration            ....       0.012 sec  (  1.6% of F)
    Basis function eval.    ....       0.002 sec  ( 20.7% of XC)
    Density eval.           ....       0.000 sec  (  3.8% of XC)
    XC-Functional eval.     ....       0.001 sec  (  8.3% of XC)
    XC-Potential eval.      ....       0.000 sec  (  2.6% of XC)
Diagonalization             ....       0.000 sec  (  0.0%)
Density matrix formation    ....       0.000 sec  (  0.0%)
Population analysis         ....       0.000 sec  (  0.0%)
Initial guess               ....       0.091 sec  (  7.8%)
Orbital Transformation      ....       0.000 sec  (  0.0%)
Orbital Orthonormalization  ....       0.000 sec  (  0.0%)
DIIS solution               ....       0.000 sec  (  0.0%)
SOSCF solution              ....       0.001 sec  (  0.1%)
Grid generation             ....       0.135 sec  ( 11.7%)

-------------------------   --------------------
FINAL SINGLE POINT ENERGY        -2.835834768971
-------------------------   --------------------


                            ***************************************
                            *     ORCA property calculations      *
                            ***************************************

                                    ---------------------
                                    Active property flags
                                    ---------------------
   (+) Dipole Moment


------------------------------------------------------------------------------
                       ORCA ELECTRIC PROPERTIES CALCULATION
------------------------------------------------------------------------------

Dipole Moment Calculation                       ... on
Quadrupole Moment Calculation                   ... off
Polarizability Calculation                      ... off
GBWName                                         ... He_ano-rcc-tzp_68.5179945_.gbw
Electron density file                           ... He_ano-rcc-tzp_68.5179945_.scfp
The origin for moment calculation is the CENTER OF MASS  = ( 0.000000,  0.000000  0.000000)

-------------
DIPOLE MOMENT
-------------
                                X             Y             Z
Electronic contribution:      0.00000       0.00000       0.00000
Nuclear contribution   :      0.00000       0.00000       0.00000
                        -----------------------------------------
Total Dipole Moment    :      0.00000       0.00000       0.00000
                        -----------------------------------------
Magnitude (a.u.)       :      0.00000
Magnitude (Debye)      :      0.00000



--------------------
Rotational spectrum 
--------------------
 
Rotational constants in cm-1:     0.000000     0.000000     0.000000 
Rotational constants in MHz :     0.000000     0.000000     0.000000 

 Dipole components along the rotational axes: 
x,y,z [a.u.] :     0.000000     0.000000     0.000000 
x,y,z [Debye]:     0.000000     0.000000     0.000000 

 

Timings for individual modules:

Sum of individual times         ...        2.023 sec (=   0.034 min)
GTO integral calculation        ...        0.324 sec (=   0.005 min)  16.0 %
Relativistic integrals          ...        0.282 sec (=   0.005 min)  13.9 %
SCF iterations                  ...        1.418 sec (=   0.024 min)  70.1 %
                             ****ORCA TERMINATED NORMALLY****
TOTAL RUN TIME: 0 days 0 hours 0 minutes 2 seconds 345 msec
