
                                 *****************
                                 * O   R   C   A *
                                 *****************

           --- An Ab Initio, DFT and Semiempirical electronic structure package ---

                  #######################################################
                  #                        -***-                        #
                  #          Department of theory and spectroscopy      #
                  #               Directorship: Frank Neese             #
                  #        Max Planck Institute fuer Kohlenforschung    #
                  #                Kaiser Wilhelm Platz 1               #
                  #                 D-45470 Muelheim/Ruhr               #
                  #                      Germany                        #
                  #                                                     #
                  #                  All rights reserved                #
                  #                        -***-                        #
                  #######################################################


                         Program Version 4.2.1 -  RELEASE  -


 With contributions from (in alphabetic order):
   Daniel Aravena         : Magnetic Suceptibility
   Michael Atanasov       : Ab Initio Ligand Field Theory (pilot matlab implementation)
   Alexander A. Auer      : GIAO ZORA, VPT2
   Ute Becker             : Parallelization
   Giovanni Bistoni       : ED, misc. LED, open-shell LED, HFLD
   Martin Brehm           : Molecular dynamics
   Dmytro Bykov           : SCF Hessian
   Vijay G. Chilkuri      : MRCI spin determinant printing, contributions to CSF-ICE
   Dipayan Datta          : RHF DLPNO-CCSD density
   Achintya Kumar Dutta   : EOM-CC, STEOM-CC
   Dmitry Ganyushin       : Spin-Orbit,Spin-Spin,Magnetic field MRCI
   Miquel Garcia          : C-PCM Hessian, Gaussian charge scheme
   Yang Guo               : DLPNO-NEVPT2, CIM, IAO-localization
   Andreas Hansen         : Spin unrestricted coupled pair/coupled cluster methods
   Benjamin Helmich-Paris : CASSCF linear response (MC-RPA)
   Lee Huntington         : MR-EOM, pCC
   Robert Izsak           : Overlap fitted RIJCOSX, COSX-SCS-MP3, EOM
   Christian Kollmar      : KDIIS, OOCD, Brueckner-CCSD(T), CCSD density
   Simone Kossmann        : Meta GGA functionals, TD-DFT gradient, OOMP2, MP2 Hessian
   Martin Krupicka        : AUTO-CI
   Lucas Lang             : DCDCAS
   Dagmar Lenk            : GEPOL surface, SMD
   Dimitrios Liakos       : Extrapolation schemes; Compound Job, initial MDCI parallelization
   Dimitrios Manganas     : Further ROCIS development; embedding schemes
   Dimitrios Pantazis     : SARC Basis sets
   Taras Petrenko         : DFT Hessian,TD-DFT gradient, ASA, ECA, R-Raman, ABS, FL, XAS/XES, NRVS
   Peter Pinski           : DLPNO-MP2, DLPNO-MP2 Gradient
   Christoph Reimann      : Effective Core Potentials
   Marius Retegan         : Local ZFS, SOC
   Christoph Riplinger    : Optimizer, TS searches, QM/MM, DLPNO-CCSD(T), (RO)-DLPNO pert. Triples
   Tobias Risthaus        : Range-separated hybrids, TD-DFT gradient, RPA, STAB
   Michael Roemelt        : Original ROCIS implementation
   Masaaki Saitow         : Open-shell DLPNO-CCSD energy and density
   Barbara Sandhoefer     : DKH picture change effects
   Avijit Sen             : IP-ROCIS
   Kantharuban Sivalingam : CASSCF convergence, NEVPT2, FIC-MRCI
   Bernardo de Souza      : ESD, SOC TD-DFT
   Georgi Stoychev        : AutoAux, RI-MP2 NMR
   Willem Van den Heuvel  : Paramagnetic NMR
   Boris Wezisla          : Elementary symmetry handling
   Frank Wennmohs         : Technical directorship


 We gratefully acknowledge several colleagues who have allowed us to
 interface, adapt or use parts of their codes:
   Stefan Grimme, W. Hujo, H. Kruse,             : VdW corrections, initial TS optimization,
                  C. Bannwarth                     DFT functionals, gCP, sTDA/sTD-DF
   Ed Valeev, F. Pavosevic, A. Kumar             : LibInt (2-el integral package), F12 methods
   Garnet Chan, S. Sharma, J. Yang, R. Olivares  : DMRG
   Ulf Ekstrom                                   : XCFun DFT Library
   Mihaly Kallay                                 : mrcc  (arbitrary order and MRCC methods)
   Andreas Klamt, Michael Diedenhofen            : otool_cosmo (COSMO solvation model)
   Jiri Pittner, Ondrej Demel                    : Mk-CCSD
   Frank Weinhold                                : gennbo (NPA and NBO analysis)
   Christopher J. Cramer and Donald G. Truhlar   : smd solvation model
   Lars Goerigk                                  : TD-DFT with DH, B97 family of functionals
   V. Asgeirsson, H. Jonsson                     : NEB implementation
   FAccTs GmbH                                   : IRC, NEB, NEB-TS, Multilevel, MM, QM/MM, CI optimization
   S Lehtola, MJT Oliveira, MAL Marques          : LibXC Library


 Your calculation uses the libint2 library for the computation of 2-el integrals
 For citations please refer to: http://libint.valeyev.net

 Your ORCA version has been built with support for libXC version: 4.2.3
 For citations please refer to: https://tddft.org/programs/libxc/

 This ORCA versions uses:
   CBLAS   interface :  Fast vector & matrix operations
   LAPACKE interface :  Fast linear algebra routines
   SCALAPACK package :  Parallel linear algebra routines


----- Orbital basis set information -----
Your calculation utilizes the basis: ANO-RCC-QZP
   H, He:       P.-O. Widmark, P.-A. Malmqvist, and B. O. Roos, Theor. Chim. Acta 77, 291 (1990).
   s block:     B. O. Roos, V. Veryazov and P.-O. Widmark, Theor. Chem. Acc. 111, 345 (2004).
   p block:     B. O. Roos, R. Lindh, P.-A. Malmqvist, V. Veryazov, and P.-O. Widmark, J. Phys. Chem. A 108, 2851 (2004).
   d block:     B. O. Roos, R. Lindh, P.-A. Malmqvist, V. Veryazov, and P.-O. Widmark, J. Phys. Chem. A 109, 6575 (2005).
   actinides:   B. O. Roos, R. Lindh, P.-A. Malmqvist, V. Veryazov, and P.-O. Widmark, Chem. Phys. Letters 409, 295 (2005).
   lanthanides: B. O. Roos, R. Lindh, P.-A. Malmqvist, V. Veryazov, P.-O. Widmark and A. C. Borin, J. Phys. Chem. A 112, 11431 (2008).

================================================================================
                                        WARNINGS
                       Please study these warnings very carefully!
================================================================================


INFO   : the flag for use of LIBINT has been found!

================================================================================
                                       INPUT FILE
================================================================================
NAME = He_ano-rcc-qzp_1096.287912_.inp
|  1> ! LDA ano-rcc-qzp nori grid5 finalgrid6 verytightscf
|  2> %Pal NProcs 18 End
|  3> 
|  4> % REL
|  5>   Method ZORA
|  6>   ModelPot 1, 0, 0, 0
|  7>   velit 1096.287912
|  8> END
|  9> 
| 10> *xyz 0 1
| 11> He 0.0 0.0 0.0
| 12> **                         ****END OF INPUT****
================================================================================

                       ****************************
                       * Single Point Calculation *
                       ****************************

---------------------------------
CARTESIAN COORDINATES (ANGSTROEM)
---------------------------------
  He     0.000000    0.000000    0.000000

----------------------------
CARTESIAN COORDINATES (A.U.)
----------------------------
  NO LB      ZA    FRAG     MASS         X           Y           Z
   0 He    2.0000    0     4.003    0.000000    0.000000    0.000000

--------------------------------
INTERNAL COORDINATES (ANGSTROEM)
--------------------------------
 He     0   0   0     0.000000000000     0.00000000     0.00000000

---------------------------
INTERNAL COORDINATES (A.U.)
---------------------------
 He     0   0   0     0.000000000000     0.00000000     0.00000000

---------------------
BASIS SET INFORMATION
---------------------
There are 1 groups of distinct atoms

 Group   1 Type He  : 45s16p9d1f contracted to 5s4p3d1f pattern {99999/4444/333/1}

Atom   0He   basis set group =>   1


           ************************************************************
           *        Program running with 18 parallel MPI-processes    *
           *              working on a common directory               *
           ************************************************************


------------------------------------------------------------------------------
                       ORCA GTO INTEGRAL CALCULATION
                     -- ANO INTEGRAL GENERATION BRANCH --
------------------------------------------------------------------------------


Gathering ANO information                         ... done
Calculation Information:
Number of atoms                                   ... 1
Number of basis functions                         ... 39
Highest angular momentum                          ... 3
Number of primitive shells                        ... 17
Total number of shells                            ... 13
Maximum number of shells                          ... 13

Getting memory                                    ... done
Making prescreening integrals                     ... done
Gathering atom contracted prescreening            ... done
Making one-electron integrals                     ... done

Timings:

Total time                                        ...    0.1 sec
Prescreening matrix                               ...    0.0 sec
One-electron matrix                               ...    0.0 sec
Two-index integrals + Cholesky                    ...    0.0 sec


           ************************************************************
           *        Program running with 18 parallel MPI-processes    *
           *              working on a common directory               *
           ************************************************************
------------------------------------------------------------------------------
                          ORCA RELATIVISTIC HAMILTONIAN
------------------------------------------------------------------------------

Relativistic Method            ... ZORA(MP)
Treatment of potential         ... Van Wuellen
Nucleus model                  ... Point Nucleus
Speed of light used            ... 1096.28791200000001


            *************************************************
            *         ZERO ORDER REGULAR APPROXIMATION      *
            *                     ZORA(MP)                  *
            *            Programmed by FN according to      *
            *                   C. van Wuellen              *
            *       J. Chem. Phys. (1998) vol 109, 392-399  *
            *************************************************

Terms included in model potential: +V(e,N)
Basis function cutoff value   ... 1.000000e-12
Loading the fitted atomic densities  (DKH4)  ... done
Calculating the cutoffs                      ... done
Number of fit functions                      ... 6
Setting up the integration grid ... done


           ************************************************************
           *        Program running with 18 parallel MPI-processes    *
           *              working on a common directory               *
           ************************************************************
-------------------------------------------------------------------------------
                                 ORCA SCF
-------------------------------------------------------------------------------

------------
SCF SETTINGS
------------
Hamiltonian:
 Density Functional     Method          .... DFT(GTOs)
 Exchange Functional    Exchange        .... Slater
   X-Alpha parameter    XAlpha          ....  0.666667
 Correlation Functional Correlation     .... VWN-5
 Gradients option       PostSCFGGA      .... off
   Density functional embedding theory  .... OFF

Relativistic Settings:
 Scalar relativistic method             .... ZORA
 Speed of light used       Velit        ....       1096.28791
Orbital energies will be scaled


General Settings:
 Integral files         IntName         .... He_ano-rcc-qzp_1096.287912_
 Hartree-Fock type      HFTyp           .... RHF
 Total Charge           Charge          ....    0
 Multiplicity           Mult            ....    1
 Number of Electrons    NEL             ....    2
 Basis Dimension        Dim             ....   39
 Nuclear Repulsion      ENuc            ....      0.0000000000 Eh

Convergence Acceleration:
 DIIS                   CNVDIIS         .... on
   Start iteration      DIISMaxIt       ....    12
   Startup error        DIISStart       ....  0.200000
   # of expansion vecs  DIISMaxEq       ....     5
   Bias factor          DIISBfac        ....   1.050
   Max. coefficient     DIISMaxC        ....  10.000
 Newton-Raphson         CNVNR           .... off
 SOSCF                  CNVSOSCF        .... on
   Start iteration      SOSCFMaxIt      ....   150
   Startup grad/error   SOSCFStart      ....  0.003300
 Level Shifting         CNVShift        .... on
   Level shift para.    LevelShift      ....    0.2500
   Turn off err/grad.   ShiftErr        ....    0.0010
 Zerner damping         CNVZerner       .... off
 Static damping         CNVDamp         .... on
   Fraction old density DampFac         ....    0.7000
   Max. Damping (<1)    DampMax         ....    0.9800
   Min. Damping (>=0)   DampMin         ....    0.0000
   Turn off err/grad.   DampErr         ....    0.1000
 Fernandez-Rico         CNVRico         .... off

SCF Procedure:
 Maximum # iterations   MaxIter         ....   125
 SCF integral mode      SCFMode         .... Direct
   Integral package                     .... LIBINT
 Reset frequency        DirectResetFreq ....    20
 Integral Threshold     Thresh          ....  1.000e-12 Eh
 Primitive CutOff       TCut            ....  1.000e-14 Eh

Convergence Tolerance:
 Convergence Check Mode ConvCheckMode   .... Total+1el-Energy
 Convergence forced     ConvForced      .... 0
 Energy Change          TolE            ....  1.000e-09 Eh
 1-El. energy change                    ....  1.000e-06 Eh
 Orbital Gradient       TolG            ....  2.000e-06
 Orbital Rotation angle TolX            ....  2.000e-06
 DIIS Error             TolErr          ....  1.000e-08


Diagonalization of the overlap matrix:
Smallest eigenvalue                        ... 1.000e+00
Time for diagonalization                   ...    0.001 sec
Threshold for overlap eigenvalues          ... 1.000e-08
Number of eigenvalues below threshold      ... 0
Time for construction of square roots      ...    0.001 sec
Total time needed                          ...    0.002 sec

-------------------
DFT GRID GENERATION
-------------------

General Integration Accuracy     IntAcc      ...  5.010
Radial Grid Type                 RadialGrid  ... Gauss-Chebyshev
Angular Grid (max. acc.)         AngularGrid ... Lebedev-434
Angular grid pruning method      GridPruning ... 3 (G Style)
Weight generation scheme         WeightScheme... Becke
Basis function cutoff            BFCut       ...    1.0000e-12
Integration weight cutoff        WCut        ...    1.0000e-14
Grids for H and He will be reduced by one unit

# of grid points (after initial pruning)     ...   6764 (   0.0 sec)
# of grid points (after weights+screening)   ...   6764 (   0.0 sec)
Grid point division into batches done        ...    0.0 sec
Reduced shell lists constructed in    0.0 sec

Total number of grid points                  ...     6764
Total number of batches                      ...      106
Average number of points per batch           ...       63
Average number of grid points per atom       ...     6764
Average number of shells per batch           ...     7.71 (59.34%)
Average number of basis functions per batch  ...    14.57 (37.36%)
Average number of large shells per batch     ...     6.86 (88.89%)
Average number of large basis fcns per batch ...    12.00 (82.35%)
Maximum spatial batch extension              ...  15.22, 15.22, 15.22 au
Average spatial batch extension              ...   0.77,  0.77,  0.77 au

Time for grid setup =    0.055 sec

------------------------------
INITIAL GUESS: MODEL POTENTIAL
------------------------------
Loading ZORA relativistic densities                ... done
Calculating cut-offs                               ... done
Setting up the integral package                    ... done
Initializing the effective Hamiltonian             ... done
Starting the Coulomb interaction                   ... done (   0.0 sec)
Reading the grid                                   ... done
Mapping shells                                     ... done
Starting the XC term evaluation                    ... done (   0.0 sec)
  promolecular density results
     # of electrons  =      1.999920377
     EX              =     -0.884114011
     EC              =     -0.112857661
     EX+EC           =     -0.996971673
Transforming the Hamiltonian                       ... done (   0.0 sec)
Diagonalizing the Hamiltonian                      ... done (   0.0 sec)
Back transforming the eigenvectors                 ... done (   0.0 sec)
Now organizing SCF variables                       ... done
                      ------------------
                      INITIAL GUESS DONE (   0.1 sec)
                      ------------------
--------------
SCF ITERATIONS
--------------
ITER       Energy         Delta-E        Max-DP      RMS-DP      [F,P]     Damp
               ***  Starting incremental Fock matrix formation  ***
  0     -2.8345378747   0.000000000000 0.00580086  0.00015312  0.0331064 0.7000
                      *** Initiating the SOSCF procedure ***
                      *** Re-Reading the Fockian *** 
                      *** Removing any level shift *** 
ITER      Energy       Delta-E        Grad      Rot      Max-DP    RMS-DP
  1     -2.83463290  -0.0000950223  0.001186  0.001186  0.015084  0.000409
               *** Restarting incremental Fock matrix formation ***
  2     -2.83477438  -0.0001414801  0.003184  0.002643  0.005966  0.000158
  3     -2.83478764  -0.0000132618  0.001274  0.000843  0.001806  0.000049
  4     -2.83479057  -0.0000029353  0.000003  0.000001  0.000001  0.000000
                 **** Energy Check signals convergence ****
              ***Rediagonalizing the Fockian in SOSCF/NRSCF***

               *****************************************************
               *                     SUCCESS                       *
               *           SCF CONVERGED AFTER   5 CYCLES          *
               *****************************************************

Setting up the final grid:

General Integration Accuracy     IntAcc      ...  5.340
Radial Grid Type                 RadialGrid  ... Gauss-Chebyshev
Angular Grid (max. acc.)         AngularGrid ... Lebedev-590
Angular grid pruning method      GridPruning ... 3 (G Style)
Weight generation scheme         WeightScheme... Becke
Basis function cutoff            BFCut       ...    1.0000e-12
Integration weight cutoff        WCut        ...    1.0000e-14
Grids for H and He will be reduced by one unit

# of grid points (after initial pruning)     ...  11406 (   0.0 sec)
# of grid points (after weights+screening)   ...  11406 (   0.0 sec)
Grid point division into batches done        ...    0.1 sec
Reduced shell lists constructed in    0.1 sec

Total number of grid points                  ...    11406
Total number of batches                      ...      179
Average number of points per batch           ...       63
Average number of grid points per atom       ...    11406
Average number of shells per batch           ...     6.00 (46.15%)
Average number of basis functions per batch  ...     8.91 (22.84%)
Average number of large shells per batch     ...     4.00 (66.67%)
Average number of large basis fcns per batch ...     4.00 (44.90%)
Maximum spatial batch extension              ...  16.29, 16.29, 16.29 au
Average spatial batch extension              ...   0.81,  0.81,  0.81 au

Final grid set up in    0.1 sec
Final integration                            ... done (   0.0 sec)
Change in XC energy                          ...     0.000000004
Integrated number of electrons               ...     1.999999999
Previous integrated no of electrons          ...     2.000000002

----------------
TOTAL SCF ENERGY
----------------

Total Energy       :           -2.83479057 Eh             -77.13857 eV

Components:
Nuclear Repulsion  :            0.00000000 Eh               0.00000 eV
Electronic Energy  :           -2.83479057 Eh             -77.13857 eV
One Electron Energy:           -3.85758183 Eh            -104.97014 eV
Two Electron Energy:            1.02279126 Eh              27.83157 eV

Virial components:
Potential Energy   :           -5.60256226 Eh            -152.45347 eV
Kinetic Energy     :            2.76777169 Eh              75.31490 eV
Virial Ratio       :            2.02421402


DFT components:
N(Alpha)           :        0.999999999540 electrons
N(Beta)            :        0.999999999540 electrons
N(Total)           :        1.999999999079 electrons
E(X)               :       -0.861832135232 Eh       
E(C)               :       -0.111466515700 Eh       
E(XC)              :       -0.973298650932 Eh       
DFET-embed. en.    :        0.000000000000 Eh       

---------------
SCF CONVERGENCE
---------------

  Last Energy change         ...   -4.3880e-12  Tolerance :   1.0000e-09
  Last MAX-Density change    ...    4.0409e-08  Tolerance :   1.0000e-08
  Last RMS-Density change    ...    1.2225e-09  Tolerance :   1.0000e-09
  Last Orbital Gradient      ...    3.0711e-08  Tolerance :   2.0000e-06
  Last Orbital Rotation      ...    1.7837e-08  Tolerance :   2.0000e-06

             **** THE GBW FILE WAS UPDATED (He_ano-rcc-qzp_1096.287912_.gbw) ****
             **** DENSITY FILE WAS UPDATED (He_ano-rcc-qzp_1096.287912_.scfp) ****
             **** ENERGY FILE WAS UPDATED (He_ano-rcc-qzp_1096.287912_.en.tmp) ****
             **** THE GBW FILE WAS UPDATED (He_ano-rcc-qzp_1096.287912_.gbw) ****
             **** DENSITY FILE WAS UPDATED (He_ano-rcc-qzp_1096.287912_.scfp) ****
----------------
ORBITAL ENERGIES
----------------

  NO   OCC          E(Eh)            E(eV) 
   0   2.0000      -0.570415       -15.5218 
   1   0.0000       0.188545         5.1306 
   2   0.0000       0.264824         7.2062 
   3   0.0000       0.264824         7.2062 
   4   0.0000       0.264824         7.2062 
   5   0.0000       1.296190        35.2711 
   6   0.0000       1.296190        35.2711 
   7   0.0000       1.296190        35.2711 
   8   0.0000       1.394353        37.9423 
   9   0.0000       1.433857        39.0172 
  10   0.0000       1.433857        39.0172 
  11   0.0000       1.433857        39.0172 
  12   0.0000       1.433857        39.0172 
  13   0.0000       1.433857        39.0172 
  14   0.0000       4.470126       121.6383 
  15   0.0000       4.470126       121.6383 
  16   0.0000       4.470126       121.6383 
  17   0.0000       5.044382       137.2646 
  18   0.0000       5.044382       137.2646 
  19   0.0000       5.044382       137.2646 
  20   0.0000       5.044382       137.2646 
  21   0.0000       5.044382       137.2646 
  22   0.0000       5.684661       154.6875 
  23   0.0000       7.410531       201.6508 
  24   0.0000       7.410531       201.6508 
  25   0.0000       7.410531       201.6508 
  26   0.0000       7.410531       201.6508 
  27   0.0000       7.410531       201.6508 
  28   0.0000       7.410531       201.6508 
  29   0.0000       7.410531       201.6508 
  30   0.0000      14.349161       390.4605 
  31   0.0000      14.349161       390.4605 
  32   0.0000      14.349161       390.4605 
  33   0.0000      14.642469       398.4418 
  34   0.0000      14.642469       398.4418 
  35   0.0000      14.642469       398.4418 
  36   0.0000      14.642469       398.4418 
  37   0.0000      14.642469       398.4418 
  38   0.0000      20.573915       559.8447 

                    ********************************
                    * MULLIKEN POPULATION ANALYSIS *
                    ********************************

-----------------------
MULLIKEN ATOMIC CHARGES
-----------------------
   0 He:   -0.000000
Sum of atomic charges:   -0.0000000

--------------------------------
MULLIKEN REDUCED ORBITAL CHARGES
--------------------------------
  0 Hes       :     2.000000  s :     2.000000
      pz      :     0.000000  p :     0.000000
      px      :     0.000000
      py      :     0.000000
      dz2     :     0.000000  d :     0.000000
      dxz     :     0.000000
      dyz     :     0.000000
      dx2y2   :     0.000000
      dxy     :     0.000000
      f0      :     0.000000  f :     0.000000
      f+1     :     0.000000
      f-1     :     0.000000
      f+2     :     0.000000
      f-2     :     0.000000
      f+3     :     0.000000
      f-3     :     0.000000


                     *******************************
                     * LOEWDIN POPULATION ANALYSIS *
                     *******************************

----------------------
LOEWDIN ATOMIC CHARGES
----------------------
   0 He:   -0.000000

-------------------------------
LOEWDIN REDUCED ORBITAL CHARGES
-------------------------------
  0 Hes       :     2.000000  s :     2.000000
      pz      :     0.000000  p :     0.000000
      px      :     0.000000
      py      :     0.000000
      dz2     :     0.000000  d :     0.000000
      dxz     :     0.000000
      dyz     :     0.000000
      dx2y2   :     0.000000
      dxy     :     0.000000
      f0      :     0.000000  f :     0.000000
      f+1     :     0.000000
      f-1     :     0.000000
      f+2     :     0.000000
      f-2     :     0.000000
      f+3     :     0.000000
      f-3     :     0.000000


                      *****************************
                      * MAYER POPULATION ANALYSIS *
                      *****************************

  NA   - Mulliken gross atomic population
  ZA   - Total nuclear charge
  QA   - Mulliken gross atomic charge
  VA   - Mayer's total valence
  BVA  - Mayer's bonded valence
  FA   - Mayer's free valence

  ATOM       NA         ZA         QA         VA         BVA        FA
  0 He     2.0000     2.0000    -0.0000    -0.0000     0.0000    -0.0000

  Mayer bond orders larger than 0.100000


--------------------------
ATOM BASIS FOR ELEMENT He
--------------------------
 NewGTO He
 S 45
    1       1149.270500000000         0.000357619973
    2        172.044570000000         0.002771959653
    3         39.080465000000         0.014293582674
    4         11.036173000000         0.055848745601
    5          3.564152000000         0.163308029264
    6          1.240443000000         0.331220293218
    7          0.447316000000         0.414158276914
    8          0.164206000000         0.188968856773
    9          0.057472000000         0.005154330063
   10       1149.270500000000        -0.000011250857
   11        172.044570000000        -0.000085515841
   12         39.080465000000        -0.000478795411
   13         11.036173000000        -0.002176073871
   14          3.564152000000        -0.009705324876
   15          1.240443000000        -0.012848904571
   16          0.447316000000         0.012114143901
   17          0.164206000000         0.011610973401
   18          0.057472000000         0.000247217751
   19       1149.270500000000         0.000009192601
   20        172.044570000000         0.000091894607
   21         39.080465000000         0.000407354436
   22         11.036173000000         0.004195722534
   23          3.564152000000         0.013092899447
   24          1.240443000000        -0.016820489836
   25          0.447316000000        -0.006158323466
   26          0.164206000000         0.012419710424
   27          0.057472000000         0.000659589983
   28       1149.270500000000        -0.000003250303
   29        172.044570000000        -0.000072083489
   30         39.080465000000        -0.000133604525
   31         11.036173000000        -0.004905986189
   32          3.564152000000        -0.000069747979
   33          1.240443000000         0.013314636450
   34          0.447316000000        -0.017495048587
   35          0.164206000000         0.006182187386
   36          0.057472000000         0.003744245838
   37       1149.270500000000         0.000001898316
   38        172.044570000000         0.000027405376
   39         39.080465000000         0.000150281024
   40         11.036173000000         0.002989193533
   41          3.564152000000        -0.005311110458
   42          1.240443000000         0.003960364451
   43          0.447316000000        -0.000284653012
   44          0.164206000000        -0.002842296195
   45          0.057472000000         0.002504893091
 S 45
    1       1149.270500000000         0.000008864954
    2        172.044570000000         0.000068713427
    3         39.080465000000         0.000354320111
    4         11.036173000000         0.001384420839
    5          3.564152000000         0.004048202632
    6          1.240443000000         0.008210538507
    7          0.447316000000         0.010266467817
    8          0.164206000000         0.004684302583
    9          0.057472000000         0.000127769422
   10       1149.270500000000         0.000349205879
   11        172.044570000000         0.002654254260
   12         39.080465000000         0.014860928068
   13         11.036173000000         0.067541326702
   14          3.564152000000         0.301235416176
   15          1.240443000000         0.398806342455
   16          0.447316000000        -0.376000723964
   17          0.164206000000        -0.360383238002
   18          0.057472000000        -0.007673183839
   19       1149.270500000000        -0.000383378050
   20        172.044570000000        -0.003832470762
   21         39.080465000000        -0.016988744175
   22         11.036173000000        -0.174982890582
   23          3.564152000000        -0.546040252334
   24          1.240443000000         0.701499660287
   25          0.447316000000         0.256833294485
   26          0.164206000000        -0.517964858846
   27          0.057472000000        -0.027508244617
   28       1149.270500000000         0.000234616018
   29        172.044570000000         0.005203189030
   30         39.080465000000         0.009643950531
   31         11.036173000000         0.354127886696
   32          3.564152000000         0.005034605347
   33          1.240443000000        -0.961087921204
   34          0.447316000000         1.262841831351
   35          0.164206000000        -0.446247679848
   36          0.057472000000        -0.270270199455
   37       1149.270500000000        -0.000144774895
   38        172.044570000000        -0.002090069058
   39         39.080465000000        -0.011461171475
   40         11.036173000000        -0.227970629749
   41          3.564152000000         0.405051456909
   42          1.240443000000        -0.302036909925
   43          0.447316000000         0.021709041496
   44          0.164206000000         0.216767514839
   45          0.057472000000        -0.191035491319
 S 45
    1       1149.270500000000        -0.000002652663
    2        172.044570000000        -0.000020561145
    3         39.080465000000        -0.000106023340
    4         11.036173000000        -0.000414260767
    5          3.564152000000        -0.001211345193
    6          1.240443000000        -0.002456842519
    7          0.447316000000        -0.003072039018
    8          0.164206000000        -0.001401685620
    9          0.057472000000        -0.000038232492
   10       1149.270500000000        -0.000371515924
   11        172.044570000000        -0.002823829098
   12         39.080465000000        -0.015810362156
   13         11.036173000000        -0.071856402961
   14          3.564152000000        -0.320480726509
   15          1.240443000000        -0.424285258316
   16          0.447316000000         0.400022635829
   17          0.164206000000         0.383407380854
   18          0.057472000000         0.008163407751
   19       1149.270500000000        -0.000138524802
   20        172.044570000000        -0.001384774773
   21         39.080465000000        -0.006138490238
   22         11.036173000000        -0.063226025103
   23          3.564152000000        -0.197299030701
   24          1.240443000000         0.253470696383
   25          0.447316000000         0.092800777667
   26          0.164206000000        -0.187154635855
   27          0.057472000000        -0.009939468704
   28       1149.270500000000         0.000294404849
   29        172.044570000000         0.006529153884
   30         39.080465000000         0.012101585528
   31         11.036173000000         0.444372759394
   32          3.564152000000         0.006317608849
   33          1.240443000000        -1.206008641538
   34          0.447316000000         1.584660599622
   35          0.164206000000        -0.559968080224
   36          0.057472000000        -0.339145034395
   37       1149.270500000000        -0.000268106532
   38        172.044570000000        -0.003870568631
   39         39.080465000000        -0.021224777528
   40         11.036173000000        -0.422175508848
   41          3.564152000000         0.750108929027
   42          1.240443000000        -0.559337780833
   43          0.447316000000         0.040202659659
   44          0.164206000000         0.401428622537
   45          0.057472000000        -0.353775860708
 S 45
    1       1149.270500000000         0.000000354630
    2        172.044570000000         0.000002748781
    3         39.080465000000         0.000014174063
    4         11.036173000000         0.000055381750
    5          3.564152000000         0.000161942482
    6          1.240443000000         0.000328450700
    7          0.447316000000         0.000410695174
    8          0.164206000000         0.000187388740
    9          0.057472000000         0.000005111231
   10       1149.270500000000        -0.000145300167
   11        172.044570000000        -0.001104401761
   12         39.080465000000        -0.006183444959
   13         11.036173000000        -0.028103095192
   14          3.564152000000        -0.125340261873
   15          1.240443000000        -0.165938295152
   16          0.447316000000         0.156449164591
   17          0.164206000000         0.149950925423
   18          0.057472000000         0.003192715133
   19       1149.270500000000        -0.000544640674
   20        172.044570000000        -0.005444546076
   21         39.080465000000        -0.024134822203
   22         11.036173000000        -0.248587000276
   23          3.564152000000        -0.775724460297
   24          1.240443000000         0.996575697576
   25          0.447316000000         0.364866633732
   26          0.164206000000        -0.735839544546
   27          0.057472000000        -0.039079203627
   28       1149.270500000000        -0.000159133874
   29        172.044570000000        -0.003529186265
   30         39.080465000000        -0.006541237991
   31         11.036173000000        -0.240195631304
   32          3.564152000000        -0.003414840387
   33          1.240443000000         0.651880658497
   34          0.447316000000        -0.856552399043
   35          0.164206000000         0.302678064071
   36          0.057472000000         0.183317167666
   37       1149.270500000000         0.000433411717
   38        172.044570000000         0.006257026945
   39         39.080465000000         0.034311238882
   40         11.036173000000         0.682474278700
   41          3.564152000000        -1.212600066927
   42          1.240443000000         0.904206048250
   43          0.447316000000        -0.064990224628
   44          0.164206000000        -0.648935582178
   45          0.057472000000         0.571901780890
 S 45
    1       1149.270500000000        -0.000000338613
    2        172.044570000000        -0.000002624634
    3         39.080465000000        -0.000013533898
    4         11.036173000000        -0.000052880459
    5          3.564152000000        -0.000154628425
    6          1.240443000000        -0.000313616376
    7          0.447316000000        -0.000392146316
    8          0.164206000000        -0.000178925414
    9          0.057472000000        -0.000004880384
   10       1149.270500000000         0.000018133199
   11        172.044570000000         0.000137827351
   12         39.080465000000         0.000771682793
   13         11.036173000000         0.003507215661
   14          3.564152000000         0.015642238920
   15          1.240443000000         0.020708800348
   16          0.447316000000        -0.019524573946
   17          0.164206000000        -0.018713605403
   18          0.057472000000        -0.000398445098
   19       1149.270500000000         0.000186439698
   20        172.044570000000         0.001863760041
   21         39.080465000000         0.008261757105
   22         11.036173000000         0.085095527049
   23          3.564152000000         0.265543579193
   24          1.240443000000        -0.341144686310
   25          0.447316000000        -0.124900008712
   26          0.164206000000         0.251890299161
   27          0.057472000000         0.013377471169
   28       1149.270500000000         0.000236473663
   29        172.044570000000         0.005244386898
   30         39.080465000000         0.009720309510
   31         11.036173000000         0.356931804425
   32          3.564152000000         0.005074468402
   33          1.240443000000        -0.968697633859
   34          0.447316000000         1.272840774479
   35          0.164206000000        -0.449780984702
   36          0.057472000000        -0.272410147853
   37       1149.270500000000         0.000769113200
   38        172.044570000000         0.011103442345
   39         39.080465000000         0.060887201873
   40         11.036173000000         1.211088568471
   41          3.564152000000        -2.151826266594
   42          1.240443000000         1.604563926810
   43          0.447316000000        -0.115328768521
   44          0.164206000000        -1.151572285986
   45          0.057472000000         1.014871520789
 P 16
    1          4.550000000000         0.061915012882
    2          1.592500000000         0.263932908351
    3          0.557375000000         0.311531637802
    4          0.195081000000         0.192593101017
    5          4.550000000000        -0.129793614354
    6          1.592500000000        -0.355690525851
    7          0.557375000000        -0.137728238201
    8          0.195081000000         0.692204640333
    9          4.550000000000         0.151357166200
   10          1.592500000000         0.019345541492
   11          0.557375000000        -0.223755679406
   12          0.195081000000         0.159774210857
   13          4.550000000000        -0.092374772325
   14          1.592500000000         0.157606340384
   15          0.557375000000        -0.136395601407
   16          0.195081000000         0.060489512187
 P 16
    1          4.550000000000        -0.057140329688
    2          1.592500000000        -0.243579266109
    3          0.557375000000        -0.287507337299
    4          0.195081000000        -0.177740951276
    5          4.550000000000        -0.088877341033
    6          1.592500000000        -0.243562276355
    7          0.557375000000        -0.094310645847
    8          0.195081000000         0.473993333107
    9          4.550000000000         0.458246715364
   10          1.592500000000         0.058570274988
   11          0.557375000000        -0.677439381998
   12          0.195081000000         0.483730035143
   13          4.550000000000        -0.385105381634
   14          1.592500000000         0.657052226856
   15          0.557375000000        -0.568625814285
   16          0.195081000000         0.252177473234
 P 16
    1          4.550000000000        -0.028939411223
    2          1.592500000000        -0.123363666010
    3          0.557375000000        -0.145611569083
    4          0.195081000000        -0.090019054987
    5          4.550000000000        -0.097059160028
    6          1.592500000000        -0.265983991899
    7          0.557375000000        -0.102992640881
    8          0.195081000000         0.517627937956
    9          4.550000000000        -0.480846681149
   10          1.592500000000        -0.061458863529
   11          0.557375000000         0.710849565510
   12          0.195081000000        -0.507586795872
   13          4.550000000000         0.773950876165
   14          1.592500000000        -1.320485692782
   15          0.557375000000         1.142774077340
   16          0.195081000000        -0.506804074071
 P 16
    1          4.550000000000         0.005610622989
    2          1.592500000000         0.023917107889
    3          0.557375000000         0.028230415975
    4          0.195081000000         0.017452427605
    5          4.550000000000         0.026531475853
    6          1.592500000000         0.072707695557
    7          0.557375000000         0.028153414513
    8          0.195081000000        -0.141495487213
    9          4.550000000000         0.516457490240
   10          1.592500000000         0.066010417989
   11          0.557375000000        -0.763494055245
   12          0.195081000000         0.545177939148
   13          4.550000000000         1.089357550539
   14          1.592500000000        -1.858620623232
   15          0.557375000000         1.608486543588
   16          0.195081000000        -0.713340938986
 D 9
    1          3.400000000000        -0.187270197507
    2          1.360000000000        -0.377530093793
    3          0.544000000000        -0.202474339477
    4          3.400000000000         0.595015432678
    5          1.360000000000        -0.115728971892
    6          0.544000000000        -0.436966361823
    7          3.400000000000        -0.483470678839
    8          1.360000000000         0.812632718811
    9          0.544000000000        -0.547449497130
 D 9
    1          3.400000000000        -0.195673715923
    2          1.360000000000        -0.394471289658
    3          0.544000000000        -0.211560124953
    4          3.400000000000        -0.318780666089
    5          1.360000000000         0.062002019980
    6          0.544000000000         0.234105571436
    7          3.400000000000         0.757767642893
    8          1.360000000000        -1.273679680741
    9          0.544000000000         0.858044827123
 D 9
    1          3.400000000000         0.073151679771
    2          1.360000000000         0.147471198795
    3          0.544000000000         0.079090737557
    4          3.400000000000         0.670547365135
    5          1.360000000000        -0.130419738565
    6          0.544000000000        -0.492435366347
    7          3.400000000000         0.789257066121
    8          1.360000000000        -1.326608093428
    9          0.544000000000         0.893701320196
 F 1
    1          1.813333000000         1.000000000000
 end
  // -----------------------------------------------
  // The basis set
  // -----------------------------------------------
  BAS[ATNO] = new BFNGauss[NSH];
  // Basis function   1 L = s
  InitBFNGauss(BAS[ATNO][  0]);
  BAS[ATNO][  0].l  = 0;
  BAS[ATNO][  0].ng = 45;
  BAS[ATNO][  0].a[  0] =      1149.270500000000;     BAS[ATNO][  0].d[  0] =         0.000357619973;
  BAS[ATNO][  0].a[  1] =       172.044570000000;     BAS[ATNO][  0].d[  1] =         0.002771959653;
  BAS[ATNO][  0].a[  2] =        39.080465000000;     BAS[ATNO][  0].d[  2] =         0.014293582674;
  BAS[ATNO][  0].a[  3] =        11.036173000000;     BAS[ATNO][  0].d[  3] =         0.055848745601;
  BAS[ATNO][  0].a[  4] =         3.564152000000;     BAS[ATNO][  0].d[  4] =         0.163308029264;
  BAS[ATNO][  0].a[  5] =         1.240443000000;     BAS[ATNO][  0].d[  5] =         0.331220293218;
  BAS[ATNO][  0].a[  6] =         0.447316000000;     BAS[ATNO][  0].d[  6] =         0.414158276914;
  BAS[ATNO][  0].a[  7] =         0.164206000000;     BAS[ATNO][  0].d[  7] =         0.188968856773;
  BAS[ATNO][  0].a[  8] =         0.057472000000;     BAS[ATNO][  0].d[  8] =         0.005154330063;
  BAS[ATNO][  0].a[  9] =      1149.270500000000;     BAS[ATNO][  0].d[  9] =        -0.000011250857;
  BAS[ATNO][  0].a[ 10] =       172.044570000000;     BAS[ATNO][  0].d[ 10] =        -0.000085515841;
  BAS[ATNO][  0].a[ 11] =        39.080465000000;     BAS[ATNO][  0].d[ 11] =        -0.000478795411;
  BAS[ATNO][  0].a[ 12] =        11.036173000000;     BAS[ATNO][  0].d[ 12] =        -0.002176073871;
  BAS[ATNO][  0].a[ 13] =         3.564152000000;     BAS[ATNO][  0].d[ 13] =        -0.009705324876;
  BAS[ATNO][  0].a[ 14] =         1.240443000000;     BAS[ATNO][  0].d[ 14] =        -0.012848904571;
  BAS[ATNO][  0].a[ 15] =         0.447316000000;     BAS[ATNO][  0].d[ 15] =         0.012114143901;
  BAS[ATNO][  0].a[ 16] =         0.164206000000;     BAS[ATNO][  0].d[ 16] =         0.011610973401;
  BAS[ATNO][  0].a[ 17] =         0.057472000000;     BAS[ATNO][  0].d[ 17] =         0.000247217751;
  BAS[ATNO][  0].a[ 18] =      1149.270500000000;     BAS[ATNO][  0].d[ 18] =         0.000009192601;
  BAS[ATNO][  0].a[ 19] =       172.044570000000;     BAS[ATNO][  0].d[ 19] =         0.000091894607;
  BAS[ATNO][  0].a[ 20] =        39.080465000000;     BAS[ATNO][  0].d[ 20] =         0.000407354436;
  BAS[ATNO][  0].a[ 21] =        11.036173000000;     BAS[ATNO][  0].d[ 21] =         0.004195722534;
  BAS[ATNO][  0].a[ 22] =         3.564152000000;     BAS[ATNO][  0].d[ 22] =         0.013092899447;
  BAS[ATNO][  0].a[ 23] =         1.240443000000;     BAS[ATNO][  0].d[ 23] =        -0.016820489836;
  BAS[ATNO][  0].a[ 24] =         0.447316000000;     BAS[ATNO][  0].d[ 24] =        -0.006158323466;
  BAS[ATNO][  0].a[ 25] =         0.164206000000;     BAS[ATNO][  0].d[ 25] =         0.012419710424;
  BAS[ATNO][  0].a[ 26] =         0.057472000000;     BAS[ATNO][  0].d[ 26] =         0.000659589983;
  BAS[ATNO][  0].a[ 27] =      1149.270500000000;     BAS[ATNO][  0].d[ 27] =        -0.000003250303;
  BAS[ATNO][  0].a[ 28] =       172.044570000000;     BAS[ATNO][  0].d[ 28] =        -0.000072083489;
  BAS[ATNO][  0].a[ 29] =        39.080465000000;     BAS[ATNO][  0].d[ 29] =        -0.000133604525;
  BAS[ATNO][  0].a[ 30] =        11.036173000000;     BAS[ATNO][  0].d[ 30] =        -0.004905986189;
  BAS[ATNO][  0].a[ 31] =         3.564152000000;     BAS[ATNO][  0].d[ 31] =        -0.000069747979;
  BAS[ATNO][  0].a[ 32] =         1.240443000000;     BAS[ATNO][  0].d[ 32] =         0.013314636450;
  BAS[ATNO][  0].a[ 33] =         0.447316000000;     BAS[ATNO][  0].d[ 33] =        -0.017495048587;
  BAS[ATNO][  0].a[ 34] =         0.164206000000;     BAS[ATNO][  0].d[ 34] =         0.006182187386;
  BAS[ATNO][  0].a[ 35] =         0.057472000000;     BAS[ATNO][  0].d[ 35] =         0.003744245838;
  BAS[ATNO][  0].a[ 36] =      1149.270500000000;     BAS[ATNO][  0].d[ 36] =         0.000001898316;
  BAS[ATNO][  0].a[ 37] =       172.044570000000;     BAS[ATNO][  0].d[ 37] =         0.000027405376;
  BAS[ATNO][  0].a[ 38] =        39.080465000000;     BAS[ATNO][  0].d[ 38] =         0.000150281024;
  BAS[ATNO][  0].a[ 39] =        11.036173000000;     BAS[ATNO][  0].d[ 39] =         0.002989193533;
  BAS[ATNO][  0].a[ 40] =         3.564152000000;     BAS[ATNO][  0].d[ 40] =        -0.005311110458;
  BAS[ATNO][  0].a[ 41] =         1.240443000000;     BAS[ATNO][  0].d[ 41] =         0.003960364451;
  BAS[ATNO][  0].a[ 42] =         0.447316000000;     BAS[ATNO][  0].d[ 42] =        -0.000284653012;
  BAS[ATNO][  0].a[ 43] =         0.164206000000;     BAS[ATNO][  0].d[ 43] =        -0.002842296195;
  BAS[ATNO][  0].a[ 44] =         0.057472000000;     BAS[ATNO][  0].d[ 44] =         0.002504893091;

  // Basis function   2 L = s
  InitBFNGauss(BAS[ATNO][  1]);
  BAS[ATNO][  1].l  = 0;
  BAS[ATNO][  1].ng = 45;
  BAS[ATNO][  1].a[  0] =      1149.270500000000;     BAS[ATNO][  1].d[  0] =         0.000008864954;
  BAS[ATNO][  1].a[  1] =       172.044570000000;     BAS[ATNO][  1].d[  1] =         0.000068713427;
  BAS[ATNO][  1].a[  2] =        39.080465000000;     BAS[ATNO][  1].d[  2] =         0.000354320111;
  BAS[ATNO][  1].a[  3] =        11.036173000000;     BAS[ATNO][  1].d[  3] =         0.001384420839;
  BAS[ATNO][  1].a[  4] =         3.564152000000;     BAS[ATNO][  1].d[  4] =         0.004048202632;
  BAS[ATNO][  1].a[  5] =         1.240443000000;     BAS[ATNO][  1].d[  5] =         0.008210538507;
  BAS[ATNO][  1].a[  6] =         0.447316000000;     BAS[ATNO][  1].d[  6] =         0.010266467817;
  BAS[ATNO][  1].a[  7] =         0.164206000000;     BAS[ATNO][  1].d[  7] =         0.004684302583;
  BAS[ATNO][  1].a[  8] =         0.057472000000;     BAS[ATNO][  1].d[  8] =         0.000127769422;
  BAS[ATNO][  1].a[  9] =      1149.270500000000;     BAS[ATNO][  1].d[  9] =         0.000349205879;
  BAS[ATNO][  1].a[ 10] =       172.044570000000;     BAS[ATNO][  1].d[ 10] =         0.002654254260;
  BAS[ATNO][  1].a[ 11] =        39.080465000000;     BAS[ATNO][  1].d[ 11] =         0.014860928068;
  BAS[ATNO][  1].a[ 12] =        11.036173000000;     BAS[ATNO][  1].d[ 12] =         0.067541326702;
  BAS[ATNO][  1].a[ 13] =         3.564152000000;     BAS[ATNO][  1].d[ 13] =         0.301235416176;
  BAS[ATNO][  1].a[ 14] =         1.240443000000;     BAS[ATNO][  1].d[ 14] =         0.398806342455;
  BAS[ATNO][  1].a[ 15] =         0.447316000000;     BAS[ATNO][  1].d[ 15] =        -0.376000723964;
  BAS[ATNO][  1].a[ 16] =         0.164206000000;     BAS[ATNO][  1].d[ 16] =        -0.360383238002;
  BAS[ATNO][  1].a[ 17] =         0.057472000000;     BAS[ATNO][  1].d[ 17] =        -0.007673183839;
  BAS[ATNO][  1].a[ 18] =      1149.270500000000;     BAS[ATNO][  1].d[ 18] =        -0.000383378050;
  BAS[ATNO][  1].a[ 19] =       172.044570000000;     BAS[ATNO][  1].d[ 19] =        -0.003832470762;
  BAS[ATNO][  1].a[ 20] =        39.080465000000;     BAS[ATNO][  1].d[ 20] =        -0.016988744175;
  BAS[ATNO][  1].a[ 21] =        11.036173000000;     BAS[ATNO][  1].d[ 21] =        -0.174982890582;
  BAS[ATNO][  1].a[ 22] =         3.564152000000;     BAS[ATNO][  1].d[ 22] =        -0.546040252334;
  BAS[ATNO][  1].a[ 23] =         1.240443000000;     BAS[ATNO][  1].d[ 23] =         0.701499660287;
  BAS[ATNO][  1].a[ 24] =         0.447316000000;     BAS[ATNO][  1].d[ 24] =         0.256833294485;
  BAS[ATNO][  1].a[ 25] =         0.164206000000;     BAS[ATNO][  1].d[ 25] =        -0.517964858846;
  BAS[ATNO][  1].a[ 26] =         0.057472000000;     BAS[ATNO][  1].d[ 26] =        -0.027508244617;
  BAS[ATNO][  1].a[ 27] =      1149.270500000000;     BAS[ATNO][  1].d[ 27] =         0.000234616018;
  BAS[ATNO][  1].a[ 28] =       172.044570000000;     BAS[ATNO][  1].d[ 28] =         0.005203189030;
  BAS[ATNO][  1].a[ 29] =        39.080465000000;     BAS[ATNO][  1].d[ 29] =         0.009643950531;
  BAS[ATNO][  1].a[ 30] =        11.036173000000;     BAS[ATNO][  1].d[ 30] =         0.354127886696;
  BAS[ATNO][  1].a[ 31] =         3.564152000000;     BAS[ATNO][  1].d[ 31] =         0.005034605347;
  BAS[ATNO][  1].a[ 32] =         1.240443000000;     BAS[ATNO][  1].d[ 32] =        -0.961087921204;
  BAS[ATNO][  1].a[ 33] =         0.447316000000;     BAS[ATNO][  1].d[ 33] =         1.262841831351;
  BAS[ATNO][  1].a[ 34] =         0.164206000000;     BAS[ATNO][  1].d[ 34] =        -0.446247679848;
  BAS[ATNO][  1].a[ 35] =         0.057472000000;     BAS[ATNO][  1].d[ 35] =        -0.270270199455;
  BAS[ATNO][  1].a[ 36] =      1149.270500000000;     BAS[ATNO][  1].d[ 36] =        -0.000144774895;
  BAS[ATNO][  1].a[ 37] =       172.044570000000;     BAS[ATNO][  1].d[ 37] =        -0.002090069058;
  BAS[ATNO][  1].a[ 38] =        39.080465000000;     BAS[ATNO][  1].d[ 38] =        -0.011461171475;
  BAS[ATNO][  1].a[ 39] =        11.036173000000;     BAS[ATNO][  1].d[ 39] =        -0.227970629749;
  BAS[ATNO][  1].a[ 40] =         3.564152000000;     BAS[ATNO][  1].d[ 40] =         0.405051456909;
  BAS[ATNO][  1].a[ 41] =         1.240443000000;     BAS[ATNO][  1].d[ 41] =        -0.302036909925;
  BAS[ATNO][  1].a[ 42] =         0.447316000000;     BAS[ATNO][  1].d[ 42] =         0.021709041496;
  BAS[ATNO][  1].a[ 43] =         0.164206000000;     BAS[ATNO][  1].d[ 43] =         0.216767514839;
  BAS[ATNO][  1].a[ 44] =         0.057472000000;     BAS[ATNO][  1].d[ 44] =        -0.191035491319;

  // Basis function   3 L = s
  InitBFNGauss(BAS[ATNO][  2]);
  BAS[ATNO][  2].l  = 0;
  BAS[ATNO][  2].ng = 45;
  BAS[ATNO][  2].a[  0] =      1149.270500000000;     BAS[ATNO][  2].d[  0] =        -0.000002652663;
  BAS[ATNO][  2].a[  1] =       172.044570000000;     BAS[ATNO][  2].d[  1] =        -0.000020561145;
  BAS[ATNO][  2].a[  2] =        39.080465000000;     BAS[ATNO][  2].d[  2] =        -0.000106023340;
  BAS[ATNO][  2].a[  3] =        11.036173000000;     BAS[ATNO][  2].d[  3] =        -0.000414260767;
  BAS[ATNO][  2].a[  4] =         3.564152000000;     BAS[ATNO][  2].d[  4] =        -0.001211345193;
  BAS[ATNO][  2].a[  5] =         1.240443000000;     BAS[ATNO][  2].d[  5] =        -0.002456842519;
  BAS[ATNO][  2].a[  6] =         0.447316000000;     BAS[ATNO][  2].d[  6] =        -0.003072039018;
  BAS[ATNO][  2].a[  7] =         0.164206000000;     BAS[ATNO][  2].d[  7] =        -0.001401685620;
  BAS[ATNO][  2].a[  8] =         0.057472000000;     BAS[ATNO][  2].d[  8] =        -0.000038232492;
  BAS[ATNO][  2].a[  9] =      1149.270500000000;     BAS[ATNO][  2].d[  9] =        -0.000371515924;
  BAS[ATNO][  2].a[ 10] =       172.044570000000;     BAS[ATNO][  2].d[ 10] =        -0.002823829098;
  BAS[ATNO][  2].a[ 11] =        39.080465000000;     BAS[ATNO][  2].d[ 11] =        -0.015810362156;
  BAS[ATNO][  2].a[ 12] =        11.036173000000;     BAS[ATNO][  2].d[ 12] =        -0.071856402961;
  BAS[ATNO][  2].a[ 13] =         3.564152000000;     BAS[ATNO][  2].d[ 13] =        -0.320480726509;
  BAS[ATNO][  2].a[ 14] =         1.240443000000;     BAS[ATNO][  2].d[ 14] =        -0.424285258316;
  BAS[ATNO][  2].a[ 15] =         0.447316000000;     BAS[ATNO][  2].d[ 15] =         0.400022635829;
  BAS[ATNO][  2].a[ 16] =         0.164206000000;     BAS[ATNO][  2].d[ 16] =         0.383407380854;
  BAS[ATNO][  2].a[ 17] =         0.057472000000;     BAS[ATNO][  2].d[ 17] =         0.008163407751;
  BAS[ATNO][  2].a[ 18] =      1149.270500000000;     BAS[ATNO][  2].d[ 18] =        -0.000138524802;
  BAS[ATNO][  2].a[ 19] =       172.044570000000;     BAS[ATNO][  2].d[ 19] =        -0.001384774773;
  BAS[ATNO][  2].a[ 20] =        39.080465000000;     BAS[ATNO][  2].d[ 20] =        -0.006138490238;
  BAS[ATNO][  2].a[ 21] =        11.036173000000;     BAS[ATNO][  2].d[ 21] =        -0.063226025103;
  BAS[ATNO][  2].a[ 22] =         3.564152000000;     BAS[ATNO][  2].d[ 22] =        -0.197299030701;
  BAS[ATNO][  2].a[ 23] =         1.240443000000;     BAS[ATNO][  2].d[ 23] =         0.253470696383;
  BAS[ATNO][  2].a[ 24] =         0.447316000000;     BAS[ATNO][  2].d[ 24] =         0.092800777667;
  BAS[ATNO][  2].a[ 25] =         0.164206000000;     BAS[ATNO][  2].d[ 25] =        -0.187154635855;
  BAS[ATNO][  2].a[ 26] =         0.057472000000;     BAS[ATNO][  2].d[ 26] =        -0.009939468704;
  BAS[ATNO][  2].a[ 27] =      1149.270500000000;     BAS[ATNO][  2].d[ 27] =         0.000294404849;
  BAS[ATNO][  2].a[ 28] =       172.044570000000;     BAS[ATNO][  2].d[ 28] =         0.006529153884;
  BAS[ATNO][  2].a[ 29] =        39.080465000000;     BAS[ATNO][  2].d[ 29] =         0.012101585528;
  BAS[ATNO][  2].a[ 30] =        11.036173000000;     BAS[ATNO][  2].d[ 30] =         0.444372759394;
  BAS[ATNO][  2].a[ 31] =         3.564152000000;     BAS[ATNO][  2].d[ 31] =         0.006317608849;
  BAS[ATNO][  2].a[ 32] =         1.240443000000;     BAS[ATNO][  2].d[ 32] =        -1.206008641538;
  BAS[ATNO][  2].a[ 33] =         0.447316000000;     BAS[ATNO][  2].d[ 33] =         1.584660599622;
  BAS[ATNO][  2].a[ 34] =         0.164206000000;     BAS[ATNO][  2].d[ 34] =        -0.559968080224;
  BAS[ATNO][  2].a[ 35] =         0.057472000000;     BAS[ATNO][  2].d[ 35] =        -0.339145034395;
  BAS[ATNO][  2].a[ 36] =      1149.270500000000;     BAS[ATNO][  2].d[ 36] =        -0.000268106532;
  BAS[ATNO][  2].a[ 37] =       172.044570000000;     BAS[ATNO][  2].d[ 37] =        -0.003870568631;
  BAS[ATNO][  2].a[ 38] =        39.080465000000;     BAS[ATNO][  2].d[ 38] =        -0.021224777528;
  BAS[ATNO][  2].a[ 39] =        11.036173000000;     BAS[ATNO][  2].d[ 39] =        -0.422175508848;
  BAS[ATNO][  2].a[ 40] =         3.564152000000;     BAS[ATNO][  2].d[ 40] =         0.750108929027;
  BAS[ATNO][  2].a[ 41] =         1.240443000000;     BAS[ATNO][  2].d[ 41] =        -0.559337780833;
  BAS[ATNO][  2].a[ 42] =         0.447316000000;     BAS[ATNO][  2].d[ 42] =         0.040202659659;
  BAS[ATNO][  2].a[ 43] =         0.164206000000;     BAS[ATNO][  2].d[ 43] =         0.401428622537;
  BAS[ATNO][  2].a[ 44] =         0.057472000000;     BAS[ATNO][  2].d[ 44] =        -0.353775860708;

  // Basis function   4 L = s
  InitBFNGauss(BAS[ATNO][  3]);
  BAS[ATNO][  3].l  = 0;
  BAS[ATNO][  3].ng = 45;
  BAS[ATNO][  3].a[  0] =      1149.270500000000;     BAS[ATNO][  3].d[  0] =        -0.000000354630;
  BAS[ATNO][  3].a[  1] =       172.044570000000;     BAS[ATNO][  3].d[  1] =        -0.000002748781;
  BAS[ATNO][  3].a[  2] =        39.080465000000;     BAS[ATNO][  3].d[  2] =        -0.000014174063;
  BAS[ATNO][  3].a[  3] =        11.036173000000;     BAS[ATNO][  3].d[  3] =        -0.000055381750;
  BAS[ATNO][  3].a[  4] =         3.564152000000;     BAS[ATNO][  3].d[  4] =        -0.000161942482;
  BAS[ATNO][  3].a[  5] =         1.240443000000;     BAS[ATNO][  3].d[  5] =        -0.000328450700;
  BAS[ATNO][  3].a[  6] =         0.447316000000;     BAS[ATNO][  3].d[  6] =        -0.000410695174;
  BAS[ATNO][  3].a[  7] =         0.164206000000;     BAS[ATNO][  3].d[  7] =        -0.000187388740;
  BAS[ATNO][  3].a[  8] =         0.057472000000;     BAS[ATNO][  3].d[  8] =        -0.000005111231;
  BAS[ATNO][  3].a[  9] =      1149.270500000000;     BAS[ATNO][  3].d[  9] =         0.000145300167;
  BAS[ATNO][  3].a[ 10] =       172.044570000000;     BAS[ATNO][  3].d[ 10] =         0.001104401761;
  BAS[ATNO][  3].a[ 11] =        39.080465000000;     BAS[ATNO][  3].d[ 11] =         0.006183444959;
  BAS[ATNO][  3].a[ 12] =        11.036173000000;     BAS[ATNO][  3].d[ 12] =         0.028103095192;
  BAS[ATNO][  3].a[ 13] =         3.564152000000;     BAS[ATNO][  3].d[ 13] =         0.125340261873;
  BAS[ATNO][  3].a[ 14] =         1.240443000000;     BAS[ATNO][  3].d[ 14] =         0.165938295152;
  BAS[ATNO][  3].a[ 15] =         0.447316000000;     BAS[ATNO][  3].d[ 15] =        -0.156449164591;
  BAS[ATNO][  3].a[ 16] =         0.164206000000;     BAS[ATNO][  3].d[ 16] =        -0.149950925423;
  BAS[ATNO][  3].a[ 17] =         0.057472000000;     BAS[ATNO][  3].d[ 17] =        -0.003192715133;
  BAS[ATNO][  3].a[ 18] =      1149.270500000000;     BAS[ATNO][  3].d[ 18] =         0.000544640674;
  BAS[ATNO][  3].a[ 19] =       172.044570000000;     BAS[ATNO][  3].d[ 19] =         0.005444546076;
  BAS[ATNO][  3].a[ 20] =        39.080465000000;     BAS[ATNO][  3].d[ 20] =         0.024134822203;
  BAS[ATNO][  3].a[ 21] =        11.036173000000;     BAS[ATNO][  3].d[ 21] =         0.248587000276;
  BAS[ATNO][  3].a[ 22] =         3.564152000000;     BAS[ATNO][  3].d[ 22] =         0.775724460297;
  BAS[ATNO][  3].a[ 23] =         1.240443000000;     BAS[ATNO][  3].d[ 23] =        -0.996575697576;
  BAS[ATNO][  3].a[ 24] =         0.447316000000;     BAS[ATNO][  3].d[ 24] =        -0.364866633732;
  BAS[ATNO][  3].a[ 25] =         0.164206000000;     BAS[ATNO][  3].d[ 25] =         0.735839544546;
  BAS[ATNO][  3].a[ 26] =         0.057472000000;     BAS[ATNO][  3].d[ 26] =         0.039079203627;
  BAS[ATNO][  3].a[ 27] =      1149.270500000000;     BAS[ATNO][  3].d[ 27] =         0.000159133874;
  BAS[ATNO][  3].a[ 28] =       172.044570000000;     BAS[ATNO][  3].d[ 28] =         0.003529186265;
  BAS[ATNO][  3].a[ 29] =        39.080465000000;     BAS[ATNO][  3].d[ 29] =         0.006541237991;
  BAS[ATNO][  3].a[ 30] =        11.036173000000;     BAS[ATNO][  3].d[ 30] =         0.240195631304;
  BAS[ATNO][  3].a[ 31] =         3.564152000000;     BAS[ATNO][  3].d[ 31] =         0.003414840387;
  BAS[ATNO][  3].a[ 32] =         1.240443000000;     BAS[ATNO][  3].d[ 32] =        -0.651880658497;
  BAS[ATNO][  3].a[ 33] =         0.447316000000;     BAS[ATNO][  3].d[ 33] =         0.856552399043;
  BAS[ATNO][  3].a[ 34] =         0.164206000000;     BAS[ATNO][  3].d[ 34] =        -0.302678064071;
  BAS[ATNO][  3].a[ 35] =         0.057472000000;     BAS[ATNO][  3].d[ 35] =        -0.183317167666;
  BAS[ATNO][  3].a[ 36] =      1149.270500000000;     BAS[ATNO][  3].d[ 36] =        -0.000433411717;
  BAS[ATNO][  3].a[ 37] =       172.044570000000;     BAS[ATNO][  3].d[ 37] =        -0.006257026945;
  BAS[ATNO][  3].a[ 38] =        39.080465000000;     BAS[ATNO][  3].d[ 38] =        -0.034311238882;
  BAS[ATNO][  3].a[ 39] =        11.036173000000;     BAS[ATNO][  3].d[ 39] =        -0.682474278700;
  BAS[ATNO][  3].a[ 40] =         3.564152000000;     BAS[ATNO][  3].d[ 40] =         1.212600066927;
  BAS[ATNO][  3].a[ 41] =         1.240443000000;     BAS[ATNO][  3].d[ 41] =        -0.904206048250;
  BAS[ATNO][  3].a[ 42] =         0.447316000000;     BAS[ATNO][  3].d[ 42] =         0.064990224628;
  BAS[ATNO][  3].a[ 43] =         0.164206000000;     BAS[ATNO][  3].d[ 43] =         0.648935582178;
  BAS[ATNO][  3].a[ 44] =         0.057472000000;     BAS[ATNO][  3].d[ 44] =        -0.571901780890;

  // Basis function   5 L = s
  InitBFNGauss(BAS[ATNO][  4]);
  BAS[ATNO][  4].l  = 0;
  BAS[ATNO][  4].ng = 45;
  BAS[ATNO][  4].a[  0] =      1149.270500000000;     BAS[ATNO][  4].d[  0] =         0.000000338613;
  BAS[ATNO][  4].a[  1] =       172.044570000000;     BAS[ATNO][  4].d[  1] =         0.000002624634;
  BAS[ATNO][  4].a[  2] =        39.080465000000;     BAS[ATNO][  4].d[  2] =         0.000013533898;
  BAS[ATNO][  4].a[  3] =        11.036173000000;     BAS[ATNO][  4].d[  3] =         0.000052880459;
  BAS[ATNO][  4].a[  4] =         3.564152000000;     BAS[ATNO][  4].d[  4] =         0.000154628425;
  BAS[ATNO][  4].a[  5] =         1.240443000000;     BAS[ATNO][  4].d[  5] =         0.000313616376;
  BAS[ATNO][  4].a[  6] =         0.447316000000;     BAS[ATNO][  4].d[  6] =         0.000392146316;
  BAS[ATNO][  4].a[  7] =         0.164206000000;     BAS[ATNO][  4].d[  7] =         0.000178925414;
  BAS[ATNO][  4].a[  8] =         0.057472000000;     BAS[ATNO][  4].d[  8] =         0.000004880384;
  BAS[ATNO][  4].a[  9] =      1149.270500000000;     BAS[ATNO][  4].d[  9] =        -0.000018133199;
  BAS[ATNO][  4].a[ 10] =       172.044570000000;     BAS[ATNO][  4].d[ 10] =        -0.000137827351;
  BAS[ATNO][  4].a[ 11] =        39.080465000000;     BAS[ATNO][  4].d[ 11] =        -0.000771682793;
  BAS[ATNO][  4].a[ 12] =        11.036173000000;     BAS[ATNO][  4].d[ 12] =        -0.003507215661;
  BAS[ATNO][  4].a[ 13] =         3.564152000000;     BAS[ATNO][  4].d[ 13] =        -0.015642238920;
  BAS[ATNO][  4].a[ 14] =         1.240443000000;     BAS[ATNO][  4].d[ 14] =        -0.020708800348;
  BAS[ATNO][  4].a[ 15] =         0.447316000000;     BAS[ATNO][  4].d[ 15] =         0.019524573946;
  BAS[ATNO][  4].a[ 16] =         0.164206000000;     BAS[ATNO][  4].d[ 16] =         0.018713605403;
  BAS[ATNO][  4].a[ 17] =         0.057472000000;     BAS[ATNO][  4].d[ 17] =         0.000398445098;
  BAS[ATNO][  4].a[ 18] =      1149.270500000000;     BAS[ATNO][  4].d[ 18] =        -0.000186439698;
  BAS[ATNO][  4].a[ 19] =       172.044570000000;     BAS[ATNO][  4].d[ 19] =        -0.001863760041;
  BAS[ATNO][  4].a[ 20] =        39.080465000000;     BAS[ATNO][  4].d[ 20] =        -0.008261757105;
  BAS[ATNO][  4].a[ 21] =        11.036173000000;     BAS[ATNO][  4].d[ 21] =        -0.085095527049;
  BAS[ATNO][  4].a[ 22] =         3.564152000000;     BAS[ATNO][  4].d[ 22] =        -0.265543579193;
  BAS[ATNO][  4].a[ 23] =         1.240443000000;     BAS[ATNO][  4].d[ 23] =         0.341144686310;
  BAS[ATNO][  4].a[ 24] =         0.447316000000;     BAS[ATNO][  4].d[ 24] =         0.124900008712;
  BAS[ATNO][  4].a[ 25] =         0.164206000000;     BAS[ATNO][  4].d[ 25] =        -0.251890299161;
  BAS[ATNO][  4].a[ 26] =         0.057472000000;     BAS[ATNO][  4].d[ 26] =        -0.013377471169;
  BAS[ATNO][  4].a[ 27] =      1149.270500000000;     BAS[ATNO][  4].d[ 27] =        -0.000236473663;
  BAS[ATNO][  4].a[ 28] =       172.044570000000;     BAS[ATNO][  4].d[ 28] =        -0.005244386898;
  BAS[ATNO][  4].a[ 29] =        39.080465000000;     BAS[ATNO][  4].d[ 29] =        -0.009720309510;
  BAS[ATNO][  4].a[ 30] =        11.036173000000;     BAS[ATNO][  4].d[ 30] =        -0.356931804425;
  BAS[ATNO][  4].a[ 31] =         3.564152000000;     BAS[ATNO][  4].d[ 31] =        -0.005074468402;
  BAS[ATNO][  4].a[ 32] =         1.240443000000;     BAS[ATNO][  4].d[ 32] =         0.968697633859;
  BAS[ATNO][  4].a[ 33] =         0.447316000000;     BAS[ATNO][  4].d[ 33] =        -1.272840774479;
  BAS[ATNO][  4].a[ 34] =         0.164206000000;     BAS[ATNO][  4].d[ 34] =         0.449780984702;
  BAS[ATNO][  4].a[ 35] =         0.057472000000;     BAS[ATNO][  4].d[ 35] =         0.272410147853;
  BAS[ATNO][  4].a[ 36] =      1149.270500000000;     BAS[ATNO][  4].d[ 36] =        -0.000769113200;
  BAS[ATNO][  4].a[ 37] =       172.044570000000;     BAS[ATNO][  4].d[ 37] =        -0.011103442345;
  BAS[ATNO][  4].a[ 38] =        39.080465000000;     BAS[ATNO][  4].d[ 38] =        -0.060887201873;
  BAS[ATNO][  4].a[ 39] =        11.036173000000;     BAS[ATNO][  4].d[ 39] =        -1.211088568471;
  BAS[ATNO][  4].a[ 40] =         3.564152000000;     BAS[ATNO][  4].d[ 40] =         2.151826266594;
  BAS[ATNO][  4].a[ 41] =         1.240443000000;     BAS[ATNO][  4].d[ 41] =        -1.604563926810;
  BAS[ATNO][  4].a[ 42] =         0.447316000000;     BAS[ATNO][  4].d[ 42] =         0.115328768521;
  BAS[ATNO][  4].a[ 43] =         0.164206000000;     BAS[ATNO][  4].d[ 43] =         1.151572285986;
  BAS[ATNO][  4].a[ 44] =         0.057472000000;     BAS[ATNO][  4].d[ 44] =        -1.014871520789;

  // Basis function   6 L = p
  InitBFNGauss(BAS[ATNO][  5]);
  BAS[ATNO][  5].l  = 1;
  BAS[ATNO][  5].ng = 16;
  BAS[ATNO][  5].a[  0] =         4.550000000000;     BAS[ATNO][  5].d[  0] =         0.061915012882;
  BAS[ATNO][  5].a[  1] =         1.592500000000;     BAS[ATNO][  5].d[  1] =         0.263932908351;
  BAS[ATNO][  5].a[  2] =         0.557375000000;     BAS[ATNO][  5].d[  2] =         0.311531637802;
  BAS[ATNO][  5].a[  3] =         0.195081000000;     BAS[ATNO][  5].d[  3] =         0.192593101017;
  BAS[ATNO][  5].a[  4] =         4.550000000000;     BAS[ATNO][  5].d[  4] =        -0.129793614354;
  BAS[ATNO][  5].a[  5] =         1.592500000000;     BAS[ATNO][  5].d[  5] =        -0.355690525851;
  BAS[ATNO][  5].a[  6] =         0.557375000000;     BAS[ATNO][  5].d[  6] =        -0.137728238201;
  BAS[ATNO][  5].a[  7] =         0.195081000000;     BAS[ATNO][  5].d[  7] =         0.692204640333;
  BAS[ATNO][  5].a[  8] =         4.550000000000;     BAS[ATNO][  5].d[  8] =         0.151357166200;
  BAS[ATNO][  5].a[  9] =         1.592500000000;     BAS[ATNO][  5].d[  9] =         0.019345541492;
  BAS[ATNO][  5].a[ 10] =         0.557375000000;     BAS[ATNO][  5].d[ 10] =        -0.223755679406;
  BAS[ATNO][  5].a[ 11] =         0.195081000000;     BAS[ATNO][  5].d[ 11] =         0.159774210857;
  BAS[ATNO][  5].a[ 12] =         4.550000000000;     BAS[ATNO][  5].d[ 12] =        -0.092374772325;
  BAS[ATNO][  5].a[ 13] =         1.592500000000;     BAS[ATNO][  5].d[ 13] =         0.157606340384;
  BAS[ATNO][  5].a[ 14] =         0.557375000000;     BAS[ATNO][  5].d[ 14] =        -0.136395601407;
  BAS[ATNO][  5].a[ 15] =         0.195081000000;     BAS[ATNO][  5].d[ 15] =         0.060489512187;

  // Basis function   7 L = p
  InitBFNGauss(BAS[ATNO][  6]);
  BAS[ATNO][  6].l  = 1;
  BAS[ATNO][  6].ng = 16;
  BAS[ATNO][  6].a[  0] =         4.550000000000;     BAS[ATNO][  6].d[  0] =         0.057140329688;
  BAS[ATNO][  6].a[  1] =         1.592500000000;     BAS[ATNO][  6].d[  1] =         0.243579266109;
  BAS[ATNO][  6].a[  2] =         0.557375000000;     BAS[ATNO][  6].d[  2] =         0.287507337299;
  BAS[ATNO][  6].a[  3] =         0.195081000000;     BAS[ATNO][  6].d[  3] =         0.177740951276;
  BAS[ATNO][  6].a[  4] =         4.550000000000;     BAS[ATNO][  6].d[  4] =         0.088877341033;
  BAS[ATNO][  6].a[  5] =         1.592500000000;     BAS[ATNO][  6].d[  5] =         0.243562276355;
  BAS[ATNO][  6].a[  6] =         0.557375000000;     BAS[ATNO][  6].d[  6] =         0.094310645847;
  BAS[ATNO][  6].a[  7] =         0.195081000000;     BAS[ATNO][  6].d[  7] =        -0.473993333107;
  BAS[ATNO][  6].a[  8] =         4.550000000000;     BAS[ATNO][  6].d[  8] =        -0.458246715364;
  BAS[ATNO][  6].a[  9] =         1.592500000000;     BAS[ATNO][  6].d[  9] =        -0.058570274988;
  BAS[ATNO][  6].a[ 10] =         0.557375000000;     BAS[ATNO][  6].d[ 10] =         0.677439381998;
  BAS[ATNO][  6].a[ 11] =         0.195081000000;     BAS[ATNO][  6].d[ 11] =        -0.483730035143;
  BAS[ATNO][  6].a[ 12] =         4.550000000000;     BAS[ATNO][  6].d[ 12] =         0.385105381634;
  BAS[ATNO][  6].a[ 13] =         1.592500000000;     BAS[ATNO][  6].d[ 13] =        -0.657052226856;
  BAS[ATNO][  6].a[ 14] =         0.557375000000;     BAS[ATNO][  6].d[ 14] =         0.568625814285;
  BAS[ATNO][  6].a[ 15] =         0.195081000000;     BAS[ATNO][  6].d[ 15] =        -0.252177473234;

  // Basis function   8 L = p
  InitBFNGauss(BAS[ATNO][  7]);
  BAS[ATNO][  7].l  = 1;
  BAS[ATNO][  7].ng = 16;
  BAS[ATNO][  7].a[  0] =         4.550000000000;     BAS[ATNO][  7].d[  0] =         0.028939411223;
  BAS[ATNO][  7].a[  1] =         1.592500000000;     BAS[ATNO][  7].d[  1] =         0.123363666010;
  BAS[ATNO][  7].a[  2] =         0.557375000000;     BAS[ATNO][  7].d[  2] =         0.145611569083;
  BAS[ATNO][  7].a[  3] =         0.195081000000;     BAS[ATNO][  7].d[  3] =         0.090019054987;
  BAS[ATNO][  7].a[  4] =         4.550000000000;     BAS[ATNO][  7].d[  4] =         0.097059160028;
  BAS[ATNO][  7].a[  5] =         1.592500000000;     BAS[ATNO][  7].d[  5] =         0.265983991899;
  BAS[ATNO][  7].a[  6] =         0.557375000000;     BAS[ATNO][  7].d[  6] =         0.102992640881;
  BAS[ATNO][  7].a[  7] =         0.195081000000;     BAS[ATNO][  7].d[  7] =        -0.517627937956;
  BAS[ATNO][  7].a[  8] =         4.550000000000;     BAS[ATNO][  7].d[  8] =         0.480846681149;
  BAS[ATNO][  7].a[  9] =         1.592500000000;     BAS[ATNO][  7].d[  9] =         0.061458863529;
  BAS[ATNO][  7].a[ 10] =         0.557375000000;     BAS[ATNO][  7].d[ 10] =        -0.710849565510;
  BAS[ATNO][  7].a[ 11] =         0.195081000000;     BAS[ATNO][  7].d[ 11] =         0.507586795872;
  BAS[ATNO][  7].a[ 12] =         4.550000000000;     BAS[ATNO][  7].d[ 12] =        -0.773950876165;
  BAS[ATNO][  7].a[ 13] =         1.592500000000;     BAS[ATNO][  7].d[ 13] =         1.320485692782;
  BAS[ATNO][  7].a[ 14] =         0.557375000000;     BAS[ATNO][  7].d[ 14] =        -1.142774077340;
  BAS[ATNO][  7].a[ 15] =         0.195081000000;     BAS[ATNO][  7].d[ 15] =         0.506804074071;

  // Basis function   9 L = p
  InitBFNGauss(BAS[ATNO][  8]);
  BAS[ATNO][  8].l  = 1;
  BAS[ATNO][  8].ng = 16;
  BAS[ATNO][  8].a[  0] =         4.550000000000;     BAS[ATNO][  8].d[  0] =        -0.005610622989;
  BAS[ATNO][  8].a[  1] =         1.592500000000;     BAS[ATNO][  8].d[  1] =        -0.023917107889;
  BAS[ATNO][  8].a[  2] =         0.557375000000;     BAS[ATNO][  8].d[  2] =        -0.028230415975;
  BAS[ATNO][  8].a[  3] =         0.195081000000;     BAS[ATNO][  8].d[  3] =        -0.017452427605;
  BAS[ATNO][  8].a[  4] =         4.550000000000;     BAS[ATNO][  8].d[  4] =        -0.026531475853;
  BAS[ATNO][  8].a[  5] =         1.592500000000;     BAS[ATNO][  8].d[  5] =        -0.072707695557;
  BAS[ATNO][  8].a[  6] =         0.557375000000;     BAS[ATNO][  8].d[  6] =        -0.028153414513;
  BAS[ATNO][  8].a[  7] =         0.195081000000;     BAS[ATNO][  8].d[  7] =         0.141495487213;
  BAS[ATNO][  8].a[  8] =         4.550000000000;     BAS[ATNO][  8].d[  8] =        -0.516457490240;
  BAS[ATNO][  8].a[  9] =         1.592500000000;     BAS[ATNO][  8].d[  9] =        -0.066010417989;
  BAS[ATNO][  8].a[ 10] =         0.557375000000;     BAS[ATNO][  8].d[ 10] =         0.763494055245;
  BAS[ATNO][  8].a[ 11] =         0.195081000000;     BAS[ATNO][  8].d[ 11] =        -0.545177939148;
  BAS[ATNO][  8].a[ 12] =         4.550000000000;     BAS[ATNO][  8].d[ 12] =        -1.089357550539;
  BAS[ATNO][  8].a[ 13] =         1.592500000000;     BAS[ATNO][  8].d[ 13] =         1.858620623232;
  BAS[ATNO][  8].a[ 14] =         0.557375000000;     BAS[ATNO][  8].d[ 14] =        -1.608486543588;
  BAS[ATNO][  8].a[ 15] =         0.195081000000;     BAS[ATNO][  8].d[ 15] =         0.713340938986;

  // Basis function  10 L = d
  InitBFNGauss(BAS[ATNO][  9]);
  BAS[ATNO][  9].l  = 2;
  BAS[ATNO][  9].ng = 9;
  BAS[ATNO][  9].a[  0] =         3.400000000000;     BAS[ATNO][  9].d[  0] =        -0.187270197507;
  BAS[ATNO][  9].a[  1] =         1.360000000000;     BAS[ATNO][  9].d[  1] =        -0.377530093793;
  BAS[ATNO][  9].a[  2] =         0.544000000000;     BAS[ATNO][  9].d[  2] =        -0.202474339477;
  BAS[ATNO][  9].a[  3] =         3.400000000000;     BAS[ATNO][  9].d[  3] =         0.595015432678;
  BAS[ATNO][  9].a[  4] =         1.360000000000;     BAS[ATNO][  9].d[  4] =        -0.115728971892;
  BAS[ATNO][  9].a[  5] =         0.544000000000;     BAS[ATNO][  9].d[  5] =        -0.436966361823;
  BAS[ATNO][  9].a[  6] =         3.400000000000;     BAS[ATNO][  9].d[  6] =        -0.483470678839;
  BAS[ATNO][  9].a[  7] =         1.360000000000;     BAS[ATNO][  9].d[  7] =         0.812632718811;
  BAS[ATNO][  9].a[  8] =         0.544000000000;     BAS[ATNO][  9].d[  8] =        -0.547449497130;

  // Basis function  11 L = d
  InitBFNGauss(BAS[ATNO][ 10]);
  BAS[ATNO][ 10].l  = 2;
  BAS[ATNO][ 10].ng = 9;
  BAS[ATNO][ 10].a[  0] =         3.400000000000;     BAS[ATNO][ 10].d[  0] =         0.195673715923;
  BAS[ATNO][ 10].a[  1] =         1.360000000000;     BAS[ATNO][ 10].d[  1] =         0.394471289658;
  BAS[ATNO][ 10].a[  2] =         0.544000000000;     BAS[ATNO][ 10].d[  2] =         0.211560124953;
  BAS[ATNO][ 10].a[  3] =         3.400000000000;     BAS[ATNO][ 10].d[  3] =         0.318780666089;
  BAS[ATNO][ 10].a[  4] =         1.360000000000;     BAS[ATNO][ 10].d[  4] =        -0.062002019980;
  BAS[ATNO][ 10].a[  5] =         0.544000000000;     BAS[ATNO][ 10].d[  5] =        -0.234105571436;
  BAS[ATNO][ 10].a[  6] =         3.400000000000;     BAS[ATNO][ 10].d[  6] =        -0.757767642893;
  BAS[ATNO][ 10].a[  7] =         1.360000000000;     BAS[ATNO][ 10].d[  7] =         1.273679680741;
  BAS[ATNO][ 10].a[  8] =         0.544000000000;     BAS[ATNO][ 10].d[  8] =        -0.858044827123;

  // Basis function  12 L = d
  InitBFNGauss(BAS[ATNO][ 11]);
  BAS[ATNO][ 11].l  = 2;
  BAS[ATNO][ 11].ng = 9;
  BAS[ATNO][ 11].a[  0] =         3.400000000000;     BAS[ATNO][ 11].d[  0] =        -0.073151679771;
  BAS[ATNO][ 11].a[  1] =         1.360000000000;     BAS[ATNO][ 11].d[  1] =        -0.147471198795;
  BAS[ATNO][ 11].a[  2] =         0.544000000000;     BAS[ATNO][ 11].d[  2] =        -0.079090737557;
  BAS[ATNO][ 11].a[  3] =         3.400000000000;     BAS[ATNO][ 11].d[  3] =        -0.670547365135;
  BAS[ATNO][ 11].a[  4] =         1.360000000000;     BAS[ATNO][ 11].d[  4] =         0.130419738565;
  BAS[ATNO][ 11].a[  5] =         0.544000000000;     BAS[ATNO][ 11].d[  5] =         0.492435366347;
  BAS[ATNO][ 11].a[  6] =         3.400000000000;     BAS[ATNO][ 11].d[  6] =        -0.789257066121;
  BAS[ATNO][ 11].a[  7] =         1.360000000000;     BAS[ATNO][ 11].d[  7] =         1.326608093428;
  BAS[ATNO][ 11].a[  8] =         0.544000000000;     BAS[ATNO][ 11].d[  8] =        -0.893701320196;

  // Basis function  13 L = f
  InitBFNGauss(BAS[ATNO][ 12]);
  BAS[ATNO][ 12].l  = 3;
  BAS[ATNO][ 12].ng = 1;
  BAS[ATNO][ 12].a[  0] =         1.813333000000;     BAS[ATNO][ 12].d[  0] =         1.000000000000;

-------
TIMINGS
-------

Total SCF time: 0 days 0 hours 0 min 1 sec 

Total time                  ....       1.342 sec
Sum of individual times     ....       1.138 sec  ( 84.8%)

Fock matrix formation       ....       0.901 sec  ( 67.2%)
  XC integration            ....       0.015 sec  (  1.7% of F)
    Basis function eval.    ....       0.003 sec  ( 21.9% of XC)
    Density eval.           ....       0.001 sec  (  4.3% of XC)
    XC-Functional eval.     ....       0.001 sec  (  6.4% of XC)
    XC-Potential eval.      ....       0.001 sec  (  4.8% of XC)
Diagonalization             ....       0.000 sec  (  0.0%)
Density matrix formation    ....       0.001 sec  (  0.0%)
Population analysis         ....       0.001 sec  (  0.0%)
Initial guess               ....       0.092 sec  (  6.9%)
Orbital Transformation      ....       0.000 sec  (  0.0%)
Orbital Orthonormalization  ....       0.000 sec  (  0.0%)
DIIS solution               ....       0.000 sec  (  0.0%)
SOSCF solution              ....       0.001 sec  (  0.1%)
Grid generation             ....       0.142 sec  ( 10.6%)

-------------------------   --------------------
FINAL SINGLE POINT ENERGY        -2.834790569948
-------------------------   --------------------


                            ***************************************
                            *     ORCA property calculations      *
                            ***************************************

                                    ---------------------
                                    Active property flags
                                    ---------------------
   (+) Dipole Moment


------------------------------------------------------------------------------
                       ORCA ELECTRIC PROPERTIES CALCULATION
------------------------------------------------------------------------------

Dipole Moment Calculation                       ... on
Quadrupole Moment Calculation                   ... off
Polarizability Calculation                      ... off
GBWName                                         ... He_ano-rcc-qzp_1096.287912_.gbw
Electron density file                           ... He_ano-rcc-qzp_1096.287912_.scfp
The origin for moment calculation is the CENTER OF MASS  = ( 0.000000,  0.000000  0.000000)

-------------
DIPOLE MOMENT
-------------
                                X             Y             Z
Electronic contribution:      0.00000       0.00000      -0.00000
Nuclear contribution   :      0.00000       0.00000       0.00000
                        -----------------------------------------
Total Dipole Moment    :      0.00000       0.00000      -0.00000
                        -----------------------------------------
Magnitude (a.u.)       :      0.00000
Magnitude (Debye)      :      0.00000



--------------------
Rotational spectrum 
--------------------
 
Rotational constants in cm-1:     0.000000     0.000000     0.000000 
Rotational constants in MHz :     0.000000     0.000000     0.000000 

 Dipole components along the rotational axes: 
x,y,z [a.u.] :     0.000000     0.000000    -0.000000 
x,y,z [Debye]:     0.000000     0.000000    -0.000000 

 

Timings for individual modules:

Sum of individual times         ...        2.213 sec (=   0.037 min)
GTO integral calculation        ...        0.313 sec (=   0.005 min)  14.1 %
Relativistic integrals          ...        0.299 sec (=   0.005 min)  13.5 %
SCF iterations                  ...        1.601 sec (=   0.027 min)  72.4 %
                             ****ORCA TERMINATED NORMALLY****
TOTAL RUN TIME: 0 days 0 hours 0 minutes 2 seconds 539 msec
