
                                 *****************
                                 * O   R   C   A *
                                 *****************

           --- An Ab Initio, DFT and Semiempirical electronic structure package ---

                  #######################################################
                  #                        -***-                        #
                  #          Department of theory and spectroscopy      #
                  #               Directorship: Frank Neese             #
                  #        Max Planck Institute fuer Kohlenforschung    #
                  #                Kaiser Wilhelm Platz 1               #
                  #                 D-45470 Muelheim/Ruhr               #
                  #                      Germany                        #
                  #                                                     #
                  #                  All rights reserved                #
                  #                        -***-                        #
                  #######################################################


                         Program Version 4.2.1 -  RELEASE  -


 With contributions from (in alphabetic order):
   Daniel Aravena         : Magnetic Suceptibility
   Michael Atanasov       : Ab Initio Ligand Field Theory (pilot matlab implementation)
   Alexander A. Auer      : GIAO ZORA, VPT2
   Ute Becker             : Parallelization
   Giovanni Bistoni       : ED, misc. LED, open-shell LED, HFLD
   Martin Brehm           : Molecular dynamics
   Dmytro Bykov           : SCF Hessian
   Vijay G. Chilkuri      : MRCI spin determinant printing, contributions to CSF-ICE
   Dipayan Datta          : RHF DLPNO-CCSD density
   Achintya Kumar Dutta   : EOM-CC, STEOM-CC
   Dmitry Ganyushin       : Spin-Orbit,Spin-Spin,Magnetic field MRCI
   Miquel Garcia          : C-PCM Hessian, Gaussian charge scheme
   Yang Guo               : DLPNO-NEVPT2, CIM, IAO-localization
   Andreas Hansen         : Spin unrestricted coupled pair/coupled cluster methods
   Benjamin Helmich-Paris : CASSCF linear response (MC-RPA)
   Lee Huntington         : MR-EOM, pCC
   Robert Izsak           : Overlap fitted RIJCOSX, COSX-SCS-MP3, EOM
   Christian Kollmar      : KDIIS, OOCD, Brueckner-CCSD(T), CCSD density
   Simone Kossmann        : Meta GGA functionals, TD-DFT gradient, OOMP2, MP2 Hessian
   Martin Krupicka        : AUTO-CI
   Lucas Lang             : DCDCAS
   Dagmar Lenk            : GEPOL surface, SMD
   Dimitrios Liakos       : Extrapolation schemes; Compound Job, initial MDCI parallelization
   Dimitrios Manganas     : Further ROCIS development; embedding schemes
   Dimitrios Pantazis     : SARC Basis sets
   Taras Petrenko         : DFT Hessian,TD-DFT gradient, ASA, ECA, R-Raman, ABS, FL, XAS/XES, NRVS
   Peter Pinski           : DLPNO-MP2, DLPNO-MP2 Gradient
   Christoph Reimann      : Effective Core Potentials
   Marius Retegan         : Local ZFS, SOC
   Christoph Riplinger    : Optimizer, TS searches, QM/MM, DLPNO-CCSD(T), (RO)-DLPNO pert. Triples
   Tobias Risthaus        : Range-separated hybrids, TD-DFT gradient, RPA, STAB
   Michael Roemelt        : Original ROCIS implementation
   Masaaki Saitow         : Open-shell DLPNO-CCSD energy and density
   Barbara Sandhoefer     : DKH picture change effects
   Avijit Sen             : IP-ROCIS
   Kantharuban Sivalingam : CASSCF convergence, NEVPT2, FIC-MRCI
   Bernardo de Souza      : ESD, SOC TD-DFT
   Georgi Stoychev        : AutoAux, RI-MP2 NMR
   Willem Van den Heuvel  : Paramagnetic NMR
   Boris Wezisla          : Elementary symmetry handling
   Frank Wennmohs         : Technical directorship


 We gratefully acknowledge several colleagues who have allowed us to
 interface, adapt or use parts of their codes:
   Stefan Grimme, W. Hujo, H. Kruse,             : VdW corrections, initial TS optimization,
                  C. Bannwarth                     DFT functionals, gCP, sTDA/sTD-DF
   Ed Valeev, F. Pavosevic, A. Kumar             : LibInt (2-el integral package), F12 methods
   Garnet Chan, S. Sharma, J. Yang, R. Olivares  : DMRG
   Ulf Ekstrom                                   : XCFun DFT Library
   Mihaly Kallay                                 : mrcc  (arbitrary order and MRCC methods)
   Andreas Klamt, Michael Diedenhofen            : otool_cosmo (COSMO solvation model)
   Jiri Pittner, Ondrej Demel                    : Mk-CCSD
   Frank Weinhold                                : gennbo (NPA and NBO analysis)
   Christopher J. Cramer and Donald G. Truhlar   : smd solvation model
   Lars Goerigk                                  : TD-DFT with DH, B97 family of functionals
   V. Asgeirsson, H. Jonsson                     : NEB implementation
   FAccTs GmbH                                   : IRC, NEB, NEB-TS, Multilevel, MM, QM/MM, CI optimization
   S Lehtola, MJT Oliveira, MAL Marques          : LibXC Library


 Your calculation uses the libint2 library for the computation of 2-el integrals
 For citations please refer to: http://libint.valeyev.net

 Your ORCA version has been built with support for libXC version: 4.2.3
 For citations please refer to: https://tddft.org/programs/libxc/

 This ORCA versions uses:
   CBLAS   interface :  Fast vector & matrix operations
   LAPACKE interface :  Fast linear algebra routines
   SCALAPACK package :  Parallel linear algebra routines


----- Orbital basis set information -----
Your calculation utilizes the basis: pc-4
   H, C-F              : F. Jensen, J. Chem. Phys. 115, 9113 (2001).
                         F. Jensen, J. Chem. Phys. 116, 7372 (2002).
                         F. Jensen, J. Chem. Phys. 117, 9234 (2002).
   Si-Cl               : F. Jensen, T. Helgaker, J. Chem. Phys. 121, 3463 (2004).
   He-B, Ne-Mg, Al, Ar : F. Jensen, J. Phys. Chem. A 111, 11198 (2007).
   K, Ca, Ga-Kr        : F. Jensen, J. Chem. Phys. 136, 094110 (2012).
   Sc-Zn               : F. Jensen, J. Chem. Phys. 138, 014107 (2013).

================================================================================
                                        WARNINGS
                       Please study these warnings very carefully!
================================================================================


INFO   : the flag for use of LIBINT has been found!

================================================================================
                                       INPUT FILE
================================================================================
NAME = He_pc-4_274.071978_.inp
|  1> ! LDA pc-4 nori grid5 finalgrid6 verytightscf
|  2> %Pal NProcs 18 End
|  3> 
|  4> % REL
|  5>   Method ZORA
|  6>   ModelPot 1, 0, 0, 0
|  7>   velit 274.071978
|  8> END
|  9> 
| 10> *xyz 0 1
| 11> He 0.0 0.0 0.0
| 12> **                         ****END OF INPUT****
================================================================================

                       ****************************
                       * Single Point Calculation *
                       ****************************

---------------------------------
CARTESIAN COORDINATES (ANGSTROEM)
---------------------------------
  He     0.000000    0.000000    0.000000

----------------------------
CARTESIAN COORDINATES (A.U.)
----------------------------
  NO LB      ZA    FRAG     MASS         X           Y           Z
   0 He    2.0000    0     4.003    0.000000    0.000000    0.000000

--------------------------------
INTERNAL COORDINATES (ANGSTROEM)
--------------------------------
 He     0   0   0     0.000000000000     0.00000000     0.00000000

---------------------------
INTERNAL COORDINATES (A.U.)
---------------------------
 He     0   0   0     0.000000000000     0.00000000     0.00000000

---------------------
BASIS SET INFORMATION
---------------------
There are 1 groups of distinct atoms

 Group   1 Type He  : 11s6p3d2f1g contracted to 7s6p3d2f1g pattern {5111111/111111/111/11/1}

Atom   0He   basis set group =>   1


           ************************************************************
           *        Program running with 18 parallel MPI-processes    *
           *              working on a common directory               *
           ************************************************************
------------------------------------------------------------------------------
                           ORCA GTO INTEGRAL CALCULATION
------------------------------------------------------------------------------

                         BASIS SET STATISTICS AND STARTUP INFO

 # of primitive gaussian shells          ...   23
 # of primitive gaussian functions       ...   67
 # of contracted shells                  ...   19
 # of contracted basis functions         ...   63
 Highest angular momentum                ...    4
 Maximum contraction depth               ...    5
 Integral package used                   ... LIBINT
 Integral threshhold            Thresh   ...  1.000e-12
 Primitive cut-off              TCut     ...  1.000e-14


------------------------------ INTEGRAL EVALUATION ----------------------------


 * One electron integrals 
 Pre-screening matrix                    ... done
 Shell pair data                         ... done (   0.000 sec)



           ************************************************************
           *        Program running with 18 parallel MPI-processes    *
           *              working on a common directory               *
           ************************************************************
------------------------------------------------------------------------------
                          ORCA RELATIVISTIC HAMILTONIAN
------------------------------------------------------------------------------

Relativistic Method            ... ZORA(MP)
Treatment of potential         ... Van Wuellen
Nucleus model                  ... Point Nucleus
Speed of light used            ... 274.07197800000000


            *************************************************
            *         ZERO ORDER REGULAR APPROXIMATION      *
            *                     ZORA(MP)                  *
            *            Programmed by FN according to      *
            *                   C. van Wuellen              *
            *       J. Chem. Phys. (1998) vol 109, 392-399  *
            *************************************************

Terms included in model potential: +V(e,N)
Basis function cutoff value   ... 1.000000e-12
Loading the fitted atomic densities  (DKH4)  ... done
Calculating the cutoffs                      ... done
Number of fit functions                      ... 6
Setting up the integration grid ... done


           ************************************************************
           *        Program running with 18 parallel MPI-processes    *
           *              working on a common directory               *
           ************************************************************
-------------------------------------------------------------------------------
                                 ORCA SCF
-------------------------------------------------------------------------------

------------
SCF SETTINGS
------------
Hamiltonian:
 Density Functional     Method          .... DFT(GTOs)
 Exchange Functional    Exchange        .... Slater
   X-Alpha parameter    XAlpha          ....  0.666667
 Correlation Functional Correlation     .... VWN-5
 Gradients option       PostSCFGGA      .... off
   Density functional embedding theory  .... OFF

Relativistic Settings:
 Scalar relativistic method             .... ZORA
 Speed of light used       Velit        ....       274.071978
Orbital energies will be scaled


General Settings:
 Integral files         IntName         .... He_pc-4_274.071978_
 Hartree-Fock type      HFTyp           .... RHF
 Total Charge           Charge          ....    0
 Multiplicity           Mult            ....    1
 Number of Electrons    NEL             ....    2
 Basis Dimension        Dim             ....   63
 Nuclear Repulsion      ENuc            ....      0.0000000000 Eh

Convergence Acceleration:
 DIIS                   CNVDIIS         .... on
   Start iteration      DIISMaxIt       ....    12
   Startup error        DIISStart       ....  0.200000
   # of expansion vecs  DIISMaxEq       ....     5
   Bias factor          DIISBfac        ....   1.050
   Max. coefficient     DIISMaxC        ....  10.000
 Newton-Raphson         CNVNR           .... off
 SOSCF                  CNVSOSCF        .... on
   Start iteration      SOSCFMaxIt      ....   150
   Startup grad/error   SOSCFStart      ....  0.003300
 Level Shifting         CNVShift        .... on
   Level shift para.    LevelShift      ....    0.2500
   Turn off err/grad.   ShiftErr        ....    0.0010
 Zerner damping         CNVZerner       .... off
 Static damping         CNVDamp         .... on
   Fraction old density DampFac         ....    0.7000
   Max. Damping (<1)    DampMax         ....    0.9800
   Min. Damping (>=0)   DampMin         ....    0.0000
   Turn off err/grad.   DampErr         ....    0.1000
 Fernandez-Rico         CNVRico         .... off

SCF Procedure:
 Maximum # iterations   MaxIter         ....   125
 SCF integral mode      SCFMode         .... Direct
   Integral package                     .... LIBINT
 Reset frequency        DirectResetFreq ....    20
 Integral Threshold     Thresh          ....  1.000e-12 Eh
 Primitive CutOff       TCut            ....  1.000e-14 Eh

Convergence Tolerance:
 Convergence Check Mode ConvCheckMode   .... Total+1el-Energy
 Convergence forced     ConvForced      .... 0
 Energy Change          TolE            ....  1.000e-09 Eh
 1-El. energy change                    ....  1.000e-06 Eh
 Orbital Gradient       TolG            ....  2.000e-06
 Orbital Rotation angle TolX            ....  2.000e-06
 DIIS Error             TolErr          ....  1.000e-08


Diagonalization of the overlap matrix:
Smallest eigenvalue                        ... 4.808e-03
Time for diagonalization                   ...    0.001 sec
Threshold for overlap eigenvalues          ... 1.000e-08
Number of eigenvalues below threshold      ... 0
Time for construction of square roots      ...    0.001 sec
Total time needed                          ...    0.003 sec

-------------------
DFT GRID GENERATION
-------------------

General Integration Accuracy     IntAcc      ...  5.010
Radial Grid Type                 RadialGrid  ... Gauss-Chebyshev
Angular Grid (max. acc.)         AngularGrid ... Lebedev-434
Angular grid pruning method      GridPruning ... 3 (G Style)
Weight generation scheme         WeightScheme... Becke
Basis function cutoff            BFCut       ...    1.0000e-12
Integration weight cutoff        WCut        ...    1.0000e-14
Grids for H and He will be reduced by one unit

# of grid points (after initial pruning)     ...   6764 (   0.0 sec)
# of grid points (after weights+screening)   ...   6764 (   0.0 sec)
Grid point division into batches done        ...    0.0 sec
Reduced shell lists constructed in    0.0 sec

Total number of grid points                  ...     6764
Total number of batches                      ...      106
Average number of points per batch           ...       63
Average number of grid points per atom       ...     6764
Average number of shells per batch           ...     1.71 ( 9.02%)
Average number of basis functions per batch  ...     3.43 ( 5.44%)
Average number of large shells per batch     ...     1.71 (100.00%)
Average number of large basis fcns per batch ...     3.43 (100.00%)
Maximum spatial batch extension              ...  15.22, 15.22, 15.22 au
Average spatial batch extension              ...   0.77,  0.77,  0.77 au

Time for grid setup =    0.055 sec

------------------------------
INITIAL GUESS: MODEL POTENTIAL
------------------------------
Loading ZORA relativistic densities                ... done
Calculating cut-offs                               ... done
Setting up the integral package                    ... done
Initializing the effective Hamiltonian             ... done
Starting the Coulomb interaction                   ... done (   0.0 sec)
Reading the grid                                   ... done
Mapping shells                                     ... done
Starting the XC term evaluation                    ... done (   0.0 sec)
  promolecular density results
     # of electrons  =      1.999920377
     EX              =     -0.884114011
     EC              =     -0.112857661
     EX+EC           =     -0.996971673
Transforming the Hamiltonian                       ... done (   0.0 sec)
Diagonalizing the Hamiltonian                      ... done (   0.0 sec)
Back transforming the eigenvectors                 ... done (   0.0 sec)
Now organizing SCF variables                       ... done
                      ------------------
                      INITIAL GUESS DONE (   0.1 sec)
                      ------------------
--------------
SCF ITERATIONS
--------------
ITER       Energy         Delta-E        Max-DP      RMS-DP      [F,P]     Damp
               ***  Starting incremental Fock matrix formation  ***
  0     -2.8346487806   0.000000000000 0.00233568  0.00006214  0.0318533 0.7000
                      *** Initiating the SOSCF procedure ***
                      *** Re-Reading the Fockian *** 
                      *** Removing any level shift *** 
ITER      Energy       Delta-E        Grad      Rot      Max-DP    RMS-DP
  1     -2.83474346  -0.0000946822  0.001108  0.001108  0.005007  0.000162
               *** Restarting incremental Fock matrix formation ***
  2     -2.83488445  -0.0001409842  0.002772  0.002397  0.002254  0.000063
  3     -2.83489766  -0.0000132141  0.001117  0.000780  0.000497  0.000019
  4     -2.83490059  -0.0000029254  0.000003  0.000001  0.000004  0.000000
                 **** Energy Check signals convergence ****
              ***Rediagonalizing the Fockian in SOSCF/NRSCF***

               *****************************************************
               *                     SUCCESS                       *
               *           SCF CONVERGED AFTER   5 CYCLES          *
               *****************************************************

Setting up the final grid:

General Integration Accuracy     IntAcc      ...  5.340
Radial Grid Type                 RadialGrid  ... Gauss-Chebyshev
Angular Grid (max. acc.)         AngularGrid ... Lebedev-590
Angular grid pruning method      GridPruning ... 3 (G Style)
Weight generation scheme         WeightScheme... Becke
Basis function cutoff            BFCut       ...    1.0000e-12
Integration weight cutoff        WCut        ...    1.0000e-14
Grids for H and He will be reduced by one unit

# of grid points (after initial pruning)     ...  11406 (   0.0 sec)
# of grid points (after weights+screening)   ...  11406 (   0.0 sec)
Grid point division into batches done        ...    0.1 sec
Reduced shell lists constructed in    0.1 sec

Total number of grid points                  ...    11406
Total number of batches                      ...      179
Average number of points per batch           ...       63
Average number of grid points per atom       ...    11406
Average number of shells per batch           ...     1.27 ( 6.70%)
Average number of basis functions per batch  ...     2.00 ( 3.17%)
Average number of large shells per batch     ...     0.91 (71.43%)
Average number of large basis fcns per batch ...     0.91 (45.45%)
Maximum spatial batch extension              ...  16.29, 16.29, 16.29 au
Average spatial batch extension              ...   0.81,  0.81,  0.81 au

Final grid set up in    0.1 sec
Final integration                            ... done (   0.0 sec)
Change in XC energy                          ...     0.000000011
Integrated number of electrons               ...     2.000000000
Previous integrated no of electrons          ...     2.000000007

----------------
TOTAL SCF ENERGY
----------------

Total Energy       :           -2.83490058 Eh             -77.14157 eV

Components:
Nuclear Repulsion  :            0.00000000 Eh               0.00000 eV
Electronic Energy  :           -2.83490058 Eh             -77.14157 eV
One Electron Energy:           -3.85774279 Eh            -104.97452 eV
Two Electron Energy:            1.02284221 Eh              27.83295 eV

Virial components:
Potential Energy   :           -5.60296586 Eh            -152.46445 eV
Kinetic Energy     :            2.76806528 Eh              75.32289 eV
Virial Ratio       :            2.02414513


DFT components:
N(Alpha)           :        0.999999999921 electrons
N(Beta)            :        0.999999999921 electrons
N(Total)           :        1.999999999842 electrons
E(X)               :       -0.861874067227 Eh       
E(C)               :       -0.111468614539 Eh       
E(XC)              :       -0.973342681766 Eh       
DFET-embed. en.    :        0.000000000000 Eh       

---------------
SCF CONVERGENCE
---------------

  Last Energy change         ...   -5.2820e-12  Tolerance :   1.0000e-09
  Last MAX-Density change    ...    1.4286e-07  Tolerance :   1.0000e-08
  Last RMS-Density change    ...    3.1706e-09  Tolerance :   1.0000e-09
  Last Orbital Gradient      ...    3.6153e-08  Tolerance :   2.0000e-06
  Last Orbital Rotation      ...    2.7931e-08  Tolerance :   2.0000e-06

             **** THE GBW FILE WAS UPDATED (He_pc-4_274.071978_.gbw) ****
             **** DENSITY FILE WAS UPDATED (He_pc-4_274.071978_.scfp) ****
             **** ENERGY FILE WAS UPDATED (He_pc-4_274.071978_.en.tmp) ****
             **** THE GBW FILE WAS UPDATED (He_pc-4_274.071978_.gbw) ****
             **** DENSITY FILE WAS UPDATED (He_pc-4_274.071978_.scfp) ****
----------------
ORBITAL ENERGIES
----------------

  NO   OCC          E(Eh)            E(eV) 
   0   2.0000      -0.570429       -15.5222 
   1   0.0000       0.137274         3.7354 
   2   0.0000       0.268456         7.3051 
   3   0.0000       0.268456         7.3051 
   4   0.0000       0.268456         7.3051 
   5   0.0000       0.915240        24.9049 
   6   0.0000       1.302250        35.4360 
   7   0.0000       1.302250        35.4360 
   8   0.0000       1.302250        35.4360 
   9   0.0000       1.315989        35.8099 
  10   0.0000       1.315989        35.8099 
  11   0.0000       1.315989        35.8099 
  12   0.0000       1.315989        35.8099 
  13   0.0000       1.315989        35.8099 
  14   0.0000       3.183065        86.6156 
  15   0.0000       3.985109       108.4403 
  16   0.0000       3.985109       108.4403 
  17   0.0000       3.985109       108.4403 
  18   0.0000       4.593998       125.0090 
  19   0.0000       4.593998       125.0090 
  20   0.0000       4.593998       125.0090 
  21   0.0000       4.593998       125.0090 
  22   0.0000       4.593998       125.0090 
  23   0.0000       5.848727       159.1519 
  24   0.0000       5.848727       159.1519 
  25   0.0000       5.848727       159.1519 
  26   0.0000       5.848727       159.1519 
  27   0.0000       5.848727       159.1519 
  28   0.0000       5.848727       159.1519 
  29   0.0000       5.848727       159.1519 
  30   0.0000       9.431160       256.6349 
  31   0.0000      10.464244       284.7465 
  32   0.0000      10.464244       284.7465 
  33   0.0000      10.464244       284.7465 
  34   0.0000      14.706807       400.1926 
  35   0.0000      14.706807       400.1926 
  36   0.0000      14.706807       400.1926 
  37   0.0000      14.706807       400.1926 
  38   0.0000      14.706807       400.1926 
  39   0.0000      20.009285       544.4803 
  40   0.0000      20.009285       544.4803 
  41   0.0000      20.009285       544.4803 
  42   0.0000      20.009285       544.4803 
  43   0.0000      20.009285       544.4803 
  44   0.0000      20.009285       544.4803 
  45   0.0000      20.009285       544.4803 
  46   0.0000      24.235927       659.4931 
  47   0.0000      24.235927       659.4931 
  48   0.0000      24.235927       659.4931 
  49   0.0000      24.235927       659.4931 
  50   0.0000      24.235927       659.4931 
  51   0.0000      24.235927       659.4931 
  52   0.0000      24.235927       659.4931 
  53   0.0000      24.235927       659.4931 
  54   0.0000      24.235927       659.4931 
  55   0.0000      27.303977       742.9790 
  56   0.0000      29.778644       810.3181 
  57   0.0000      29.778644       810.3181 
  58   0.0000      29.778644       810.3181 
  59   0.0000     105.860235      2880.6034 
  60   0.0000     118.326482      3219.8273 
  61   0.0000     118.326482      3219.8273 
  62   0.0000     118.326482      3219.8273 

                    ********************************
                    * MULLIKEN POPULATION ANALYSIS *
                    ********************************

-----------------------
MULLIKEN ATOMIC CHARGES
-----------------------
   0 He:   -0.000000
Sum of atomic charges:   -0.0000000

--------------------------------
MULLIKEN REDUCED ORBITAL CHARGES
--------------------------------
  0 Hes       :     2.000000  s :     2.000000
      pz      :     0.000000  p :     0.000000
      px      :     0.000000
      py      :     0.000000
      dz2     :     0.000000  d :     0.000000
      dxz     :     0.000000
      dyz     :     0.000000
      dx2y2   :     0.000000
      dxy     :     0.000000
      f0      :     0.000000  f :     0.000000
      f+1     :     0.000000
      f-1     :     0.000000
      f+2     :     0.000000
      f-2     :     0.000000
      f+3     :     0.000000
      f-3     :     0.000000
      g0      :     0.000000  g :     0.000000
      g+1     :     0.000000
      g-1     :     0.000000
      g+2     :     0.000000
      g-2     :     0.000000
      g+3     :     0.000000
      g-3     :     0.000000
      g+4     :    -0.000000
      g-4     :     0.000000


                     *******************************
                     * LOEWDIN POPULATION ANALYSIS *
                     *******************************

----------------------
LOEWDIN ATOMIC CHARGES
----------------------
   0 He:   -0.000000

-------------------------------
LOEWDIN REDUCED ORBITAL CHARGES
-------------------------------
  0 Hes       :     2.000000  s :     2.000000
      pz      :     0.000000  p :     0.000000
      px      :     0.000000
      py      :     0.000000
      dz2     :     0.000000  d :     0.000000
      dxz     :     0.000000
      dyz     :     0.000000
      dx2y2   :     0.000000
      dxy     :     0.000000
      f0      :     0.000000  f :     0.000000
      f+1     :     0.000000
      f-1     :     0.000000
      f+2     :     0.000000
      f-2     :     0.000000
      f+3     :     0.000000
      f-3     :     0.000000
      g0      :     0.000000  g :     0.000000
      g+1     :     0.000000
      g-1     :     0.000000
      g+2     :     0.000000
      g-2     :     0.000000
      g+3     :     0.000000
      g-3     :     0.000000
      g+4     :     0.000000
      g-4     :     0.000000


                      *****************************
                      * MAYER POPULATION ANALYSIS *
                      *****************************

  NA   - Mulliken gross atomic population
  ZA   - Total nuclear charge
  QA   - Mulliken gross atomic charge
  VA   - Mayer's total valence
  BVA  - Mayer's bonded valence
  FA   - Mayer's free valence

  ATOM       NA         ZA         QA         VA         BVA        FA
  0 He     2.0000     2.0000    -0.0000    -0.0000     0.0000    -0.0000

  Mayer bond orders larger than 0.100000


--------------------------
ATOM BASIS FOR ELEMENT He
--------------------------
 NewGTO He
 S 11
    1       8780.200000000001         0.000027950497
    2       1315.600000000000         0.000217195792
    3        299.460000000000         0.001140187372
    4         84.833000000000         0.004782119558
    5         27.691000000000         0.016989685792
    6         10.008000000000         0.051210064496
    7          3.892400000000         0.127171607290
    8          1.581900000000         0.237052982670
    9          0.656980000000         0.346252155936
   10          0.264590000000         0.311125086057
   11          0.105850000000         0.088403686013
 S 11
    1       8780.200000000001         0.000009006127
    2       1315.600000000000         0.000069984194
    3        299.460000000000         0.000367387844
    4         84.833000000000         0.001540880592
    5         27.691000000000         0.005474366916
    6         10.008000000000         0.033861544253
    7          3.892400000000        -0.007495583817
    8          1.581900000000         0.293793100744
    9          0.656980000000        -0.306563129454
   10          0.264590000000         1.431870213503
   11          0.105850000000        -1.865431168982
 S 11
    1       8780.200000000001         0.000026841748
    2       1315.600000000000         0.000208580006
    3        299.460000000000         0.001094958085
    4         84.833000000000         0.004592421037
    5         27.691000000000         0.016315733954
    6         10.008000000000        -0.014806443167
    7          3.892400000000         0.335617390484
    8          1.581900000000        -0.562076097443
    9          0.656980000000         2.733688993451
   10          0.264590000000        -4.104271323850
   11          0.105850000000         1.853486239335
 S 11
    1       8780.200000000001         0.000010745256
    2       1315.600000000000         0.000083498495
    3        299.460000000000         0.000438332295
    4         84.833000000000         0.001838432428
    5         27.691000000000         0.006531494856
    6         10.008000000000         0.239839071655
    7          3.892400000000        -0.615992803076
    8          1.581900000000         3.557870649686
    9          0.656980000000        -5.504634335268
   10          0.264590000000         3.629697196082
   11          0.105850000000        -1.109011629481
 S 11
    1       8780.200000000001         0.000126480354
    2       1315.600000000000         0.000982844810
    3        299.460000000000         0.005159525556
    4         84.833000000000         0.021639836285
    5         27.691000000000         0.076880976017
    6         10.008000000000        -0.435448663488
    7          3.892400000000         3.607737834356
    8          1.581900000000        -5.895741883261
    9          0.656980000000         4.582719574340
   10          0.264590000000        -2.210073000166
   11          0.105850000000         0.617091668167
 S 11
    1       8780.200000000001        -0.000107813549
    2       1315.600000000000        -0.000837790092
    3        299.460000000000        -0.004398048753
    4         84.833000000000        -0.018446086556
    5         27.691000000000        -0.065534374633
    6         10.008000000000         2.958959640262
    7          3.892400000000        -5.150008215356
    8          1.581900000000         4.486179556450
    9          0.656980000000        -2.718888338381
   10          0.264590000000         1.227231528807
   11          0.105850000000        -0.342416593628
 S 11
    1       8780.200000000001        -0.002578509415
    2       1315.600000000000        -0.020036903154
    3        299.460000000000        -0.105185389183
    4         84.833000000000        -0.441163548239
    5         27.691000000000        -1.567344767520
    6         10.008000000000         3.419520905658
    7          3.892400000000        -3.385219606696
    8          1.581900000000         2.472295151698
    9          0.656980000000        -1.459103596363
   10          0.264590000000         0.667775617998
   11          0.105850000000        -0.189228069300
 P 6
    1         40.500000000000        -0.000606185065
    2          8.900000000000         0.009494209690
    3          2.850000000000        -0.045589027607
    4          1.300000000000         0.188559656342
    5          0.600000000000        -0.284916642966
    6          0.200000000000         1.129476576753
 P 6
    1         40.500000000000         0.003552807495
    2          8.900000000000        -0.025178644577
    3          2.850000000000         0.242566694597
    4          1.300000000000        -0.704161406254
    5          0.600000000000         1.970589237007
    6          0.200000000000        -1.060265179770
 P 6
    1         40.500000000000        -0.006856428902
    2          8.900000000000         0.103767748172
    3          2.850000000000        -0.592339668743
    4          1.300000000000         2.823682893011
    5          0.600000000000        -2.446865518908
    6          0.200000000000         0.682050776564
 P 6
    1         40.500000000000         0.026398026577
    2          8.900000000000        -0.211472081489
    3          2.850000000000         2.670710035740
    4          1.300000000000        -3.435662020479
    5          0.600000000000         1.803971922050
    6          0.200000000000        -0.403560552445
 P 6
    1         40.500000000000        -0.079674827568
    2          8.900000000000         1.743737921267
    3          2.850000000000        -2.449172016627
    4          1.300000000000         2.106217379734
    5          0.600000000000        -0.967256357411
    6          0.200000000000         0.212372847239
 P 6
    1         40.500000000000         1.253673304397
    2          8.900000000000        -1.066456829448
    3          2.850000000000         1.010316094428
    4          1.300000000000        -0.827624323140
    5          0.600000000000         0.384938481411
    6          0.200000000000        -0.087066199439
 D 3
    1          3.700000000000         0.050521504180
    2          1.200000000000        -0.301847332825
    3          0.500000000000         1.190473796750
 D 3
    1          3.700000000000        -0.146405933832
    2          1.200000000000         1.545973137840
    3          0.500000000000        -0.904559048212
 D 3
    1          3.700000000000         1.325128472092
    2          1.200000000000        -1.031454060559
    3          0.500000000000         0.437820590727
 F 2
    1          4.100000000000         0.167319809505
    2          1.500000000000        -1.087548621327
 F 2
    1          4.100000000000         1.215148473960
    2          1.500000000000        -0.567291572888
 G 1
    1          4.650000000000         1.000000000000
 end
  // -----------------------------------------------
  // The basis set
  // -----------------------------------------------
  BAS[ATNO] = new BFNGauss[NSH];
  // Basis function   1 L = s
  InitBFNGauss(BAS[ATNO][  0]);
  BAS[ATNO][  0].l  = 0;
  BAS[ATNO][  0].ng = 11;
  BAS[ATNO][  0].a[  0] =      8780.200000000001;     BAS[ATNO][  0].d[  0] =         0.000027950497;
  BAS[ATNO][  0].a[  1] =      1315.600000000000;     BAS[ATNO][  0].d[  1] =         0.000217195792;
  BAS[ATNO][  0].a[  2] =       299.460000000000;     BAS[ATNO][  0].d[  2] =         0.001140187372;
  BAS[ATNO][  0].a[  3] =        84.833000000000;     BAS[ATNO][  0].d[  3] =         0.004782119558;
  BAS[ATNO][  0].a[  4] =        27.691000000000;     BAS[ATNO][  0].d[  4] =         0.016989685792;
  BAS[ATNO][  0].a[  5] =        10.008000000000;     BAS[ATNO][  0].d[  5] =         0.051210064496;
  BAS[ATNO][  0].a[  6] =         3.892400000000;     BAS[ATNO][  0].d[  6] =         0.127171607290;
  BAS[ATNO][  0].a[  7] =         1.581900000000;     BAS[ATNO][  0].d[  7] =         0.237052982670;
  BAS[ATNO][  0].a[  8] =         0.656980000000;     BAS[ATNO][  0].d[  8] =         0.346252155936;
  BAS[ATNO][  0].a[  9] =         0.264590000000;     BAS[ATNO][  0].d[  9] =         0.311125086057;
  BAS[ATNO][  0].a[ 10] =         0.105850000000;     BAS[ATNO][  0].d[ 10] =         0.088403686013;

  // Basis function   2 L = s
  InitBFNGauss(BAS[ATNO][  1]);
  BAS[ATNO][  1].l  = 0;
  BAS[ATNO][  1].ng = 11;
  BAS[ATNO][  1].a[  0] =      8780.200000000001;     BAS[ATNO][  1].d[  0] =        -0.000009006127;
  BAS[ATNO][  1].a[  1] =      1315.600000000000;     BAS[ATNO][  1].d[  1] =        -0.000069984194;
  BAS[ATNO][  1].a[  2] =       299.460000000000;     BAS[ATNO][  1].d[  2] =        -0.000367387844;
  BAS[ATNO][  1].a[  3] =        84.833000000000;     BAS[ATNO][  1].d[  3] =        -0.001540880592;
  BAS[ATNO][  1].a[  4] =        27.691000000000;     BAS[ATNO][  1].d[  4] =        -0.005474366916;
  BAS[ATNO][  1].a[  5] =        10.008000000000;     BAS[ATNO][  1].d[  5] =        -0.033861544253;
  BAS[ATNO][  1].a[  6] =         3.892400000000;     BAS[ATNO][  1].d[  6] =         0.007495583817;
  BAS[ATNO][  1].a[  7] =         1.581900000000;     BAS[ATNO][  1].d[  7] =        -0.293793100744;
  BAS[ATNO][  1].a[  8] =         0.656980000000;     BAS[ATNO][  1].d[  8] =         0.306563129454;
  BAS[ATNO][  1].a[  9] =         0.264590000000;     BAS[ATNO][  1].d[  9] =        -1.431870213503;
  BAS[ATNO][  1].a[ 10] =         0.105850000000;     BAS[ATNO][  1].d[ 10] =         1.865431168982;

  // Basis function   3 L = s
  InitBFNGauss(BAS[ATNO][  2]);
  BAS[ATNO][  2].l  = 0;
  BAS[ATNO][  2].ng = 11;
  BAS[ATNO][  2].a[  0] =      8780.200000000001;     BAS[ATNO][  2].d[  0] =        -0.000026841748;
  BAS[ATNO][  2].a[  1] =      1315.600000000000;     BAS[ATNO][  2].d[  1] =        -0.000208580006;
  BAS[ATNO][  2].a[  2] =       299.460000000000;     BAS[ATNO][  2].d[  2] =        -0.001094958085;
  BAS[ATNO][  2].a[  3] =        84.833000000000;     BAS[ATNO][  2].d[  3] =        -0.004592421037;
  BAS[ATNO][  2].a[  4] =        27.691000000000;     BAS[ATNO][  2].d[  4] =        -0.016315733954;
  BAS[ATNO][  2].a[  5] =        10.008000000000;     BAS[ATNO][  2].d[  5] =         0.014806443167;
  BAS[ATNO][  2].a[  6] =         3.892400000000;     BAS[ATNO][  2].d[  6] =        -0.335617390484;
  BAS[ATNO][  2].a[  7] =         1.581900000000;     BAS[ATNO][  2].d[  7] =         0.562076097443;
  BAS[ATNO][  2].a[  8] =         0.656980000000;     BAS[ATNO][  2].d[  8] =        -2.733688993451;
  BAS[ATNO][  2].a[  9] =         0.264590000000;     BAS[ATNO][  2].d[  9] =         4.104271323850;
  BAS[ATNO][  2].a[ 10] =         0.105850000000;     BAS[ATNO][  2].d[ 10] =        -1.853486239335;

  // Basis function   4 L = s
  InitBFNGauss(BAS[ATNO][  3]);
  BAS[ATNO][  3].l  = 0;
  BAS[ATNO][  3].ng = 11;
  BAS[ATNO][  3].a[  0] =      8780.200000000001;     BAS[ATNO][  3].d[  0] =        -0.000010745256;
  BAS[ATNO][  3].a[  1] =      1315.600000000000;     BAS[ATNO][  3].d[  1] =        -0.000083498495;
  BAS[ATNO][  3].a[  2] =       299.460000000000;     BAS[ATNO][  3].d[  2] =        -0.000438332295;
  BAS[ATNO][  3].a[  3] =        84.833000000000;     BAS[ATNO][  3].d[  3] =        -0.001838432428;
  BAS[ATNO][  3].a[  4] =        27.691000000000;     BAS[ATNO][  3].d[  4] =        -0.006531494856;
  BAS[ATNO][  3].a[  5] =        10.008000000000;     BAS[ATNO][  3].d[  5] =        -0.239839071655;
  BAS[ATNO][  3].a[  6] =         3.892400000000;     BAS[ATNO][  3].d[  6] =         0.615992803076;
  BAS[ATNO][  3].a[  7] =         1.581900000000;     BAS[ATNO][  3].d[  7] =        -3.557870649686;
  BAS[ATNO][  3].a[  8] =         0.656980000000;     BAS[ATNO][  3].d[  8] =         5.504634335268;
  BAS[ATNO][  3].a[  9] =         0.264590000000;     BAS[ATNO][  3].d[  9] =        -3.629697196082;
  BAS[ATNO][  3].a[ 10] =         0.105850000000;     BAS[ATNO][  3].d[ 10] =         1.109011629481;

  // Basis function   5 L = s
  InitBFNGauss(BAS[ATNO][  4]);
  BAS[ATNO][  4].l  = 0;
  BAS[ATNO][  4].ng = 11;
  BAS[ATNO][  4].a[  0] =      8780.200000000001;     BAS[ATNO][  4].d[  0] =        -0.000126480354;
  BAS[ATNO][  4].a[  1] =      1315.600000000000;     BAS[ATNO][  4].d[  1] =        -0.000982844810;
  BAS[ATNO][  4].a[  2] =       299.460000000000;     BAS[ATNO][  4].d[  2] =        -0.005159525556;
  BAS[ATNO][  4].a[  3] =        84.833000000000;     BAS[ATNO][  4].d[  3] =        -0.021639836285;
  BAS[ATNO][  4].a[  4] =        27.691000000000;     BAS[ATNO][  4].d[  4] =        -0.076880976017;
  BAS[ATNO][  4].a[  5] =        10.008000000000;     BAS[ATNO][  4].d[  5] =         0.435448663488;
  BAS[ATNO][  4].a[  6] =         3.892400000000;     BAS[ATNO][  4].d[  6] =        -3.607737834356;
  BAS[ATNO][  4].a[  7] =         1.581900000000;     BAS[ATNO][  4].d[  7] =         5.895741883261;
  BAS[ATNO][  4].a[  8] =         0.656980000000;     BAS[ATNO][  4].d[  8] =        -4.582719574340;
  BAS[ATNO][  4].a[  9] =         0.264590000000;     BAS[ATNO][  4].d[  9] =         2.210073000166;
  BAS[ATNO][  4].a[ 10] =         0.105850000000;     BAS[ATNO][  4].d[ 10] =        -0.617091668167;

  // Basis function   6 L = s
  InitBFNGauss(BAS[ATNO][  5]);
  BAS[ATNO][  5].l  = 0;
  BAS[ATNO][  5].ng = 11;
  BAS[ATNO][  5].a[  0] =      8780.200000000001;     BAS[ATNO][  5].d[  0] =         0.000107813549;
  BAS[ATNO][  5].a[  1] =      1315.600000000000;     BAS[ATNO][  5].d[  1] =         0.000837790092;
  BAS[ATNO][  5].a[  2] =       299.460000000000;     BAS[ATNO][  5].d[  2] =         0.004398048753;
  BAS[ATNO][  5].a[  3] =        84.833000000000;     BAS[ATNO][  5].d[  3] =         0.018446086556;
  BAS[ATNO][  5].a[  4] =        27.691000000000;     BAS[ATNO][  5].d[  4] =         0.065534374633;
  BAS[ATNO][  5].a[  5] =        10.008000000000;     BAS[ATNO][  5].d[  5] =        -2.958959640262;
  BAS[ATNO][  5].a[  6] =         3.892400000000;     BAS[ATNO][  5].d[  6] =         5.150008215356;
  BAS[ATNO][  5].a[  7] =         1.581900000000;     BAS[ATNO][  5].d[  7] =        -4.486179556450;
  BAS[ATNO][  5].a[  8] =         0.656980000000;     BAS[ATNO][  5].d[  8] =         2.718888338381;
  BAS[ATNO][  5].a[  9] =         0.264590000000;     BAS[ATNO][  5].d[  9] =        -1.227231528807;
  BAS[ATNO][  5].a[ 10] =         0.105850000000;     BAS[ATNO][  5].d[ 10] =         0.342416593628;

  // Basis function   7 L = s
  InitBFNGauss(BAS[ATNO][  6]);
  BAS[ATNO][  6].l  = 0;
  BAS[ATNO][  6].ng = 11;
  BAS[ATNO][  6].a[  0] =      8780.200000000001;     BAS[ATNO][  6].d[  0] =        -0.002578509415;
  BAS[ATNO][  6].a[  1] =      1315.600000000000;     BAS[ATNO][  6].d[  1] =        -0.020036903154;
  BAS[ATNO][  6].a[  2] =       299.460000000000;     BAS[ATNO][  6].d[  2] =        -0.105185389183;
  BAS[ATNO][  6].a[  3] =        84.833000000000;     BAS[ATNO][  6].d[  3] =        -0.441163548239;
  BAS[ATNO][  6].a[  4] =        27.691000000000;     BAS[ATNO][  6].d[  4] =        -1.567344767520;
  BAS[ATNO][  6].a[  5] =        10.008000000000;     BAS[ATNO][  6].d[  5] =         3.419520905658;
  BAS[ATNO][  6].a[  6] =         3.892400000000;     BAS[ATNO][  6].d[  6] =        -3.385219606696;
  BAS[ATNO][  6].a[  7] =         1.581900000000;     BAS[ATNO][  6].d[  7] =         2.472295151698;
  BAS[ATNO][  6].a[  8] =         0.656980000000;     BAS[ATNO][  6].d[  8] =        -1.459103596363;
  BAS[ATNO][  6].a[  9] =         0.264590000000;     BAS[ATNO][  6].d[  9] =         0.667775617998;
  BAS[ATNO][  6].a[ 10] =         0.105850000000;     BAS[ATNO][  6].d[ 10] =        -0.189228069300;

  // Basis function   8 L = p
  InitBFNGauss(BAS[ATNO][  7]);
  BAS[ATNO][  7].l  = 1;
  BAS[ATNO][  7].ng = 6;
  BAS[ATNO][  7].a[  0] =        40.500000000000;     BAS[ATNO][  7].d[  0] =        -0.000606185065;
  BAS[ATNO][  7].a[  1] =         8.900000000000;     BAS[ATNO][  7].d[  1] =         0.009494209690;
  BAS[ATNO][  7].a[  2] =         2.850000000000;     BAS[ATNO][  7].d[  2] =        -0.045589027607;
  BAS[ATNO][  7].a[  3] =         1.300000000000;     BAS[ATNO][  7].d[  3] =         0.188559656342;
  BAS[ATNO][  7].a[  4] =         0.600000000000;     BAS[ATNO][  7].d[  4] =        -0.284916642966;
  BAS[ATNO][  7].a[  5] =         0.200000000000;     BAS[ATNO][  7].d[  5] =         1.129476576753;

  // Basis function   9 L = p
  InitBFNGauss(BAS[ATNO][  8]);
  BAS[ATNO][  8].l  = 1;
  BAS[ATNO][  8].ng = 6;
  BAS[ATNO][  8].a[  0] =        40.500000000000;     BAS[ATNO][  8].d[  0] =         0.003552807495;
  BAS[ATNO][  8].a[  1] =         8.900000000000;     BAS[ATNO][  8].d[  1] =        -0.025178644577;
  BAS[ATNO][  8].a[  2] =         2.850000000000;     BAS[ATNO][  8].d[  2] =         0.242566694597;
  BAS[ATNO][  8].a[  3] =         1.300000000000;     BAS[ATNO][  8].d[  3] =        -0.704161406254;
  BAS[ATNO][  8].a[  4] =         0.600000000000;     BAS[ATNO][  8].d[  4] =         1.970589237007;
  BAS[ATNO][  8].a[  5] =         0.200000000000;     BAS[ATNO][  8].d[  5] =        -1.060265179770;

  // Basis function  10 L = p
  InitBFNGauss(BAS[ATNO][  9]);
  BAS[ATNO][  9].l  = 1;
  BAS[ATNO][  9].ng = 6;
  BAS[ATNO][  9].a[  0] =        40.500000000000;     BAS[ATNO][  9].d[  0] =        -0.006856428902;
  BAS[ATNO][  9].a[  1] =         8.900000000000;     BAS[ATNO][  9].d[  1] =         0.103767748172;
  BAS[ATNO][  9].a[  2] =         2.850000000000;     BAS[ATNO][  9].d[  2] =        -0.592339668743;
  BAS[ATNO][  9].a[  3] =         1.300000000000;     BAS[ATNO][  9].d[  3] =         2.823682893011;
  BAS[ATNO][  9].a[  4] =         0.600000000000;     BAS[ATNO][  9].d[  4] =        -2.446865518908;
  BAS[ATNO][  9].a[  5] =         0.200000000000;     BAS[ATNO][  9].d[  5] =         0.682050776564;

  // Basis function  11 L = p
  InitBFNGauss(BAS[ATNO][ 10]);
  BAS[ATNO][ 10].l  = 1;
  BAS[ATNO][ 10].ng = 6;
  BAS[ATNO][ 10].a[  0] =        40.500000000000;     BAS[ATNO][ 10].d[  0] =        -0.026398026577;
  BAS[ATNO][ 10].a[  1] =         8.900000000000;     BAS[ATNO][ 10].d[  1] =         0.211472081489;
  BAS[ATNO][ 10].a[  2] =         2.850000000000;     BAS[ATNO][ 10].d[  2] =        -2.670710035740;
  BAS[ATNO][ 10].a[  3] =         1.300000000000;     BAS[ATNO][ 10].d[  3] =         3.435662020479;
  BAS[ATNO][ 10].a[  4] =         0.600000000000;     BAS[ATNO][ 10].d[  4] =        -1.803971922050;
  BAS[ATNO][ 10].a[  5] =         0.200000000000;     BAS[ATNO][ 10].d[  5] =         0.403560552445;

  // Basis function  12 L = p
  InitBFNGauss(BAS[ATNO][ 11]);
  BAS[ATNO][ 11].l  = 1;
  BAS[ATNO][ 11].ng = 6;
  BAS[ATNO][ 11].a[  0] =        40.500000000000;     BAS[ATNO][ 11].d[  0] =         0.079674827568;
  BAS[ATNO][ 11].a[  1] =         8.900000000000;     BAS[ATNO][ 11].d[  1] =        -1.743737921267;
  BAS[ATNO][ 11].a[  2] =         2.850000000000;     BAS[ATNO][ 11].d[  2] =         2.449172016627;
  BAS[ATNO][ 11].a[  3] =         1.300000000000;     BAS[ATNO][ 11].d[  3] =        -2.106217379734;
  BAS[ATNO][ 11].a[  4] =         0.600000000000;     BAS[ATNO][ 11].d[  4] =         0.967256357411;
  BAS[ATNO][ 11].a[  5] =         0.200000000000;     BAS[ATNO][ 11].d[  5] =        -0.212372847239;

  // Basis function  13 L = p
  InitBFNGauss(BAS[ATNO][ 12]);
  BAS[ATNO][ 12].l  = 1;
  BAS[ATNO][ 12].ng = 6;
  BAS[ATNO][ 12].a[  0] =        40.500000000000;     BAS[ATNO][ 12].d[  0] =         1.253673304397;
  BAS[ATNO][ 12].a[  1] =         8.900000000000;     BAS[ATNO][ 12].d[  1] =        -1.066456829448;
  BAS[ATNO][ 12].a[  2] =         2.850000000000;     BAS[ATNO][ 12].d[  2] =         1.010316094428;
  BAS[ATNO][ 12].a[  3] =         1.300000000000;     BAS[ATNO][ 12].d[  3] =        -0.827624323140;
  BAS[ATNO][ 12].a[  4] =         0.600000000000;     BAS[ATNO][ 12].d[  4] =         0.384938481411;
  BAS[ATNO][ 12].a[  5] =         0.200000000000;     BAS[ATNO][ 12].d[  5] =        -0.087066199439;

  // Basis function  14 L = d
  InitBFNGauss(BAS[ATNO][ 13]);
  BAS[ATNO][ 13].l  = 2;
  BAS[ATNO][ 13].ng = 3;
  BAS[ATNO][ 13].a[  0] =         3.700000000000;     BAS[ATNO][ 13].d[  0] =         0.050521504180;
  BAS[ATNO][ 13].a[  1] =         1.200000000000;     BAS[ATNO][ 13].d[  1] =        -0.301847332825;
  BAS[ATNO][ 13].a[  2] =         0.500000000000;     BAS[ATNO][ 13].d[  2] =         1.190473796750;

  // Basis function  15 L = d
  InitBFNGauss(BAS[ATNO][ 14]);
  BAS[ATNO][ 14].l  = 2;
  BAS[ATNO][ 14].ng = 3;
  BAS[ATNO][ 14].a[  0] =         3.700000000000;     BAS[ATNO][ 14].d[  0] =        -0.146405933832;
  BAS[ATNO][ 14].a[  1] =         1.200000000000;     BAS[ATNO][ 14].d[  1] =         1.545973137840;
  BAS[ATNO][ 14].a[  2] =         0.500000000000;     BAS[ATNO][ 14].d[  2] =        -0.904559048212;

  // Basis function  16 L = d
  InitBFNGauss(BAS[ATNO][ 15]);
  BAS[ATNO][ 15].l  = 2;
  BAS[ATNO][ 15].ng = 3;
  BAS[ATNO][ 15].a[  0] =         3.700000000000;     BAS[ATNO][ 15].d[  0] =         1.325128472092;
  BAS[ATNO][ 15].a[  1] =         1.200000000000;     BAS[ATNO][ 15].d[  1] =        -1.031454060559;
  BAS[ATNO][ 15].a[  2] =         0.500000000000;     BAS[ATNO][ 15].d[  2] =         0.437820590727;

  // Basis function  17 L = f
  InitBFNGauss(BAS[ATNO][ 16]);
  BAS[ATNO][ 16].l  = 3;
  BAS[ATNO][ 16].ng = 2;
  BAS[ATNO][ 16].a[  0] =         4.100000000000;     BAS[ATNO][ 16].d[  0] =        -0.167319809505;
  BAS[ATNO][ 16].a[  1] =         1.500000000000;     BAS[ATNO][ 16].d[  1] =         1.087548621327;

  // Basis function  18 L = f
  InitBFNGauss(BAS[ATNO][ 17]);
  BAS[ATNO][ 17].l  = 3;
  BAS[ATNO][ 17].ng = 2;
  BAS[ATNO][ 17].a[  0] =         4.100000000000;     BAS[ATNO][ 17].d[  0] =         1.215148473960;
  BAS[ATNO][ 17].a[  1] =         1.500000000000;     BAS[ATNO][ 17].d[  1] =        -0.567291572888;

  // Basis function  19 L = g
  InitBFNGauss(BAS[ATNO][ 18]);
  BAS[ATNO][ 18].l  = 4;
  BAS[ATNO][ 18].ng = 1;
  BAS[ATNO][ 18].a[  0] =         4.650000000000;     BAS[ATNO][ 18].d[  0] =         1.000000000000;

-------
TIMINGS
-------

Total SCF time: 0 days 0 hours 0 min 1 sec 

Total time                  ....       1.153 sec
Sum of individual times     ....       0.978 sec  ( 84.8%)

Fock matrix formation       ....       0.732 sec  ( 63.5%)
  XC integration            ....       0.016 sec  (  2.2% of F)
    Basis function eval.    ....       0.002 sec  ( 11.7% of XC)
    Density eval.           ....       0.001 sec  (  6.3% of XC)
    XC-Functional eval.     ....       0.001 sec  (  6.7% of XC)
    XC-Potential eval.      ....       0.002 sec  (  9.2% of XC)
Diagonalization             ....       0.001 sec  (  0.1%)
Density matrix formation    ....       0.001 sec  (  0.1%)
Population analysis         ....       0.001 sec  (  0.1%)
Initial guess               ....       0.091 sec  (  7.9%)
Orbital Transformation      ....       0.000 sec  (  0.0%)
Orbital Orthonormalization  ....       0.000 sec  (  0.0%)
DIIS solution               ....       0.000 sec  (  0.0%)
SOSCF solution              ....       0.001 sec  (  0.1%)
Grid generation             ....       0.151 sec  ( 13.1%)

-------------------------   --------------------
FINAL SINGLE POINT ENERGY        -2.834900575827
-------------------------   --------------------


                            ***************************************
                            *     ORCA property calculations      *
                            ***************************************

                                    ---------------------
                                    Active property flags
                                    ---------------------
   (+) Dipole Moment


------------------------------------------------------------------------------
                       ORCA ELECTRIC PROPERTIES CALCULATION
------------------------------------------------------------------------------

Dipole Moment Calculation                       ... on
Quadrupole Moment Calculation                   ... off
Polarizability Calculation                      ... off
GBWName                                         ... He_pc-4_274.071978_.gbw
Electron density file                           ... He_pc-4_274.071978_.scfp
The origin for moment calculation is the CENTER OF MASS  = ( 0.000000,  0.000000  0.000000)

-------------
DIPOLE MOMENT
-------------
                                X             Y             Z
Electronic contribution:     -0.00000      -0.00000       0.00000
Nuclear contribution   :      0.00000       0.00000       0.00000
                        -----------------------------------------
Total Dipole Moment    :     -0.00000      -0.00000       0.00000
                        -----------------------------------------
Magnitude (a.u.)       :      0.00000
Magnitude (Debye)      :      0.00000



--------------------
Rotational spectrum 
--------------------
 
Rotational constants in cm-1:     0.000000     0.000000     0.000000 
Rotational constants in MHz :     0.000000     0.000000     0.000000 

 Dipole components along the rotational axes: 
x,y,z [a.u.] :    -0.000000    -0.000000     0.000000 
x,y,z [Debye]:    -0.000000    -0.000000     0.000000 

 

Timings for individual modules:

Sum of individual times         ...        2.199 sec (=   0.037 min)
GTO integral calculation        ...        0.502 sec (=   0.008 min)  22.8 %
Relativistic integrals          ...        0.295 sec (=   0.005 min)  13.4 %
SCF iterations                  ...        1.402 sec (=   0.023 min)  63.8 %
                             ****ORCA TERMINATED NORMALLY****
TOTAL RUN TIME: 0 days 0 hours 0 minutes 2 seconds 500 msec
