
                                 *****************
                                 * O   R   C   A *
                                 *****************

           --- An Ab Initio, DFT and Semiempirical electronic structure package ---

                  #######################################################
                  #                        -***-                        #
                  #          Department of theory and spectroscopy      #
                  #               Directorship: Frank Neese             #
                  #        Max Planck Institute fuer Kohlenforschung    #
                  #                Kaiser Wilhelm Platz 1               #
                  #                 D-45470 Muelheim/Ruhr               #
                  #                      Germany                        #
                  #                                                     #
                  #                  All rights reserved                #
                  #                        -***-                        #
                  #######################################################


                         Program Version 4.2.1 -  RELEASE  -


 With contributions from (in alphabetic order):
   Daniel Aravena         : Magnetic Suceptibility
   Michael Atanasov       : Ab Initio Ligand Field Theory (pilot matlab implementation)
   Alexander A. Auer      : GIAO ZORA, VPT2
   Ute Becker             : Parallelization
   Giovanni Bistoni       : ED, misc. LED, open-shell LED, HFLD
   Martin Brehm           : Molecular dynamics
   Dmytro Bykov           : SCF Hessian
   Vijay G. Chilkuri      : MRCI spin determinant printing, contributions to CSF-ICE
   Dipayan Datta          : RHF DLPNO-CCSD density
   Achintya Kumar Dutta   : EOM-CC, STEOM-CC
   Dmitry Ganyushin       : Spin-Orbit,Spin-Spin,Magnetic field MRCI
   Miquel Garcia          : C-PCM Hessian, Gaussian charge scheme
   Yang Guo               : DLPNO-NEVPT2, CIM, IAO-localization
   Andreas Hansen         : Spin unrestricted coupled pair/coupled cluster methods
   Benjamin Helmich-Paris : CASSCF linear response (MC-RPA)
   Lee Huntington         : MR-EOM, pCC
   Robert Izsak           : Overlap fitted RIJCOSX, COSX-SCS-MP3, EOM
   Christian Kollmar      : KDIIS, OOCD, Brueckner-CCSD(T), CCSD density
   Simone Kossmann        : Meta GGA functionals, TD-DFT gradient, OOMP2, MP2 Hessian
   Martin Krupicka        : AUTO-CI
   Lucas Lang             : DCDCAS
   Dagmar Lenk            : GEPOL surface, SMD
   Dimitrios Liakos       : Extrapolation schemes; Compound Job, initial MDCI parallelization
   Dimitrios Manganas     : Further ROCIS development; embedding schemes
   Dimitrios Pantazis     : SARC Basis sets
   Taras Petrenko         : DFT Hessian,TD-DFT gradient, ASA, ECA, R-Raman, ABS, FL, XAS/XES, NRVS
   Peter Pinski           : DLPNO-MP2, DLPNO-MP2 Gradient
   Christoph Reimann      : Effective Core Potentials
   Marius Retegan         : Local ZFS, SOC
   Christoph Riplinger    : Optimizer, TS searches, QM/MM, DLPNO-CCSD(T), (RO)-DLPNO pert. Triples
   Tobias Risthaus        : Range-separated hybrids, TD-DFT gradient, RPA, STAB
   Michael Roemelt        : Original ROCIS implementation
   Masaaki Saitow         : Open-shell DLPNO-CCSD energy and density
   Barbara Sandhoefer     : DKH picture change effects
   Avijit Sen             : IP-ROCIS
   Kantharuban Sivalingam : CASSCF convergence, NEVPT2, FIC-MRCI
   Bernardo de Souza      : ESD, SOC TD-DFT
   Georgi Stoychev        : AutoAux, RI-MP2 NMR
   Willem Van den Heuvel  : Paramagnetic NMR
   Boris Wezisla          : Elementary symmetry handling
   Frank Wennmohs         : Technical directorship


 We gratefully acknowledge several colleagues who have allowed us to
 interface, adapt or use parts of their codes:
   Stefan Grimme, W. Hujo, H. Kruse,             : VdW corrections, initial TS optimization,
                  C. Bannwarth                     DFT functionals, gCP, sTDA/sTD-DF
   Ed Valeev, F. Pavosevic, A. Kumar             : LibInt (2-el integral package), F12 methods
   Garnet Chan, S. Sharma, J. Yang, R. Olivares  : DMRG
   Ulf Ekstrom                                   : XCFun DFT Library
   Mihaly Kallay                                 : mrcc  (arbitrary order and MRCC methods)
   Andreas Klamt, Michael Diedenhofen            : otool_cosmo (COSMO solvation model)
   Jiri Pittner, Ondrej Demel                    : Mk-CCSD
   Frank Weinhold                                : gennbo (NPA and NBO analysis)
   Christopher J. Cramer and Donald G. Truhlar   : smd solvation model
   Lars Goerigk                                  : TD-DFT with DH, B97 family of functionals
   V. Asgeirsson, H. Jonsson                     : NEB implementation
   FAccTs GmbH                                   : IRC, NEB, NEB-TS, Multilevel, MM, QM/MM, CI optimization
   S Lehtola, MJT Oliveira, MAL Marques          : LibXC Library


 Your calculation uses the libint2 library for the computation of 2-el integrals
 For citations please refer to: http://libint.valeyev.net

 Your ORCA version has been built with support for libXC version: 4.2.3
 For citations please refer to: https://tddft.org/programs/libxc/

 This ORCA versions uses:
   CBLAS   interface :  Fast vector & matrix operations
   LAPACKE interface :  Fast linear algebra routines
   SCALAPACK package :  Parallel linear algebra routines


----- Orbital basis set information -----
Your calculation utilizes the basis: pc-4
   H, C-F              : F. Jensen, J. Chem. Phys. 115, 9113 (2001).
                         F. Jensen, J. Chem. Phys. 116, 7372 (2002).
                         F. Jensen, J. Chem. Phys. 117, 9234 (2002).
   Si-Cl               : F. Jensen, T. Helgaker, J. Chem. Phys. 121, 3463 (2004).
   He-B, Ne-Mg, Al, Ar : F. Jensen, J. Phys. Chem. A 111, 11198 (2007).
   K, Ca, Ga-Kr        : F. Jensen, J. Chem. Phys. 136, 094110 (2012).
   Sc-Zn               : F. Jensen, J. Chem. Phys. 138, 014107 (2013).

================================================================================
                                        WARNINGS
                       Please study these warnings very carefully!
================================================================================


INFO   : the flag for use of LIBINT has been found!

================================================================================
                                       INPUT FILE
================================================================================
NAME = He_pc-4_34.25899725_.inp
|  1> ! LDA pc-4 nori grid5 finalgrid6 verytightscf
|  2> %Pal NProcs 18 End
|  3> 
|  4> % REL
|  5>   Method ZORA
|  6>   ModelPot 1, 0, 0, 0
|  7>   velit 34.25899725
|  8> END
|  9> 
| 10> *xyz 0 1
| 11> He 0.0 0.0 0.0
| 12> **                         ****END OF INPUT****
================================================================================

                       ****************************
                       * Single Point Calculation *
                       ****************************

---------------------------------
CARTESIAN COORDINATES (ANGSTROEM)
---------------------------------
  He     0.000000    0.000000    0.000000

----------------------------
CARTESIAN COORDINATES (A.U.)
----------------------------
  NO LB      ZA    FRAG     MASS         X           Y           Z
   0 He    2.0000    0     4.003    0.000000    0.000000    0.000000

--------------------------------
INTERNAL COORDINATES (ANGSTROEM)
--------------------------------
 He     0   0   0     0.000000000000     0.00000000     0.00000000

---------------------------
INTERNAL COORDINATES (A.U.)
---------------------------
 He     0   0   0     0.000000000000     0.00000000     0.00000000

---------------------
BASIS SET INFORMATION
---------------------
There are 1 groups of distinct atoms

 Group   1 Type He  : 11s6p3d2f1g contracted to 7s6p3d2f1g pattern {5111111/111111/111/11/1}

Atom   0He   basis set group =>   1


           ************************************************************
           *        Program running with 18 parallel MPI-processes    *
           *              working on a common directory               *
           ************************************************************
------------------------------------------------------------------------------
                           ORCA GTO INTEGRAL CALCULATION
------------------------------------------------------------------------------

                         BASIS SET STATISTICS AND STARTUP INFO

 # of primitive gaussian shells          ...   23
 # of primitive gaussian functions       ...   67
 # of contracted shells                  ...   19
 # of contracted basis functions         ...   63
 Highest angular momentum                ...    4
 Maximum contraction depth               ...    5
 Integral package used                   ... LIBINT
 Integral threshhold            Thresh   ...  1.000e-12
 Primitive cut-off              TCut     ...  1.000e-14


------------------------------ INTEGRAL EVALUATION ----------------------------


 * One electron integrals 
 Pre-screening matrix                    ... done
 Shell pair data                         ... done (   0.000 sec)



           ************************************************************
           *        Program running with 18 parallel MPI-processes    *
           *              working on a common directory               *
           ************************************************************
------------------------------------------------------------------------------
                          ORCA RELATIVISTIC HAMILTONIAN
------------------------------------------------------------------------------

Relativistic Method            ... ZORA(MP)
Treatment of potential         ... Van Wuellen
Nucleus model                  ... Point Nucleus
Speed of light used            ...  34.25899725000000


            *************************************************
            *         ZERO ORDER REGULAR APPROXIMATION      *
            *                     ZORA(MP)                  *
            *            Programmed by FN according to      *
            *                   C. van Wuellen              *
            *       J. Chem. Phys. (1998) vol 109, 392-399  *
            *************************************************

Terms included in model potential: +V(e,N)
Basis function cutoff value   ... 1.000000e-12
Loading the fitted atomic densities  (DKH4)  ... done
Calculating the cutoffs                      ... done
Number of fit functions                      ... 6
Setting up the integration grid ... done


           ************************************************************
           *        Program running with 18 parallel MPI-processes    *
           *              working on a common directory               *
           ************************************************************
-------------------------------------------------------------------------------
                                 ORCA SCF
-------------------------------------------------------------------------------

------------
SCF SETTINGS
------------
Hamiltonian:
 Density Functional     Method          .... DFT(GTOs)
 Exchange Functional    Exchange        .... Slater
   X-Alpha parameter    XAlpha          ....  0.666667
 Correlation Functional Correlation     .... VWN-5
 Gradients option       PostSCFGGA      .... off
   Density functional embedding theory  .... OFF

Relativistic Settings:
 Scalar relativistic method             .... ZORA
 Speed of light used       Velit        ....       34.2589973
Orbital energies will be scaled


General Settings:
 Integral files         IntName         .... He_pc-4_34.25899725_
 Hartree-Fock type      HFTyp           .... RHF
 Total Charge           Charge          ....    0
 Multiplicity           Mult            ....    1
 Number of Electrons    NEL             ....    2
 Basis Dimension        Dim             ....   63
 Nuclear Repulsion      ENuc            ....      0.0000000000 Eh

Convergence Acceleration:
 DIIS                   CNVDIIS         .... on
   Start iteration      DIISMaxIt       ....    12
   Startup error        DIISStart       ....  0.200000
   # of expansion vecs  DIISMaxEq       ....     5
   Bias factor          DIISBfac        ....   1.050
   Max. coefficient     DIISMaxC        ....  10.000
 Newton-Raphson         CNVNR           .... off
 SOSCF                  CNVSOSCF        .... on
   Start iteration      SOSCFMaxIt      ....   150
   Startup grad/error   SOSCFStart      ....  0.003300
 Level Shifting         CNVShift        .... on
   Level shift para.    LevelShift      ....    0.2500
   Turn off err/grad.   ShiftErr        ....    0.0010
 Zerner damping         CNVZerner       .... off
 Static damping         CNVDamp         .... on
   Fraction old density DampFac         ....    0.7000
   Max. Damping (<1)    DampMax         ....    0.9800
   Min. Damping (>=0)   DampMin         ....    0.0000
   Turn off err/grad.   DampErr         ....    0.1000
 Fernandez-Rico         CNVRico         .... off

SCF Procedure:
 Maximum # iterations   MaxIter         ....   125
 SCF integral mode      SCFMode         .... Direct
   Integral package                     .... LIBINT
 Reset frequency        DirectResetFreq ....    20
 Integral Threshold     Thresh          ....  1.000e-12 Eh
 Primitive CutOff       TCut            ....  1.000e-14 Eh

Convergence Tolerance:
 Convergence Check Mode ConvCheckMode   .... Total+1el-Energy
 Convergence forced     ConvForced      .... 0
 Energy Change          TolE            ....  1.000e-09 Eh
 1-El. energy change                    ....  1.000e-06 Eh
 Orbital Gradient       TolG            ....  2.000e-06
 Orbital Rotation angle TolX            ....  2.000e-06
 DIIS Error             TolErr          ....  1.000e-08


Diagonalization of the overlap matrix:
Smallest eigenvalue                        ... 4.808e-03
Time for diagonalization                   ...    0.002 sec
Threshold for overlap eigenvalues          ... 1.000e-08
Number of eigenvalues below threshold      ... 0
Time for construction of square roots      ...    0.001 sec
Total time needed                          ...    0.003 sec

-------------------
DFT GRID GENERATION
-------------------

General Integration Accuracy     IntAcc      ...  5.010
Radial Grid Type                 RadialGrid  ... Gauss-Chebyshev
Angular Grid (max. acc.)         AngularGrid ... Lebedev-434
Angular grid pruning method      GridPruning ... 3 (G Style)
Weight generation scheme         WeightScheme... Becke
Basis function cutoff            BFCut       ...    1.0000e-12
Integration weight cutoff        WCut        ...    1.0000e-14
Grids for H and He will be reduced by one unit

# of grid points (after initial pruning)     ...   6764 (   0.0 sec)
# of grid points (after weights+screening)   ...   6764 (   0.0 sec)
Grid point division into batches done        ...    0.0 sec
Reduced shell lists constructed in    0.0 sec

Total number of grid points                  ...     6764
Total number of batches                      ...      106
Average number of points per batch           ...       63
Average number of grid points per atom       ...     6764
Average number of shells per batch           ...     1.71 ( 9.02%)
Average number of basis functions per batch  ...     3.43 ( 5.44%)
Average number of large shells per batch     ...     1.71 (100.00%)
Average number of large basis fcns per batch ...     3.43 (100.00%)
Maximum spatial batch extension              ...  15.22, 15.22, 15.22 au
Average spatial batch extension              ...   0.77,  0.77,  0.77 au

Time for grid setup =    0.052 sec

------------------------------
INITIAL GUESS: MODEL POTENTIAL
------------------------------
Loading ZORA relativistic densities                ... done
Calculating cut-offs                               ... done
Setting up the integral package                    ... done
Initializing the effective Hamiltonian             ... done
Starting the Coulomb interaction                   ... done (   0.0 sec)
Reading the grid                                   ... done
Mapping shells                                     ... done
Starting the XC term evaluation                    ... done (   0.0 sec)
  promolecular density results
     # of electrons  =      1.999920377
     EX              =     -0.884114011
     EC              =     -0.112857661
     EX+EC           =     -0.996971673
Transforming the Hamiltonian                       ... done (   0.0 sec)
Diagonalizing the Hamiltonian                      ... done (   0.0 sec)
Back transforming the eigenvectors                 ... done (   0.0 sec)
Now organizing SCF variables                       ... done
                      ------------------
                      INITIAL GUESS DONE (   0.1 sec)
                      ------------------
--------------
SCF ITERATIONS
--------------
ITER       Energy         Delta-E        Max-DP      RMS-DP      [F,P]     Damp
               ***  Starting incremental Fock matrix formation  ***
  0     -2.8390722703   0.000000000000 0.00216803  0.00005727  0.0292950 0.7000
                      *** Initiating the SOSCF procedure ***
                      *** Re-Reading the Fockian *** 
                      *** Removing any level shift *** 
ITER      Energy       Delta-E        Grad      Rot      Max-DP    RMS-DP
  1     -2.83915230  -0.0000800290  0.001013  0.001013  0.004670  0.000149
               *** Restarting incremental Fock matrix formation ***
  2     -2.83927136  -0.0001190595  0.002555  0.002207  0.002068  0.000058
  3     -2.83928255  -0.0000111921  0.001031  0.000719  0.000459  0.000017
  4     -2.83928504  -0.0000024914  0.000003  0.000001  0.000004  0.000000
                 **** Energy Check signals convergence ****
              ***Rediagonalizing the Fockian in SOSCF/NRSCF***

               *****************************************************
               *                     SUCCESS                       *
               *           SCF CONVERGED AFTER   5 CYCLES          *
               *****************************************************

Setting up the final grid:

General Integration Accuracy     IntAcc      ...  5.340
Radial Grid Type                 RadialGrid  ... Gauss-Chebyshev
Angular Grid (max. acc.)         AngularGrid ... Lebedev-590
Angular grid pruning method      GridPruning ... 3 (G Style)
Weight generation scheme         WeightScheme... Becke
Basis function cutoff            BFCut       ...    1.0000e-12
Integration weight cutoff        WCut        ...    1.0000e-14
Grids for H and He will be reduced by one unit

# of grid points (after initial pruning)     ...  11406 (   0.0 sec)
# of grid points (after weights+screening)   ...  11406 (   0.0 sec)
Grid point division into batches done        ...    0.1 sec
Reduced shell lists constructed in    0.1 sec

Total number of grid points                  ...    11406
Total number of batches                      ...      179
Average number of points per batch           ...       63
Average number of grid points per atom       ...    11406
Average number of shells per batch           ...     1.27 ( 6.70%)
Average number of basis functions per batch  ...     2.00 ( 3.17%)
Average number of large shells per batch     ...     0.91 (71.43%)
Average number of large basis fcns per batch ...     0.91 (45.45%)
Maximum spatial batch extension              ...  16.29, 16.29, 16.29 au
Average spatial batch extension              ...   0.81,  0.81,  0.81 au

Final grid set up in    0.1 sec
Final integration                            ... done (   0.0 sec)
Change in XC energy                          ...     0.000000011
Integrated number of electrons               ...     2.000000000
Previous integrated no of electrons          ...     2.000000007

----------------
TOTAL SCF ENERGY
----------------

Total Energy       :           -2.83928503 Eh             -77.26087 eV

Components:
Nuclear Repulsion  :            0.00000000 Eh               0.00000 eV
Electronic Energy  :           -2.83928503 Eh             -77.26087 eV
One Electron Energy:           -3.86400380 Eh            -105.14489 eV
Two Electron Energy:            1.02471876 Eh              27.88402 eV

Virial components:
Potential Energy   :           -5.61605507 Eh            -152.82063 eV
Kinetic Energy     :            2.77677004 Eh              75.55975 eV
Virial Ratio       :            2.02251356


DFT components:
N(Alpha)           :        0.999999999919 electrons
N(Beta)            :        0.999999999919 electrons
N(Total)           :        1.999999999839 electrons
E(X)               :       -0.863474030559 Eh       
E(C)               :       -0.111544043109 Eh       
E(XC)              :       -0.975018073669 Eh       
DFET-embed. en.    :        0.000000000000 Eh       

---------------
SCF CONVERGENCE
---------------

  Last Energy change         ...   -4.2393e-12  Tolerance :   1.0000e-09
  Last MAX-Density change    ...    1.2873e-07  Tolerance :   1.0000e-08
  Last RMS-Density change    ...    2.8604e-09  Tolerance :   1.0000e-09
  Last Orbital Gradient      ...    3.4232e-08  Tolerance :   2.0000e-06
  Last Orbital Rotation      ...    2.5879e-08  Tolerance :   2.0000e-06

             **** THE GBW FILE WAS UPDATED (He_pc-4_34.25899725_.gbw) ****
             **** DENSITY FILE WAS UPDATED (He_pc-4_34.25899725_.scfp) ****
             **** ENERGY FILE WAS UPDATED (He_pc-4_34.25899725_.en.tmp) ****
             **** THE GBW FILE WAS UPDATED (He_pc-4_34.25899725_.gbw) ****
             **** DENSITY FILE WAS UPDATED (He_pc-4_34.25899725_.scfp) ****
----------------
ORBITAL ENERGIES
----------------

  NO   OCC          E(Eh)            E(eV) 
   0   2.0000      -0.571114       -15.5408 
   1   0.0000       0.137113         3.7310 
   2   0.0000       0.268525         7.3069 
   3   0.0000       0.268525         7.3069 
   4   0.0000       0.268525         7.3069 
   5   0.0000       0.914028        24.8720 
   6   0.0000       1.301575        35.4177 
   7   0.0000       1.301575        35.4177 
   8   0.0000       1.301575        35.4177 
   9   0.0000       1.315574        35.7986 
  10   0.0000       1.315574        35.7986 
  11   0.0000       1.315574        35.7986 
  12   0.0000       1.315574        35.7986 
  13   0.0000       1.315574        35.7986 
  14   0.0000       3.178091        86.4803 
  15   0.0000       3.981187       108.3336 
  16   0.0000       3.981187       108.3336 
  17   0.0000       3.981187       108.3336 
  18   0.0000       4.590601       124.9166 
  19   0.0000       4.590601       124.9166 
  20   0.0000       4.590601       124.9166 
  21   0.0000       4.590601       124.9166 
  22   0.0000       4.590601       124.9166 
  23   0.0000       5.844600       159.0396 
  24   0.0000       5.844600       159.0396 
  25   0.0000       5.844600       159.0396 
  26   0.0000       5.844600       159.0396 
  27   0.0000       5.844600       159.0396 
  28   0.0000       5.844600       159.0396 
  29   0.0000       5.844600       159.0396 
  30   0.0000       9.410147       256.0631 
  31   0.0000      10.447273       284.2848 
  32   0.0000      10.447273       284.2848 
  33   0.0000      10.447273       284.2848 
  34   0.0000      14.683014       399.5451 
  35   0.0000      14.683014       399.5451 
  36   0.0000      14.683014       399.5451 
  37   0.0000      14.683014       399.5451 
  38   0.0000      14.683014       399.5451 
  39   0.0000      19.981141       543.7145 
  40   0.0000      19.981141       543.7145 
  41   0.0000      19.981141       543.7145 
  42   0.0000      19.981141       543.7145 
  43   0.0000      19.981141       543.7145 
  44   0.0000      19.981141       543.7145 
  45   0.0000      19.981141       543.7145 
  46   0.0000      24.204789       658.6458 
  47   0.0000      24.204789       658.6458 
  48   0.0000      24.204789       658.6458 
  49   0.0000      24.204789       658.6458 
  50   0.0000      24.204789       658.6458 
  51   0.0000      24.204789       658.6458 
  52   0.0000      24.204789       658.6458 
  53   0.0000      24.204789       658.6458 
  54   0.0000      24.204789       658.6458 
  55   0.0000      27.215047       740.5591 
  56   0.0000      29.689981       807.9054 
  57   0.0000      29.689981       807.9054 
  58   0.0000      29.689981       807.9054 
  59   0.0000     104.786528      2851.3864 
  60   0.0000     117.488997      3197.0381 
  61   0.0000     117.488997      3197.0381 
  62   0.0000     117.488997      3197.0381 

                    ********************************
                    * MULLIKEN POPULATION ANALYSIS *
                    ********************************

-----------------------
MULLIKEN ATOMIC CHARGES
-----------------------
   0 He:   -0.000000
Sum of atomic charges:   -0.0000000

--------------------------------
MULLIKEN REDUCED ORBITAL CHARGES
--------------------------------
  0 Hes       :     2.000000  s :     2.000000
      pz      :     0.000000  p :     0.000000
      px      :     0.000000
      py      :     0.000000
      dz2     :     0.000000  d :     0.000000
      dxz     :     0.000000
      dyz     :     0.000000
      dx2y2   :     0.000000
      dxy     :     0.000000
      f0      :     0.000000  f :     0.000000
      f+1     :     0.000000
      f-1     :     0.000000
      f+2     :     0.000000
      f-2     :     0.000000
      f+3     :     0.000000
      f-3     :     0.000000
      g0      :    -0.000000  g :     0.000000
      g+1     :     0.000000
      g-1     :     0.000000
      g+2     :     0.000000
      g-2     :     0.000000
      g+3     :     0.000000
      g-3     :     0.000000
      g+4     :    -0.000000
      g-4     :     0.000000


                     *******************************
                     * LOEWDIN POPULATION ANALYSIS *
                     *******************************

----------------------
LOEWDIN ATOMIC CHARGES
----------------------
   0 He:   -0.000000

-------------------------------
LOEWDIN REDUCED ORBITAL CHARGES
-------------------------------
  0 Hes       :     2.000000  s :     2.000000
      pz      :     0.000000  p :     0.000000
      px      :     0.000000
      py      :     0.000000
      dz2     :     0.000000  d :     0.000000
      dxz     :     0.000000
      dyz     :     0.000000
      dx2y2   :     0.000000
      dxy     :     0.000000
      f0      :     0.000000  f :     0.000000
      f+1     :     0.000000
      f-1     :     0.000000
      f+2     :     0.000000
      f-2     :     0.000000
      f+3     :     0.000000
      f-3     :     0.000000
      g0      :     0.000000  g :     0.000000
      g+1     :     0.000000
      g-1     :     0.000000
      g+2     :     0.000000
      g-2     :     0.000000
      g+3     :     0.000000
      g-3     :     0.000000
      g+4     :     0.000000
      g-4     :     0.000000


                      *****************************
                      * MAYER POPULATION ANALYSIS *
                      *****************************

  NA   - Mulliken gross atomic population
  ZA   - Total nuclear charge
  QA   - Mulliken gross atomic charge
  VA   - Mayer's total valence
  BVA  - Mayer's bonded valence
  FA   - Mayer's free valence

  ATOM       NA         ZA         QA         VA         BVA        FA
  0 He     2.0000     2.0000    -0.0000    -0.0000     0.0000    -0.0000

  Mayer bond orders larger than 0.100000


--------------------------
ATOM BASIS FOR ELEMENT He
--------------------------
 NewGTO He
 S 11
    1       8780.200000000001         0.000028455104
    2       1315.600000000000         0.000221116960
    3        299.460000000000         0.001160771870
    4         84.833000000000         0.004868454077
    5         27.691000000000         0.017296410944
    6         10.008000000000         0.051326635741
    7          3.892400000000         0.127960476526
    8          1.581900000000         0.237088444764
    9          0.656980000000         0.346464039327
   10          0.264590000000         0.310321061543
   11          0.105850000000         0.088021229540
 S 11
    1       8780.200000000001         0.000009181238
    2       1315.600000000000         0.000071344928
    3        299.460000000000         0.000374531132
    4         84.833000000000         0.001570840633
    5         27.691000000000         0.005580807519
    6         10.008000000000         0.033898825258
    7          3.892400000000        -0.007223856688
    8          1.581900000000         0.293612096836
    9          0.656980000000        -0.306226963115
   10          0.264590000000         1.429901185198
   11          0.105850000000        -1.864602091764
 S 11
    1       8780.200000000001         0.000027218088
    2       1315.600000000000         0.000211504445
    3        299.460000000000         0.001110310170
    4         84.833000000000         0.004656810018
    5         27.691000000000         0.016544492047
    6         10.008000000000        -0.014771169722
    7          3.892400000000         0.336022178756
    8          1.581900000000        -0.561431695697
    9          0.656980000000         2.730563668874
   10          0.264590000000        -4.103144029344
   11          0.105850000000         1.853868567696
 S 11
    1       8780.200000000001         0.000011239343
    2       1315.600000000000         0.000087337915
    3        299.460000000000         0.000458487647
    4         84.833000000000         0.001922967046
    5         27.691000000000         0.006831825407
    6         10.008000000000         0.240008059626
    7          3.892400000000        -0.614213723190
    8          1.581900000000         3.553486817576
    9          0.656980000000        -5.503228575569
   10          0.264590000000         3.630640222796
   11          0.105850000000        -1.109506109128
 S 11
    1       8780.200000000001         0.000127876707
    2       1315.600000000000         0.000993695497
    3        299.460000000000         0.005216487136
    4         84.833000000000         0.021878741832
    5         27.691000000000         0.077729748224
    6         10.008000000000        -0.434385625300
    7          3.892400000000         3.604302416703
    8          1.581900000000        -5.895666433153
    9          0.656980000000         4.584898387716
   10          0.264590000000        -2.211479127832
   11          0.105850000000         0.617483891014
 S 11
    1       8780.200000000001        -0.000105421164
    2       1315.600000000000        -0.000819199515
    3        299.460000000000        -0.004300455969
    4         84.833000000000        -0.018036767551
    5         27.691000000000        -0.064080165637
    6         10.008000000000         2.955953632821
    7          3.892400000000        -5.150628087306
    8          1.581900000000         4.489019688741
    9          0.656980000000        -2.720958995604
   10          0.264590000000         1.228131070832
   11          0.105850000000        -0.342649835547
 S 11
    1       8780.200000000001        -0.002578527277
    2       1315.600000000000        -0.020037041950
    3        299.460000000000        -0.105186117809
    4         84.833000000000        -0.441166604209
    5         27.691000000000        -1.567355624622
    6         10.008000000000         3.422241026070
    7          3.892400000000        -3.388188686912
    8          1.581900000000         2.473788738580
    9          0.656980000000        -1.459573881191
   10          0.264590000000         0.667861030670
   11          0.105850000000        -0.189232050563
 P 6
    1         40.500000000000        -0.000599066868
    2          8.900000000000         0.009521643542
    3          2.850000000000        -0.045568810034
    4          1.300000000000         0.188613238546
    5          0.600000000000        -0.284877489830
    6          0.200000000000         1.129427769055
 P 6
    1         40.500000000000         0.003587543530
    2          8.900000000000        -0.025114537313
    3          2.850000000000         0.242674884250
    4          1.300000000000        -0.703737819920
    5          0.600000000000         1.970099114066
    6          0.200000000000        -1.060198738458
 P 6
    1         40.500000000000        -0.006789073924
    2          8.900000000000         0.103973528935
    3          2.850000000000        -0.591382619761
    4          1.300000000000         2.822360718254
    5          0.600000000000        -2.446611006987
    6          0.200000000000         0.682111506906
 P 6
    1         40.500000000000         0.026628186930
    2          8.900000000000        -0.210414542373
    3          2.850000000000         2.669333135794
    4          1.300000000000        -3.435701411035
    5          0.600000000000         1.804405170643
    6          0.200000000000        -0.403679901685
 P 6
    1         40.500000000000        -0.078577282886
    2          8.900000000000         1.742930186484
    3          2.850000000000        -2.450235519601
    4          1.300000000000         2.107579579468
    5          0.600000000000        -0.967891497017
    6          0.200000000000         0.212496833761
 P 6
    1         40.500000000000         1.253737978220
    2          8.900000000000        -1.067966566477
    3          2.850000000000         1.011910572340
    4          1.300000000000        -0.828850127458
    5          0.600000000000         0.385466470959
    6          0.200000000000        -0.087176795762
 D 3
    1          3.700000000000         0.050556835835
    2          1.200000000000        -0.301774209625
    3          0.500000000000         1.190425304676
 D 3
    1          3.700000000000        -0.146191671951
    2          1.200000000000         1.545824785955
    3          0.500000000000        -0.904570727918
 D 3
    1          3.700000000000         1.325150779647
    2          1.200000000000        -1.031697771555
    3          0.500000000000         0.437928298121
 F 2
    1          4.100000000000         0.167244614775
    2          1.500000000000        -1.087513514765
 F 2
    1          4.100000000000         1.215158825524
    2          1.500000000000        -0.567358870225
 G 1
    1          4.650000000000         1.000000000000
 end
  // -----------------------------------------------
  // The basis set
  // -----------------------------------------------
  BAS[ATNO] = new BFNGauss[NSH];
  // Basis function   1 L = s
  InitBFNGauss(BAS[ATNO][  0]);
  BAS[ATNO][  0].l  = 0;
  BAS[ATNO][  0].ng = 11;
  BAS[ATNO][  0].a[  0] =      8780.200000000001;     BAS[ATNO][  0].d[  0] =         0.000028455104;
  BAS[ATNO][  0].a[  1] =      1315.600000000000;     BAS[ATNO][  0].d[  1] =         0.000221116960;
  BAS[ATNO][  0].a[  2] =       299.460000000000;     BAS[ATNO][  0].d[  2] =         0.001160771870;
  BAS[ATNO][  0].a[  3] =        84.833000000000;     BAS[ATNO][  0].d[  3] =         0.004868454077;
  BAS[ATNO][  0].a[  4] =        27.691000000000;     BAS[ATNO][  0].d[  4] =         0.017296410944;
  BAS[ATNO][  0].a[  5] =        10.008000000000;     BAS[ATNO][  0].d[  5] =         0.051326635741;
  BAS[ATNO][  0].a[  6] =         3.892400000000;     BAS[ATNO][  0].d[  6] =         0.127960476526;
  BAS[ATNO][  0].a[  7] =         1.581900000000;     BAS[ATNO][  0].d[  7] =         0.237088444764;
  BAS[ATNO][  0].a[  8] =         0.656980000000;     BAS[ATNO][  0].d[  8] =         0.346464039327;
  BAS[ATNO][  0].a[  9] =         0.264590000000;     BAS[ATNO][  0].d[  9] =         0.310321061543;
  BAS[ATNO][  0].a[ 10] =         0.105850000000;     BAS[ATNO][  0].d[ 10] =         0.088021229540;

  // Basis function   2 L = s
  InitBFNGauss(BAS[ATNO][  1]);
  BAS[ATNO][  1].l  = 0;
  BAS[ATNO][  1].ng = 11;
  BAS[ATNO][  1].a[  0] =      8780.200000000001;     BAS[ATNO][  1].d[  0] =        -0.000009181238;
  BAS[ATNO][  1].a[  1] =      1315.600000000000;     BAS[ATNO][  1].d[  1] =        -0.000071344928;
  BAS[ATNO][  1].a[  2] =       299.460000000000;     BAS[ATNO][  1].d[  2] =        -0.000374531132;
  BAS[ATNO][  1].a[  3] =        84.833000000000;     BAS[ATNO][  1].d[  3] =        -0.001570840633;
  BAS[ATNO][  1].a[  4] =        27.691000000000;     BAS[ATNO][  1].d[  4] =        -0.005580807519;
  BAS[ATNO][  1].a[  5] =        10.008000000000;     BAS[ATNO][  1].d[  5] =        -0.033898825258;
  BAS[ATNO][  1].a[  6] =         3.892400000000;     BAS[ATNO][  1].d[  6] =         0.007223856688;
  BAS[ATNO][  1].a[  7] =         1.581900000000;     BAS[ATNO][  1].d[  7] =        -0.293612096836;
  BAS[ATNO][  1].a[  8] =         0.656980000000;     BAS[ATNO][  1].d[  8] =         0.306226963115;
  BAS[ATNO][  1].a[  9] =         0.264590000000;     BAS[ATNO][  1].d[  9] =        -1.429901185198;
  BAS[ATNO][  1].a[ 10] =         0.105850000000;     BAS[ATNO][  1].d[ 10] =         1.864602091764;

  // Basis function   3 L = s
  InitBFNGauss(BAS[ATNO][  2]);
  BAS[ATNO][  2].l  = 0;
  BAS[ATNO][  2].ng = 11;
  BAS[ATNO][  2].a[  0] =      8780.200000000001;     BAS[ATNO][  2].d[  0] =        -0.000027218088;
  BAS[ATNO][  2].a[  1] =      1315.600000000000;     BAS[ATNO][  2].d[  1] =        -0.000211504445;
  BAS[ATNO][  2].a[  2] =       299.460000000000;     BAS[ATNO][  2].d[  2] =        -0.001110310170;
  BAS[ATNO][  2].a[  3] =        84.833000000000;     BAS[ATNO][  2].d[  3] =        -0.004656810018;
  BAS[ATNO][  2].a[  4] =        27.691000000000;     BAS[ATNO][  2].d[  4] =        -0.016544492047;
  BAS[ATNO][  2].a[  5] =        10.008000000000;     BAS[ATNO][  2].d[  5] =         0.014771169722;
  BAS[ATNO][  2].a[  6] =         3.892400000000;     BAS[ATNO][  2].d[  6] =        -0.336022178756;
  BAS[ATNO][  2].a[  7] =         1.581900000000;     BAS[ATNO][  2].d[  7] =         0.561431695697;
  BAS[ATNO][  2].a[  8] =         0.656980000000;     BAS[ATNO][  2].d[  8] =        -2.730563668874;
  BAS[ATNO][  2].a[  9] =         0.264590000000;     BAS[ATNO][  2].d[  9] =         4.103144029344;
  BAS[ATNO][  2].a[ 10] =         0.105850000000;     BAS[ATNO][  2].d[ 10] =        -1.853868567696;

  // Basis function   4 L = s
  InitBFNGauss(BAS[ATNO][  3]);
  BAS[ATNO][  3].l  = 0;
  BAS[ATNO][  3].ng = 11;
  BAS[ATNO][  3].a[  0] =      8780.200000000001;     BAS[ATNO][  3].d[  0] =        -0.000011239343;
  BAS[ATNO][  3].a[  1] =      1315.600000000000;     BAS[ATNO][  3].d[  1] =        -0.000087337915;
  BAS[ATNO][  3].a[  2] =       299.460000000000;     BAS[ATNO][  3].d[  2] =        -0.000458487647;
  BAS[ATNO][  3].a[  3] =        84.833000000000;     BAS[ATNO][  3].d[  3] =        -0.001922967046;
  BAS[ATNO][  3].a[  4] =        27.691000000000;     BAS[ATNO][  3].d[  4] =        -0.006831825407;
  BAS[ATNO][  3].a[  5] =        10.008000000000;     BAS[ATNO][  3].d[  5] =        -0.240008059626;
  BAS[ATNO][  3].a[  6] =         3.892400000000;     BAS[ATNO][  3].d[  6] =         0.614213723190;
  BAS[ATNO][  3].a[  7] =         1.581900000000;     BAS[ATNO][  3].d[  7] =        -3.553486817576;
  BAS[ATNO][  3].a[  8] =         0.656980000000;     BAS[ATNO][  3].d[  8] =         5.503228575569;
  BAS[ATNO][  3].a[  9] =         0.264590000000;     BAS[ATNO][  3].d[  9] =        -3.630640222796;
  BAS[ATNO][  3].a[ 10] =         0.105850000000;     BAS[ATNO][  3].d[ 10] =         1.109506109128;

  // Basis function   5 L = s
  InitBFNGauss(BAS[ATNO][  4]);
  BAS[ATNO][  4].l  = 0;
  BAS[ATNO][  4].ng = 11;
  BAS[ATNO][  4].a[  0] =      8780.200000000001;     BAS[ATNO][  4].d[  0] =        -0.000127876707;
  BAS[ATNO][  4].a[  1] =      1315.600000000000;     BAS[ATNO][  4].d[  1] =        -0.000993695497;
  BAS[ATNO][  4].a[  2] =       299.460000000000;     BAS[ATNO][  4].d[  2] =        -0.005216487136;
  BAS[ATNO][  4].a[  3] =        84.833000000000;     BAS[ATNO][  4].d[  3] =        -0.021878741832;
  BAS[ATNO][  4].a[  4] =        27.691000000000;     BAS[ATNO][  4].d[  4] =        -0.077729748224;
  BAS[ATNO][  4].a[  5] =        10.008000000000;     BAS[ATNO][  4].d[  5] =         0.434385625300;
  BAS[ATNO][  4].a[  6] =         3.892400000000;     BAS[ATNO][  4].d[  6] =        -3.604302416703;
  BAS[ATNO][  4].a[  7] =         1.581900000000;     BAS[ATNO][  4].d[  7] =         5.895666433153;
  BAS[ATNO][  4].a[  8] =         0.656980000000;     BAS[ATNO][  4].d[  8] =        -4.584898387716;
  BAS[ATNO][  4].a[  9] =         0.264590000000;     BAS[ATNO][  4].d[  9] =         2.211479127832;
  BAS[ATNO][  4].a[ 10] =         0.105850000000;     BAS[ATNO][  4].d[ 10] =        -0.617483891014;

  // Basis function   6 L = s
  InitBFNGauss(BAS[ATNO][  5]);
  BAS[ATNO][  5].l  = 0;
  BAS[ATNO][  5].ng = 11;
  BAS[ATNO][  5].a[  0] =      8780.200000000001;     BAS[ATNO][  5].d[  0] =         0.000105421164;
  BAS[ATNO][  5].a[  1] =      1315.600000000000;     BAS[ATNO][  5].d[  1] =         0.000819199515;
  BAS[ATNO][  5].a[  2] =       299.460000000000;     BAS[ATNO][  5].d[  2] =         0.004300455969;
  BAS[ATNO][  5].a[  3] =        84.833000000000;     BAS[ATNO][  5].d[  3] =         0.018036767551;
  BAS[ATNO][  5].a[  4] =        27.691000000000;     BAS[ATNO][  5].d[  4] =         0.064080165637;
  BAS[ATNO][  5].a[  5] =        10.008000000000;     BAS[ATNO][  5].d[  5] =        -2.955953632821;
  BAS[ATNO][  5].a[  6] =         3.892400000000;     BAS[ATNO][  5].d[  6] =         5.150628087306;
  BAS[ATNO][  5].a[  7] =         1.581900000000;     BAS[ATNO][  5].d[  7] =        -4.489019688741;
  BAS[ATNO][  5].a[  8] =         0.656980000000;     BAS[ATNO][  5].d[  8] =         2.720958995604;
  BAS[ATNO][  5].a[  9] =         0.264590000000;     BAS[ATNO][  5].d[  9] =        -1.228131070832;
  BAS[ATNO][  5].a[ 10] =         0.105850000000;     BAS[ATNO][  5].d[ 10] =         0.342649835547;

  // Basis function   7 L = s
  InitBFNGauss(BAS[ATNO][  6]);
  BAS[ATNO][  6].l  = 0;
  BAS[ATNO][  6].ng = 11;
  BAS[ATNO][  6].a[  0] =      8780.200000000001;     BAS[ATNO][  6].d[  0] =        -0.002578527277;
  BAS[ATNO][  6].a[  1] =      1315.600000000000;     BAS[ATNO][  6].d[  1] =        -0.020037041950;
  BAS[ATNO][  6].a[  2] =       299.460000000000;     BAS[ATNO][  6].d[  2] =        -0.105186117809;
  BAS[ATNO][  6].a[  3] =        84.833000000000;     BAS[ATNO][  6].d[  3] =        -0.441166604209;
  BAS[ATNO][  6].a[  4] =        27.691000000000;     BAS[ATNO][  6].d[  4] =        -1.567355624622;
  BAS[ATNO][  6].a[  5] =        10.008000000000;     BAS[ATNO][  6].d[  5] =         3.422241026070;
  BAS[ATNO][  6].a[  6] =         3.892400000000;     BAS[ATNO][  6].d[  6] =        -3.388188686912;
  BAS[ATNO][  6].a[  7] =         1.581900000000;     BAS[ATNO][  6].d[  7] =         2.473788738580;
  BAS[ATNO][  6].a[  8] =         0.656980000000;     BAS[ATNO][  6].d[  8] =        -1.459573881191;
  BAS[ATNO][  6].a[  9] =         0.264590000000;     BAS[ATNO][  6].d[  9] =         0.667861030670;
  BAS[ATNO][  6].a[ 10] =         0.105850000000;     BAS[ATNO][  6].d[ 10] =        -0.189232050563;

  // Basis function   8 L = p
  InitBFNGauss(BAS[ATNO][  7]);
  BAS[ATNO][  7].l  = 1;
  BAS[ATNO][  7].ng = 6;
  BAS[ATNO][  7].a[  0] =        40.500000000000;     BAS[ATNO][  7].d[  0] =        -0.000599066868;
  BAS[ATNO][  7].a[  1] =         8.900000000000;     BAS[ATNO][  7].d[  1] =         0.009521643542;
  BAS[ATNO][  7].a[  2] =         2.850000000000;     BAS[ATNO][  7].d[  2] =        -0.045568810034;
  BAS[ATNO][  7].a[  3] =         1.300000000000;     BAS[ATNO][  7].d[  3] =         0.188613238546;
  BAS[ATNO][  7].a[  4] =         0.600000000000;     BAS[ATNO][  7].d[  4] =        -0.284877489830;
  BAS[ATNO][  7].a[  5] =         0.200000000000;     BAS[ATNO][  7].d[  5] =         1.129427769055;

  // Basis function   9 L = p
  InitBFNGauss(BAS[ATNO][  8]);
  BAS[ATNO][  8].l  = 1;
  BAS[ATNO][  8].ng = 6;
  BAS[ATNO][  8].a[  0] =        40.500000000000;     BAS[ATNO][  8].d[  0] =         0.003587543530;
  BAS[ATNO][  8].a[  1] =         8.900000000000;     BAS[ATNO][  8].d[  1] =        -0.025114537313;
  BAS[ATNO][  8].a[  2] =         2.850000000000;     BAS[ATNO][  8].d[  2] =         0.242674884250;
  BAS[ATNO][  8].a[  3] =         1.300000000000;     BAS[ATNO][  8].d[  3] =        -0.703737819920;
  BAS[ATNO][  8].a[  4] =         0.600000000000;     BAS[ATNO][  8].d[  4] =         1.970099114066;
  BAS[ATNO][  8].a[  5] =         0.200000000000;     BAS[ATNO][  8].d[  5] =        -1.060198738458;

  // Basis function  10 L = p
  InitBFNGauss(BAS[ATNO][  9]);
  BAS[ATNO][  9].l  = 1;
  BAS[ATNO][  9].ng = 6;
  BAS[ATNO][  9].a[  0] =        40.500000000000;     BAS[ATNO][  9].d[  0] =        -0.006789073924;
  BAS[ATNO][  9].a[  1] =         8.900000000000;     BAS[ATNO][  9].d[  1] =         0.103973528935;
  BAS[ATNO][  9].a[  2] =         2.850000000000;     BAS[ATNO][  9].d[  2] =        -0.591382619761;
  BAS[ATNO][  9].a[  3] =         1.300000000000;     BAS[ATNO][  9].d[  3] =         2.822360718254;
  BAS[ATNO][  9].a[  4] =         0.600000000000;     BAS[ATNO][  9].d[  4] =        -2.446611006987;
  BAS[ATNO][  9].a[  5] =         0.200000000000;     BAS[ATNO][  9].d[  5] =         0.682111506906;

  // Basis function  11 L = p
  InitBFNGauss(BAS[ATNO][ 10]);
  BAS[ATNO][ 10].l  = 1;
  BAS[ATNO][ 10].ng = 6;
  BAS[ATNO][ 10].a[  0] =        40.500000000000;     BAS[ATNO][ 10].d[  0] =        -0.026628186930;
  BAS[ATNO][ 10].a[  1] =         8.900000000000;     BAS[ATNO][ 10].d[  1] =         0.210414542373;
  BAS[ATNO][ 10].a[  2] =         2.850000000000;     BAS[ATNO][ 10].d[  2] =        -2.669333135794;
  BAS[ATNO][ 10].a[  3] =         1.300000000000;     BAS[ATNO][ 10].d[  3] =         3.435701411035;
  BAS[ATNO][ 10].a[  4] =         0.600000000000;     BAS[ATNO][ 10].d[  4] =        -1.804405170643;
  BAS[ATNO][ 10].a[  5] =         0.200000000000;     BAS[ATNO][ 10].d[  5] =         0.403679901685;

  // Basis function  12 L = p
  InitBFNGauss(BAS[ATNO][ 11]);
  BAS[ATNO][ 11].l  = 1;
  BAS[ATNO][ 11].ng = 6;
  BAS[ATNO][ 11].a[  0] =        40.500000000000;     BAS[ATNO][ 11].d[  0] =         0.078577282886;
  BAS[ATNO][ 11].a[  1] =         8.900000000000;     BAS[ATNO][ 11].d[  1] =        -1.742930186484;
  BAS[ATNO][ 11].a[  2] =         2.850000000000;     BAS[ATNO][ 11].d[  2] =         2.450235519601;
  BAS[ATNO][ 11].a[  3] =         1.300000000000;     BAS[ATNO][ 11].d[  3] =        -2.107579579468;
  BAS[ATNO][ 11].a[  4] =         0.600000000000;     BAS[ATNO][ 11].d[  4] =         0.967891497017;
  BAS[ATNO][ 11].a[  5] =         0.200000000000;     BAS[ATNO][ 11].d[  5] =        -0.212496833761;

  // Basis function  13 L = p
  InitBFNGauss(BAS[ATNO][ 12]);
  BAS[ATNO][ 12].l  = 1;
  BAS[ATNO][ 12].ng = 6;
  BAS[ATNO][ 12].a[  0] =        40.500000000000;     BAS[ATNO][ 12].d[  0] =         1.253737978220;
  BAS[ATNO][ 12].a[  1] =         8.900000000000;     BAS[ATNO][ 12].d[  1] =        -1.067966566477;
  BAS[ATNO][ 12].a[  2] =         2.850000000000;     BAS[ATNO][ 12].d[  2] =         1.011910572340;
  BAS[ATNO][ 12].a[  3] =         1.300000000000;     BAS[ATNO][ 12].d[  3] =        -0.828850127458;
  BAS[ATNO][ 12].a[  4] =         0.600000000000;     BAS[ATNO][ 12].d[  4] =         0.385466470959;
  BAS[ATNO][ 12].a[  5] =         0.200000000000;     BAS[ATNO][ 12].d[  5] =        -0.087176795762;

  // Basis function  14 L = d
  InitBFNGauss(BAS[ATNO][ 13]);
  BAS[ATNO][ 13].l  = 2;
  BAS[ATNO][ 13].ng = 3;
  BAS[ATNO][ 13].a[  0] =         3.700000000000;     BAS[ATNO][ 13].d[  0] =         0.050556835835;
  BAS[ATNO][ 13].a[  1] =         1.200000000000;     BAS[ATNO][ 13].d[  1] =        -0.301774209625;
  BAS[ATNO][ 13].a[  2] =         0.500000000000;     BAS[ATNO][ 13].d[  2] =         1.190425304676;

  // Basis function  15 L = d
  InitBFNGauss(BAS[ATNO][ 14]);
  BAS[ATNO][ 14].l  = 2;
  BAS[ATNO][ 14].ng = 3;
  BAS[ATNO][ 14].a[  0] =         3.700000000000;     BAS[ATNO][ 14].d[  0] =        -0.146191671951;
  BAS[ATNO][ 14].a[  1] =         1.200000000000;     BAS[ATNO][ 14].d[  1] =         1.545824785955;
  BAS[ATNO][ 14].a[  2] =         0.500000000000;     BAS[ATNO][ 14].d[  2] =        -0.904570727918;

  // Basis function  16 L = d
  InitBFNGauss(BAS[ATNO][ 15]);
  BAS[ATNO][ 15].l  = 2;
  BAS[ATNO][ 15].ng = 3;
  BAS[ATNO][ 15].a[  0] =         3.700000000000;     BAS[ATNO][ 15].d[  0] =         1.325150779647;
  BAS[ATNO][ 15].a[  1] =         1.200000000000;     BAS[ATNO][ 15].d[  1] =        -1.031697771555;
  BAS[ATNO][ 15].a[  2] =         0.500000000000;     BAS[ATNO][ 15].d[  2] =         0.437928298121;

  // Basis function  17 L = f
  InitBFNGauss(BAS[ATNO][ 16]);
  BAS[ATNO][ 16].l  = 3;
  BAS[ATNO][ 16].ng = 2;
  BAS[ATNO][ 16].a[  0] =         4.100000000000;     BAS[ATNO][ 16].d[  0] =        -0.167244614775;
  BAS[ATNO][ 16].a[  1] =         1.500000000000;     BAS[ATNO][ 16].d[  1] =         1.087513514765;

  // Basis function  18 L = f
  InitBFNGauss(BAS[ATNO][ 17]);
  BAS[ATNO][ 17].l  = 3;
  BAS[ATNO][ 17].ng = 2;
  BAS[ATNO][ 17].a[  0] =         4.100000000000;     BAS[ATNO][ 17].d[  0] =         1.215158825524;
  BAS[ATNO][ 17].a[  1] =         1.500000000000;     BAS[ATNO][ 17].d[  1] =        -0.567358870225;

  // Basis function  19 L = g
  InitBFNGauss(BAS[ATNO][ 18]);
  BAS[ATNO][ 18].l  = 4;
  BAS[ATNO][ 18].ng = 1;
  BAS[ATNO][ 18].a[  0] =         4.650000000000;     BAS[ATNO][ 18].d[  0] =         1.000000000000;

-------
TIMINGS
-------

Total SCF time: 0 days 0 hours 0 min 1 sec 

Total time                  ....       1.214 sec
Sum of individual times     ....       1.030 sec  ( 84.9%)

Fock matrix formation       ....       0.763 sec  ( 62.8%)
  XC integration            ....       0.018 sec  (  2.4% of F)
    Basis function eval.    ....       0.002 sec  (  9.3% of XC)
    Density eval.           ....       0.001 sec  (  4.9% of XC)
    XC-Functional eval.     ....       0.001 sec  (  5.2% of XC)
    XC-Potential eval.      ....       0.001 sec  (  7.4% of XC)
Diagonalization             ....       0.001 sec  (  0.1%)
Density matrix formation    ....       0.001 sec  (  0.1%)
Population analysis         ....       0.001 sec  (  0.1%)
Initial guess               ....       0.093 sec  (  7.7%)
Orbital Transformation      ....       0.000 sec  (  0.0%)
Orbital Orthonormalization  ....       0.000 sec  (  0.0%)
DIIS solution               ....       0.000 sec  (  0.0%)
SOSCF solution              ....       0.001 sec  (  0.1%)
Grid generation             ....       0.171 sec  ( 14.1%)

-------------------------   --------------------
FINAL SINGLE POINT ENERGY        -2.839285031326
-------------------------   --------------------


                            ***************************************
                            *     ORCA property calculations      *
                            ***************************************

                                    ---------------------
                                    Active property flags
                                    ---------------------
   (+) Dipole Moment


------------------------------------------------------------------------------
                       ORCA ELECTRIC PROPERTIES CALCULATION
------------------------------------------------------------------------------

Dipole Moment Calculation                       ... on
Quadrupole Moment Calculation                   ... off
Polarizability Calculation                      ... off
GBWName                                         ... He_pc-4_34.25899725_.gbw
Electron density file                           ... He_pc-4_34.25899725_.scfp
The origin for moment calculation is the CENTER OF MASS  = ( 0.000000,  0.000000  0.000000)

-------------
DIPOLE MOMENT
-------------
                                X             Y             Z
Electronic contribution:     -0.00000      -0.00000       0.00000
Nuclear contribution   :      0.00000       0.00000       0.00000
                        -----------------------------------------
Total Dipole Moment    :     -0.00000      -0.00000       0.00000
                        -----------------------------------------
Magnitude (a.u.)       :      0.00000
Magnitude (Debye)      :      0.00000



--------------------
Rotational spectrum 
--------------------
 
Rotational constants in cm-1:     0.000000     0.000000     0.000000 
Rotational constants in MHz :     0.000000     0.000000     0.000000 

 Dipole components along the rotational axes: 
x,y,z [a.u.] :    -0.000000    -0.000000     0.000000 
x,y,z [Debye]:    -0.000000    -0.000000     0.000000 

 

Timings for individual modules:

Sum of individual times         ...        2.241 sec (=   0.037 min)
GTO integral calculation        ...        0.494 sec (=   0.008 min)  22.0 %
Relativistic integrals          ...        0.280 sec (=   0.005 min)  12.5 %
SCF iterations                  ...        1.468 sec (=   0.024 min)  65.5 %
                             ****ORCA TERMINATED NORMALLY****
TOTAL RUN TIME: 0 days 0 hours 0 minutes 2 seconds 544 msec
