
                                 *****************
                                 * O   R   C   A *
                                 *****************

           --- An Ab Initio, DFT and Semiempirical electronic structure package ---

                  #######################################################
                  #                        -***-                        #
                  #          Department of theory and spectroscopy      #
                  #               Directorship: Frank Neese             #
                  #        Max Planck Institute fuer Kohlenforschung    #
                  #                Kaiser Wilhelm Platz 1               #
                  #                 D-45470 Muelheim/Ruhr               #
                  #                      Germany                        #
                  #                                                     #
                  #                  All rights reserved                #
                  #                        -***-                        #
                  #######################################################


                         Program Version 4.2.1 -  RELEASE  -


 With contributions from (in alphabetic order):
   Daniel Aravena         : Magnetic Suceptibility
   Michael Atanasov       : Ab Initio Ligand Field Theory (pilot matlab implementation)
   Alexander A. Auer      : GIAO ZORA, VPT2
   Ute Becker             : Parallelization
   Giovanni Bistoni       : ED, misc. LED, open-shell LED, HFLD
   Martin Brehm           : Molecular dynamics
   Dmytro Bykov           : SCF Hessian
   Vijay G. Chilkuri      : MRCI spin determinant printing, contributions to CSF-ICE
   Dipayan Datta          : RHF DLPNO-CCSD density
   Achintya Kumar Dutta   : EOM-CC, STEOM-CC
   Dmitry Ganyushin       : Spin-Orbit,Spin-Spin,Magnetic field MRCI
   Miquel Garcia          : C-PCM Hessian, Gaussian charge scheme
   Yang Guo               : DLPNO-NEVPT2, CIM, IAO-localization
   Andreas Hansen         : Spin unrestricted coupled pair/coupled cluster methods
   Benjamin Helmich-Paris : CASSCF linear response (MC-RPA)
   Lee Huntington         : MR-EOM, pCC
   Robert Izsak           : Overlap fitted RIJCOSX, COSX-SCS-MP3, EOM
   Christian Kollmar      : KDIIS, OOCD, Brueckner-CCSD(T), CCSD density
   Simone Kossmann        : Meta GGA functionals, TD-DFT gradient, OOMP2, MP2 Hessian
   Martin Krupicka        : AUTO-CI
   Lucas Lang             : DCDCAS
   Dagmar Lenk            : GEPOL surface, SMD
   Dimitrios Liakos       : Extrapolation schemes; Compound Job, initial MDCI parallelization
   Dimitrios Manganas     : Further ROCIS development; embedding schemes
   Dimitrios Pantazis     : SARC Basis sets
   Taras Petrenko         : DFT Hessian,TD-DFT gradient, ASA, ECA, R-Raman, ABS, FL, XAS/XES, NRVS
   Peter Pinski           : DLPNO-MP2, DLPNO-MP2 Gradient
   Christoph Reimann      : Effective Core Potentials
   Marius Retegan         : Local ZFS, SOC
   Christoph Riplinger    : Optimizer, TS searches, QM/MM, DLPNO-CCSD(T), (RO)-DLPNO pert. Triples
   Tobias Risthaus        : Range-separated hybrids, TD-DFT gradient, RPA, STAB
   Michael Roemelt        : Original ROCIS implementation
   Masaaki Saitow         : Open-shell DLPNO-CCSD energy and density
   Barbara Sandhoefer     : DKH picture change effects
   Avijit Sen             : IP-ROCIS
   Kantharuban Sivalingam : CASSCF convergence, NEVPT2, FIC-MRCI
   Bernardo de Souza      : ESD, SOC TD-DFT
   Georgi Stoychev        : AutoAux, RI-MP2 NMR
   Willem Van den Heuvel  : Paramagnetic NMR
   Boris Wezisla          : Elementary symmetry handling
   Frank Wennmohs         : Technical directorship


 We gratefully acknowledge several colleagues who have allowed us to
 interface, adapt or use parts of their codes:
   Stefan Grimme, W. Hujo, H. Kruse,             : VdW corrections, initial TS optimization,
                  C. Bannwarth                     DFT functionals, gCP, sTDA/sTD-DF
   Ed Valeev, F. Pavosevic, A. Kumar             : LibInt (2-el integral package), F12 methods
   Garnet Chan, S. Sharma, J. Yang, R. Olivares  : DMRG
   Ulf Ekstrom                                   : XCFun DFT Library
   Mihaly Kallay                                 : mrcc  (arbitrary order and MRCC methods)
   Andreas Klamt, Michael Diedenhofen            : otool_cosmo (COSMO solvation model)
   Jiri Pittner, Ondrej Demel                    : Mk-CCSD
   Frank Weinhold                                : gennbo (NPA and NBO analysis)
   Christopher J. Cramer and Donald G. Truhlar   : smd solvation model
   Lars Goerigk                                  : TD-DFT with DH, B97 family of functionals
   V. Asgeirsson, H. Jonsson                     : NEB implementation
   FAccTs GmbH                                   : IRC, NEB, NEB-TS, Multilevel, MM, QM/MM, CI optimization
   S Lehtola, MJT Oliveira, MAL Marques          : LibXC Library


 Your calculation uses the libint2 library for the computation of 2-el integrals
 For citations please refer to: http://libint.valeyev.net

 Your ORCA version has been built with support for libXC version: 4.2.3
 For citations please refer to: https://tddft.org/programs/libxc/

 This ORCA versions uses:
   CBLAS   interface :  Fast vector & matrix operations
   LAPACKE interface :  Fast linear algebra routines
   SCALAPACK package :  Parallel linear algebra routines


----- Orbital basis set information -----
Your calculation utilizes the basis: pc-3
   H, C-F              : F. Jensen, J. Chem. Phys. 115, 9113 (2001).
                         F. Jensen, J. Chem. Phys. 116, 7372 (2002).
                         F. Jensen, J. Chem. Phys. 117, 9234 (2002).
   Si-Cl               : F. Jensen, T. Helgaker, J. Chem. Phys. 121, 3463 (2004).
   He-B, Ne-Mg, Al, Ar : F. Jensen, J. Phys. Chem. A 111, 11198 (2007).
   K, Ca, Ga-Kr        : F. Jensen, J. Chem. Phys. 136, 094110 (2012).
   Sc-Zn               : F. Jensen, J. Chem. Phys. 138, 014107 (2013).

================================================================================
                                        WARNINGS
                       Please study these warnings very carefully!
================================================================================


INFO   : the flag for use of LIBINT has been found!

================================================================================
                                       INPUT FILE
================================================================================
NAME = He_pc-3_2192.575824_.inp
|  1> ! LDA pc-3 nori grid5 finalgrid6 verytightscf
|  2> %Pal NProcs 18 End
|  3> 
|  4> % REL
|  5>   Method ZORA
|  6>   ModelPot 1, 0, 0, 0
|  7>   velit 2192.575824
|  8> END
|  9> 
| 10> *xyz 0 1
| 11> He 0.0 0.0 0.0
| 12> **                         ****END OF INPUT****
================================================================================

                       ****************************
                       * Single Point Calculation *
                       ****************************

---------------------------------
CARTESIAN COORDINATES (ANGSTROEM)
---------------------------------
  He     0.000000    0.000000    0.000000

----------------------------
CARTESIAN COORDINATES (A.U.)
----------------------------
  NO LB      ZA    FRAG     MASS         X           Y           Z
   0 He    2.0000    0     4.003    0.000000    0.000000    0.000000

--------------------------------
INTERNAL COORDINATES (ANGSTROEM)
--------------------------------
 He     0   0   0     0.000000000000     0.00000000     0.00000000

---------------------------
INTERNAL COORDINATES (A.U.)
---------------------------
 He     0   0   0     0.000000000000     0.00000000     0.00000000

---------------------
BASIS SET INFORMATION
---------------------
There are 1 groups of distinct atoms

 Group   1 Type He  : 9s4p2d1f contracted to 5s4p2d1f pattern {51111/1111/11/1}

Atom   0He   basis set group =>   1


           ************************************************************
           *        Program running with 18 parallel MPI-processes    *
           *              working on a common directory               *
           ************************************************************
------------------------------------------------------------------------------
                           ORCA GTO INTEGRAL CALCULATION
------------------------------------------------------------------------------

                         BASIS SET STATISTICS AND STARTUP INFO

 # of primitive gaussian shells          ...   16
 # of primitive gaussian functions       ...   38
 # of contracted shells                  ...   12
 # of contracted basis functions         ...   34
 Highest angular momentum                ...    3
 Maximum contraction depth               ...    5
 Integral package used                   ... LIBINT
 Integral threshhold            Thresh   ...  1.000e-12
 Primitive cut-off              TCut     ...  1.000e-14


------------------------------ INTEGRAL EVALUATION ----------------------------


 * One electron integrals 
 Pre-screening matrix                    ... done
 Shell pair data                         ... done (   0.000 sec)



           ************************************************************
           *        Program running with 18 parallel MPI-processes    *
           *              working on a common directory               *
           ************************************************************
------------------------------------------------------------------------------
                          ORCA RELATIVISTIC HAMILTONIAN
------------------------------------------------------------------------------

Relativistic Method            ... ZORA(MP)
Treatment of potential         ... Van Wuellen
Nucleus model                  ... Point Nucleus
Speed of light used            ... 2192.57582400000001


            *************************************************
            *         ZERO ORDER REGULAR APPROXIMATION      *
            *                     ZORA(MP)                  *
            *            Programmed by FN according to      *
            *                   C. van Wuellen              *
            *       J. Chem. Phys. (1998) vol 109, 392-399  *
            *************************************************

Terms included in model potential: +V(e,N)
Basis function cutoff value   ... 1.000000e-12
Loading the fitted atomic densities  (DKH4)  ... done
Calculating the cutoffs                      ... done
Number of fit functions                      ... 6
Setting up the integration grid ... done


           ************************************************************
           *        Program running with 18 parallel MPI-processes    *
           *              working on a common directory               *
           ************************************************************
-------------------------------------------------------------------------------
                                 ORCA SCF
-------------------------------------------------------------------------------

------------
SCF SETTINGS
------------
Hamiltonian:
 Density Functional     Method          .... DFT(GTOs)
 Exchange Functional    Exchange        .... Slater
   X-Alpha parameter    XAlpha          ....  0.666667
 Correlation Functional Correlation     .... VWN-5
 Gradients option       PostSCFGGA      .... off
   Density functional embedding theory  .... OFF

Relativistic Settings:
 Scalar relativistic method             .... ZORA
 Speed of light used       Velit        ....       2192.57582
Orbital energies will be scaled


General Settings:
 Integral files         IntName         .... He_pc-3_2192.575824_
 Hartree-Fock type      HFTyp           .... RHF
 Total Charge           Charge          ....    0
 Multiplicity           Mult            ....    1
 Number of Electrons    NEL             ....    2
 Basis Dimension        Dim             ....   34
 Nuclear Repulsion      ENuc            ....      0.0000000000 Eh

Convergence Acceleration:
 DIIS                   CNVDIIS         .... on
   Start iteration      DIISMaxIt       ....    12
   Startup error        DIISStart       ....  0.200000
   # of expansion vecs  DIISMaxEq       ....     5
   Bias factor          DIISBfac        ....   1.050
   Max. coefficient     DIISMaxC        ....  10.000
 Newton-Raphson         CNVNR           .... off
 SOSCF                  CNVSOSCF        .... on
   Start iteration      SOSCFMaxIt      ....   150
   Startup grad/error   SOSCFStart      ....  0.003300
 Level Shifting         CNVShift        .... on
   Level shift para.    LevelShift      ....    0.2500
   Turn off err/grad.   ShiftErr        ....    0.0010
 Zerner damping         CNVZerner       .... off
 Static damping         CNVDamp         .... on
   Fraction old density DampFac         ....    0.7000
   Max. Damping (<1)    DampMax         ....    0.9800
   Min. Damping (>=0)   DampMin         ....    0.0000
   Turn off err/grad.   DampErr         ....    0.1000
 Fernandez-Rico         CNVRico         .... off

SCF Procedure:
 Maximum # iterations   MaxIter         ....   125
 SCF integral mode      SCFMode         .... Direct
   Integral package                     .... LIBINT
 Reset frequency        DirectResetFreq ....    20
 Integral Threshold     Thresh          ....  1.000e-12 Eh
 Primitive CutOff       TCut            ....  1.000e-14 Eh

Convergence Tolerance:
 Convergence Check Mode ConvCheckMode   .... Total+1el-Energy
 Convergence forced     ConvForced      .... 0
 Energy Change          TolE            ....  1.000e-09 Eh
 1-El. energy change                    ....  1.000e-06 Eh
 Orbital Gradient       TolG            ....  2.000e-06
 Orbital Rotation angle TolX            ....  2.000e-06
 DIIS Error             TolErr          ....  1.000e-08


Diagonalization of the overlap matrix:
Smallest eigenvalue                        ... 1.755e-02
Time for diagonalization                   ...    0.001 sec
Threshold for overlap eigenvalues          ... 1.000e-08
Number of eigenvalues below threshold      ... 0
Time for construction of square roots      ...    0.001 sec
Total time needed                          ...    0.002 sec

-------------------
DFT GRID GENERATION
-------------------

General Integration Accuracy     IntAcc      ...  5.010
Radial Grid Type                 RadialGrid  ... Gauss-Chebyshev
Angular Grid (max. acc.)         AngularGrid ... Lebedev-434
Angular grid pruning method      GridPruning ... 3 (G Style)
Weight generation scheme         WeightScheme... Becke
Basis function cutoff            BFCut       ...    1.0000e-12
Integration weight cutoff        WCut        ...    1.0000e-14
Grids for H and He will be reduced by one unit

# of grid points (after initial pruning)     ...   6764 (   0.0 sec)
# of grid points (after weights+screening)   ...   6764 (   0.0 sec)
Grid point division into batches done        ...    0.0 sec
Reduced shell lists constructed in    0.0 sec

Total number of grid points                  ...     6764
Total number of batches                      ...      106
Average number of points per batch           ...       63
Average number of grid points per atom       ...     6764
Average number of shells per batch           ...     0.86 ( 7.14%)
Average number of basis functions per batch  ...     0.86 ( 2.52%)
Average number of large shells per batch     ...     0.86 (100.00%)
Average number of large basis fcns per batch ...     0.86 (100.00%)
Maximum spatial batch extension              ...  15.22, 15.22, 15.22 au
Average spatial batch extension              ...   0.77,  0.77,  0.77 au

Time for grid setup =    0.055 sec

------------------------------
INITIAL GUESS: MODEL POTENTIAL
------------------------------
Loading ZORA relativistic densities                ... done
Calculating cut-offs                               ... done
Setting up the integral package                    ... done
Initializing the effective Hamiltonian             ... done
Starting the Coulomb interaction                   ... done (   0.0 sec)
Reading the grid                                   ... done
Mapping shells                                     ... done
Starting the XC term evaluation                    ... done (   0.0 sec)
  promolecular density results
     # of electrons  =      1.999920377
     EX              =     -0.884114011
     EC              =     -0.112857661
     EX+EC           =     -0.996971673
Transforming the Hamiltonian                       ... done (   0.0 sec)
Diagonalizing the Hamiltonian                      ... done (   0.0 sec)
Back transforming the eigenvectors                 ... done (   0.0 sec)
Now organizing SCF variables                       ... done
                      ------------------
                      INITIAL GUESS DONE (   0.1 sec)
                      ------------------
--------------
SCF ITERATIONS
--------------
ITER       Energy         Delta-E        Max-DP      RMS-DP      [F,P]     Damp
               ***  Starting incremental Fock matrix formation  ***
  0     -2.8345596759   0.000000000000 0.00198614  0.00012378  0.0311373 0.7000
                      *** Initiating the SOSCF procedure ***
                      *** Re-Reading the Fockian *** 
                      *** Removing any level shift *** 
ITER      Energy       Delta-E        Grad      Rot      Max-DP    RMS-DP
  1     -2.83465444  -0.0000947634  0.001163  0.001163  0.005689  0.000329
               *** Restarting incremental Fock matrix formation ***
  2     -2.83479555  -0.0001411137  0.003042  0.002597  0.002103  0.000128
  3     -2.83480877  -0.0000132207  0.001221  0.000829  0.000682  0.000039
  4     -2.83481169  -0.0000029197  0.000003  0.000001  0.000005  0.000000
                 **** Energy Check signals convergence ****
              ***Rediagonalizing the Fockian in SOSCF/NRSCF***

               *****************************************************
               *                     SUCCESS                       *
               *           SCF CONVERGED AFTER   5 CYCLES          *
               *****************************************************

Setting up the final grid:

General Integration Accuracy     IntAcc      ...  5.340
Radial Grid Type                 RadialGrid  ... Gauss-Chebyshev
Angular Grid (max. acc.)         AngularGrid ... Lebedev-590
Angular grid pruning method      GridPruning ... 3 (G Style)
Weight generation scheme         WeightScheme... Becke
Basis function cutoff            BFCut       ...    1.0000e-12
Integration weight cutoff        WCut        ...    1.0000e-14
Grids for H and He will be reduced by one unit

# of grid points (after initial pruning)     ...  11406 (   0.0 sec)
# of grid points (after weights+screening)   ...  11406 (   0.0 sec)
Grid point division into batches done        ...    0.1 sec
Reduced shell lists constructed in    0.1 sec

Total number of grid points                  ...    11406
Total number of batches                      ...      179
Average number of points per batch           ...       63
Average number of grid points per atom       ...    11406
Average number of shells per batch           ...     0.36 ( 3.03%)
Average number of basis functions per batch  ...     0.36 ( 1.07%)
Average number of large shells per batch     ...     0.36 (100.00%)
Average number of large basis fcns per batch ...     0.36 (100.00%)
Maximum spatial batch extension              ...  16.29, 16.29, 16.29 au
Average spatial batch extension              ...   0.81,  0.81,  0.81 au

Final grid set up in    0.1 sec
Final integration                            ... done (   0.0 sec)
Change in XC energy                          ...    -0.000000003
Integrated number of electrons               ...     2.000000000
Previous integrated no of electrons          ...     1.999999998

----------------
TOTAL SCF ENERGY
----------------

Total Energy       :           -2.83481170 Eh             -77.13915 eV

Components:
Nuclear Repulsion  :            0.00000000 Eh               0.00000 eV
Electronic Energy  :           -2.83481170 Eh             -77.13915 eV
One Electron Energy:           -3.85764332 Eh            -104.97181 eV
Two Electron Energy:            1.02283163 Eh              27.83266 eV

Virial components:
Potential Energy   :           -5.60280552 Eh            -152.46009 eV
Kinetic Energy     :            2.76799383 Eh              75.32094 eV
Virial Ratio       :            2.02413946


DFT components:
N(Alpha)           :        0.999999999869 electrons
N(Beta)            :        0.999999999869 electrons
N(Total)           :        1.999999999738 electrons
E(X)               :       -0.861850097604 Eh       
E(C)               :       -0.111469030384 Eh       
E(XC)              :       -0.973319127988 Eh       
DFET-embed. en.    :        0.000000000000 Eh       

---------------
SCF CONVERGENCE
---------------

  Last Energy change         ...   -4.5497e-12  Tolerance :   1.0000e-09
  Last MAX-Density change    ...    1.4906e-07  Tolerance :   1.0000e-08
  Last RMS-Density change    ...    5.7591e-09  Tolerance :   1.0000e-09
  Last Orbital Gradient      ...    3.4290e-08  Tolerance :   2.0000e-06
  Last Orbital Rotation      ...    2.0529e-08  Tolerance :   2.0000e-06

             **** THE GBW FILE WAS UPDATED (He_pc-3_2192.575824_.gbw) ****
             **** DENSITY FILE WAS UPDATED (He_pc-3_2192.575824_.scfp) ****
             **** ENERGY FILE WAS UPDATED (He_pc-3_2192.575824_.en.tmp) ****
             **** THE GBW FILE WAS UPDATED (He_pc-3_2192.575824_.gbw) ****
             **** DENSITY FILE WAS UPDATED (He_pc-3_2192.575824_.scfp) ****
----------------
ORBITAL ENERGIES
----------------

  NO   OCC          E(Eh)            E(eV) 
   0   2.0000      -0.570398       -15.5213 
   1   0.0000       0.182860         4.9759 
   2   0.0000       0.454303        12.3622 
   3   0.0000       0.454303        12.3622 
   4   0.0000       0.454303        12.3622 
   5   0.0000       1.265293        34.4304 
   6   0.0000       2.207837        60.0783 
   7   0.0000       2.207837        60.0783 
   8   0.0000       2.207837        60.0783 
   9   0.0000       2.990906        81.3867 
  10   0.0000       2.990906        81.3867 
  11   0.0000       2.990906        81.3867 
  12   0.0000       2.990906        81.3867 
  13   0.0000       2.990906        81.3867 
  14   0.0000       4.874559       132.6435 
  15   0.0000       7.554286       205.5626 
  16   0.0000       7.554286       205.5626 
  17   0.0000       7.554286       205.5626 
  18   0.0000      11.965903       325.6088 
  19   0.0000      11.965903       325.6088 
  20   0.0000      11.965903       325.6088 
  21   0.0000      11.965903       325.6088 
  22   0.0000      11.965903       325.6088 
  23   0.0000      13.197515       359.1227 
  24   0.0000      13.197515       359.1227 
  25   0.0000      13.197515       359.1227 
  26   0.0000      13.197515       359.1227 
  27   0.0000      13.197515       359.1227 
  28   0.0000      13.197515       359.1227 
  29   0.0000      13.197515       359.1227 
  30   0.0000      21.280051       579.0596 
  31   0.0000      29.908661       813.8560 
  32   0.0000      29.908661       813.8560 
  33   0.0000      29.908661       813.8560 

                    ********************************
                    * MULLIKEN POPULATION ANALYSIS *
                    ********************************

-----------------------
MULLIKEN ATOMIC CHARGES
-----------------------
   0 He:    0.000000
Sum of atomic charges:    0.0000000

--------------------------------
MULLIKEN REDUCED ORBITAL CHARGES
--------------------------------
  0 Hes       :     2.000000  s :     2.000000
      pz      :     0.000000  p :     0.000000
      px      :     0.000000
      py      :     0.000000
      dz2     :     0.000000  d :     0.000000
      dxz     :     0.000000
      dyz     :     0.000000
      dx2y2   :     0.000000
      dxy     :     0.000000
      f0      :     0.000000  f :     0.000000
      f+1     :     0.000000
      f-1     :     0.000000
      f+2     :     0.000000
      f-2     :     0.000000
      f+3     :     0.000000
      f-3     :     0.000000


                     *******************************
                     * LOEWDIN POPULATION ANALYSIS *
                     *******************************

----------------------
LOEWDIN ATOMIC CHARGES
----------------------
   0 He:    0.000000

-------------------------------
LOEWDIN REDUCED ORBITAL CHARGES
-------------------------------
  0 Hes       :     2.000000  s :     2.000000
      pz      :     0.000000  p :     0.000000
      px      :     0.000000
      py      :     0.000000
      dz2     :     0.000000  d :     0.000000
      dxz     :     0.000000
      dyz     :     0.000000
      dx2y2   :     0.000000
      dxy     :     0.000000
      f0      :     0.000000  f :     0.000000
      f+1     :     0.000000
      f-1     :     0.000000
      f+2     :     0.000000
      f-2     :     0.000000
      f+3     :     0.000000
      f-3     :     0.000000


                      *****************************
                      * MAYER POPULATION ANALYSIS *
                      *****************************

  NA   - Mulliken gross atomic population
  ZA   - Total nuclear charge
  QA   - Mulliken gross atomic charge
  VA   - Mayer's total valence
  BVA  - Mayer's bonded valence
  FA   - Mayer's free valence

  ATOM       NA         ZA         QA         VA         BVA        FA
  0 He     2.0000     2.0000     0.0000     0.0000     0.0000     0.0000

  Mayer bond orders larger than 0.100000


--------------------------
ATOM BASIS FOR ELEMENT He
--------------------------
 NewGTO He
 S 9
    1       2167.400000000000         0.000160868812
    2        324.990000000000         0.001247792808
    3         73.994000000000         0.006498562446
    4         20.975000000000         0.026401425488
    5          6.845200000000         0.084484179238
    6          2.439400000000         0.203291803329
    7          0.902510000000         0.351691156872
    8          0.333130000000         0.374507346553
    9          0.124130000000         0.135679938793
 S 9
    1       2167.400000000000         0.000061469770
    2        324.990000000000         0.000476795569
    3         73.994000000000         0.002483173297
    4         20.975000000000         0.010088279573
    5          6.845200000000         0.032282348544
    6          2.439400000000         0.172346908145
    7          0.902510000000        -0.096860414334
    8          0.333130000000         1.266040556613
    9          0.124130000000        -1.743152132407
 S 9
    1       2167.400000000000         0.000192409287
    2        324.990000000000         0.001492439222
    3         73.994000000000         0.007772692246
    4         20.975000000000         0.031577776910
    5          6.845200000000         0.101048428826
    6          2.439400000000        -0.116171803342
    7          0.902510000000         2.115031676565
    8          0.333130000000        -3.348204904004
    9          0.124130000000         1.510790486789
 S 9
    1       2167.400000000000         0.000087303343
    2        324.990000000000         0.000677175904
    3         73.994000000000         0.003526763315
    4         20.975000000000         0.014328027103
    5          6.845200000000         0.045849479243
    6          2.439400000000         2.282148530113
    7          0.902510000000        -3.811841131503
    8          0.333130000000         2.537946094858
    9          0.124130000000        -0.807400216100
 S 9
    1       2167.400000000000         0.002715800089
    2        324.990000000000         0.021065337539
    3         73.994000000000         0.109709248649
    4         20.975000000000         0.445710967229
    5          6.845200000000         1.426268640698
    6          2.439400000000        -3.020877844359
    7          0.902510000000         2.494023432152
    8          0.333130000000        -1.309501978400
    9          0.124130000000         0.400574758687
 P 4
    1         10.700000000000        -0.004546185603
    2          2.550000000000         0.081559829302
    3          0.900000000000        -0.228645488819
    4          0.330000000000         1.137087679730
 P 4
    1         10.700000000000         0.035754408927
    2          2.550000000000        -0.193897938983
    3          0.900000000000         1.663427667958
    4          0.330000000000        -1.068302607130
 P 4
    1         10.700000000000        -0.070455961287
    2          2.550000000000         1.676549905654
    3          0.900000000000        -1.606997446179
    4          0.330000000000         0.612018285507
 P 4
    1         10.700000000000         1.290877754491
    2          2.550000000000        -1.131319777581
    3          0.900000000000         0.719437821998
    4          0.330000000000        -0.254191377557
 D 2
    1          3.200000000000        -0.147926717639
    2          1.070000000000         1.082711788599
 D 2
    1          3.200000000000         1.248509800687
    2          1.070000000000        -0.639057289318
 F 1
    1          3.200000000000         1.000000000000
 end
  // -----------------------------------------------
  // The basis set
  // -----------------------------------------------
  BAS[ATNO] = new BFNGauss[NSH];
  // Basis function   1 L = s
  InitBFNGauss(BAS[ATNO][  0]);
  BAS[ATNO][  0].l  = 0;
  BAS[ATNO][  0].ng = 9;
  BAS[ATNO][  0].a[  0] =      2167.400000000000;     BAS[ATNO][  0].d[  0] =         0.000160868812;
  BAS[ATNO][  0].a[  1] =       324.990000000000;     BAS[ATNO][  0].d[  1] =         0.001247792808;
  BAS[ATNO][  0].a[  2] =        73.994000000000;     BAS[ATNO][  0].d[  2] =         0.006498562446;
  BAS[ATNO][  0].a[  3] =        20.975000000000;     BAS[ATNO][  0].d[  3] =         0.026401425488;
  BAS[ATNO][  0].a[  4] =         6.845200000000;     BAS[ATNO][  0].d[  4] =         0.084484179238;
  BAS[ATNO][  0].a[  5] =         2.439400000000;     BAS[ATNO][  0].d[  5] =         0.203291803329;
  BAS[ATNO][  0].a[  6] =         0.902510000000;     BAS[ATNO][  0].d[  6] =         0.351691156872;
  BAS[ATNO][  0].a[  7] =         0.333130000000;     BAS[ATNO][  0].d[  7] =         0.374507346553;
  BAS[ATNO][  0].a[  8] =         0.124130000000;     BAS[ATNO][  0].d[  8] =         0.135679938793;

  // Basis function   2 L = s
  InitBFNGauss(BAS[ATNO][  1]);
  BAS[ATNO][  1].l  = 0;
  BAS[ATNO][  1].ng = 9;
  BAS[ATNO][  1].a[  0] =      2167.400000000000;     BAS[ATNO][  1].d[  0] =        -0.000061469770;
  BAS[ATNO][  1].a[  1] =       324.990000000000;     BAS[ATNO][  1].d[  1] =        -0.000476795569;
  BAS[ATNO][  1].a[  2] =        73.994000000000;     BAS[ATNO][  1].d[  2] =        -0.002483173297;
  BAS[ATNO][  1].a[  3] =        20.975000000000;     BAS[ATNO][  1].d[  3] =        -0.010088279573;
  BAS[ATNO][  1].a[  4] =         6.845200000000;     BAS[ATNO][  1].d[  4] =        -0.032282348544;
  BAS[ATNO][  1].a[  5] =         2.439400000000;     BAS[ATNO][  1].d[  5] =        -0.172346908145;
  BAS[ATNO][  1].a[  6] =         0.902510000000;     BAS[ATNO][  1].d[  6] =         0.096860414334;
  BAS[ATNO][  1].a[  7] =         0.333130000000;     BAS[ATNO][  1].d[  7] =        -1.266040556613;
  BAS[ATNO][  1].a[  8] =         0.124130000000;     BAS[ATNO][  1].d[  8] =         1.743152132407;

  // Basis function   3 L = s
  InitBFNGauss(BAS[ATNO][  2]);
  BAS[ATNO][  2].l  = 0;
  BAS[ATNO][  2].ng = 9;
  BAS[ATNO][  2].a[  0] =      2167.400000000000;     BAS[ATNO][  2].d[  0] =        -0.000192409287;
  BAS[ATNO][  2].a[  1] =       324.990000000000;     BAS[ATNO][  2].d[  1] =        -0.001492439222;
  BAS[ATNO][  2].a[  2] =        73.994000000000;     BAS[ATNO][  2].d[  2] =        -0.007772692246;
  BAS[ATNO][  2].a[  3] =        20.975000000000;     BAS[ATNO][  2].d[  3] =        -0.031577776910;
  BAS[ATNO][  2].a[  4] =         6.845200000000;     BAS[ATNO][  2].d[  4] =        -0.101048428826;
  BAS[ATNO][  2].a[  5] =         2.439400000000;     BAS[ATNO][  2].d[  5] =         0.116171803342;
  BAS[ATNO][  2].a[  6] =         0.902510000000;     BAS[ATNO][  2].d[  6] =        -2.115031676565;
  BAS[ATNO][  2].a[  7] =         0.333130000000;     BAS[ATNO][  2].d[  7] =         3.348204904004;
  BAS[ATNO][  2].a[  8] =         0.124130000000;     BAS[ATNO][  2].d[  8] =        -1.510790486789;

  // Basis function   4 L = s
  InitBFNGauss(BAS[ATNO][  3]);
  BAS[ATNO][  3].l  = 0;
  BAS[ATNO][  3].ng = 9;
  BAS[ATNO][  3].a[  0] =      2167.400000000000;     BAS[ATNO][  3].d[  0] =        -0.000087303343;
  BAS[ATNO][  3].a[  1] =       324.990000000000;     BAS[ATNO][  3].d[  1] =        -0.000677175904;
  BAS[ATNO][  3].a[  2] =        73.994000000000;     BAS[ATNO][  3].d[  2] =        -0.003526763315;
  BAS[ATNO][  3].a[  3] =        20.975000000000;     BAS[ATNO][  3].d[  3] =        -0.014328027103;
  BAS[ATNO][  3].a[  4] =         6.845200000000;     BAS[ATNO][  3].d[  4] =        -0.045849479243;
  BAS[ATNO][  3].a[  5] =         2.439400000000;     BAS[ATNO][  3].d[  5] =        -2.282148530113;
  BAS[ATNO][  3].a[  6] =         0.902510000000;     BAS[ATNO][  3].d[  6] =         3.811841131503;
  BAS[ATNO][  3].a[  7] =         0.333130000000;     BAS[ATNO][  3].d[  7] =        -2.537946094858;
  BAS[ATNO][  3].a[  8] =         0.124130000000;     BAS[ATNO][  3].d[  8] =         0.807400216100;

  // Basis function   5 L = s
  InitBFNGauss(BAS[ATNO][  4]);
  BAS[ATNO][  4].l  = 0;
  BAS[ATNO][  4].ng = 9;
  BAS[ATNO][  4].a[  0] =      2167.400000000000;     BAS[ATNO][  4].d[  0] =        -0.002715800089;
  BAS[ATNO][  4].a[  1] =       324.990000000000;     BAS[ATNO][  4].d[  1] =        -0.021065337539;
  BAS[ATNO][  4].a[  2] =        73.994000000000;     BAS[ATNO][  4].d[  2] =        -0.109709248649;
  BAS[ATNO][  4].a[  3] =        20.975000000000;     BAS[ATNO][  4].d[  3] =        -0.445710967229;
  BAS[ATNO][  4].a[  4] =         6.845200000000;     BAS[ATNO][  4].d[  4] =        -1.426268640698;
  BAS[ATNO][  4].a[  5] =         2.439400000000;     BAS[ATNO][  4].d[  5] =         3.020877844359;
  BAS[ATNO][  4].a[  6] =         0.902510000000;     BAS[ATNO][  4].d[  6] =        -2.494023432152;
  BAS[ATNO][  4].a[  7] =         0.333130000000;     BAS[ATNO][  4].d[  7] =         1.309501978400;
  BAS[ATNO][  4].a[  8] =         0.124130000000;     BAS[ATNO][  4].d[  8] =        -0.400574758687;

  // Basis function   6 L = p
  InitBFNGauss(BAS[ATNO][  5]);
  BAS[ATNO][  5].l  = 1;
  BAS[ATNO][  5].ng = 4;
  BAS[ATNO][  5].a[  0] =        10.700000000000;     BAS[ATNO][  5].d[  0] =        -0.004546185603;
  BAS[ATNO][  5].a[  1] =         2.550000000000;     BAS[ATNO][  5].d[  1] =         0.081559829302;
  BAS[ATNO][  5].a[  2] =         0.900000000000;     BAS[ATNO][  5].d[  2] =        -0.228645488819;
  BAS[ATNO][  5].a[  3] =         0.330000000000;     BAS[ATNO][  5].d[  3] =         1.137087679730;

  // Basis function   7 L = p
  InitBFNGauss(BAS[ATNO][  6]);
  BAS[ATNO][  6].l  = 1;
  BAS[ATNO][  6].ng = 4;
  BAS[ATNO][  6].a[  0] =        10.700000000000;     BAS[ATNO][  6].d[  0] =         0.035754408927;
  BAS[ATNO][  6].a[  1] =         2.550000000000;     BAS[ATNO][  6].d[  1] =        -0.193897938983;
  BAS[ATNO][  6].a[  2] =         0.900000000000;     BAS[ATNO][  6].d[  2] =         1.663427667958;
  BAS[ATNO][  6].a[  3] =         0.330000000000;     BAS[ATNO][  6].d[  3] =        -1.068302607130;

  // Basis function   8 L = p
  InitBFNGauss(BAS[ATNO][  7]);
  BAS[ATNO][  7].l  = 1;
  BAS[ATNO][  7].ng = 4;
  BAS[ATNO][  7].a[  0] =        10.700000000000;     BAS[ATNO][  7].d[  0] =        -0.070455961287;
  BAS[ATNO][  7].a[  1] =         2.550000000000;     BAS[ATNO][  7].d[  1] =         1.676549905654;
  BAS[ATNO][  7].a[  2] =         0.900000000000;     BAS[ATNO][  7].d[  2] =        -1.606997446179;
  BAS[ATNO][  7].a[  3] =         0.330000000000;     BAS[ATNO][  7].d[  3] =         0.612018285507;

  // Basis function   9 L = p
  InitBFNGauss(BAS[ATNO][  8]);
  BAS[ATNO][  8].l  = 1;
  BAS[ATNO][  8].ng = 4;
  BAS[ATNO][  8].a[  0] =        10.700000000000;     BAS[ATNO][  8].d[  0] =         1.290877754491;
  BAS[ATNO][  8].a[  1] =         2.550000000000;     BAS[ATNO][  8].d[  1] =        -1.131319777581;
  BAS[ATNO][  8].a[  2] =         0.900000000000;     BAS[ATNO][  8].d[  2] =         0.719437821998;
  BAS[ATNO][  8].a[  3] =         0.330000000000;     BAS[ATNO][  8].d[  3] =        -0.254191377557;

  // Basis function  10 L = d
  InitBFNGauss(BAS[ATNO][  9]);
  BAS[ATNO][  9].l  = 2;
  BAS[ATNO][  9].ng = 2;
  BAS[ATNO][  9].a[  0] =         3.200000000000;     BAS[ATNO][  9].d[  0] =        -0.147926717639;
  BAS[ATNO][  9].a[  1] =         1.070000000000;     BAS[ATNO][  9].d[  1] =         1.082711788599;

  // Basis function  11 L = d
  InitBFNGauss(BAS[ATNO][ 10]);
  BAS[ATNO][ 10].l  = 2;
  BAS[ATNO][ 10].ng = 2;
  BAS[ATNO][ 10].a[  0] =         3.200000000000;     BAS[ATNO][ 10].d[  0] =         1.248509800687;
  BAS[ATNO][ 10].a[  1] =         1.070000000000;     BAS[ATNO][ 10].d[  1] =        -0.639057289318;

  // Basis function  12 L = f
  InitBFNGauss(BAS[ATNO][ 11]);
  BAS[ATNO][ 11].l  = 3;
  BAS[ATNO][ 11].ng = 1;
  BAS[ATNO][ 11].a[  0] =         3.200000000000;     BAS[ATNO][ 11].d[  0] =         1.000000000000;

-------
TIMINGS
-------

Total SCF time: 0 days 0 hours 0 min 1 sec 

Total time                  ....       1.091 sec
Sum of individual times     ....       0.926 sec  ( 84.9%)

Fock matrix formation       ....       0.689 sec  ( 63.1%)
  XC integration            ....       0.015 sec  (  2.2% of F)
    Basis function eval.    ....       0.001 sec  (  7.1% of XC)
    Density eval.           ....       0.001 sec  (  3.7% of XC)
    XC-Functional eval.     ....       0.001 sec  (  6.5% of XC)
    XC-Potential eval.      ....       0.000 sec  (  3.0% of XC)
Diagonalization             ....       0.000 sec  (  0.0%)
Density matrix formation    ....       0.000 sec  (  0.0%)
Population analysis         ....       0.001 sec  (  0.1%)
Initial guess               ....       0.094 sec  (  8.7%)
Orbital Transformation      ....       0.000 sec  (  0.0%)
Orbital Orthonormalization  ....       0.000 sec  (  0.0%)
DIIS solution               ....       0.000 sec  (  0.0%)
SOSCF solution              ....       0.001 sec  (  0.1%)
Grid generation             ....       0.141 sec  ( 13.0%)

-------------------------   --------------------
FINAL SINGLE POINT ENERGY        -2.834811695881
-------------------------   --------------------


                            ***************************************
                            *     ORCA property calculations      *
                            ***************************************

                                    ---------------------
                                    Active property flags
                                    ---------------------
   (+) Dipole Moment


------------------------------------------------------------------------------
                       ORCA ELECTRIC PROPERTIES CALCULATION
------------------------------------------------------------------------------

Dipole Moment Calculation                       ... on
Quadrupole Moment Calculation                   ... off
Polarizability Calculation                      ... off
GBWName                                         ... He_pc-3_2192.575824_.gbw
Electron density file                           ... He_pc-3_2192.575824_.scfp
The origin for moment calculation is the CENTER OF MASS  = ( 0.000000,  0.000000  0.000000)

-------------
DIPOLE MOMENT
-------------
                                X             Y             Z
Electronic contribution:     -0.00000      -0.00000       0.00000
Nuclear contribution   :      0.00000       0.00000       0.00000
                        -----------------------------------------
Total Dipole Moment    :     -0.00000      -0.00000       0.00000
                        -----------------------------------------
Magnitude (a.u.)       :      0.00000
Magnitude (Debye)      :      0.00000



--------------------
Rotational spectrum 
--------------------
 
Rotational constants in cm-1:     0.000000     0.000000     0.000000 
Rotational constants in MHz :     0.000000     0.000000     0.000000 

 Dipole components along the rotational axes: 
x,y,z [a.u.] :    -0.000000    -0.000000     0.000000 
x,y,z [Debye]:    -0.000000    -0.000000     0.000000 

 

Timings for individual modules:

Sum of individual times         ...        2.116 sec (=   0.035 min)
GTO integral calculation        ...        0.482 sec (=   0.008 min)  22.8 %
Relativistic integrals          ...        0.283 sec (=   0.005 min)  13.4 %
SCF iterations                  ...        1.351 sec (=   0.023 min)  63.9 %
                             ****ORCA TERMINATED NORMALLY****
TOTAL RUN TIME: 0 days 0 hours 0 minutes 2 seconds 446 msec
