
                                 *****************
                                 * O   R   C   A *
                                 *****************

           --- An Ab Initio, DFT and Semiempirical electronic structure package ---

                  #######################################################
                  #                        -***-                        #
                  #          Department of theory and spectroscopy      #
                  #               Directorship: Frank Neese             #
                  #        Max Planck Institute fuer Kohlenforschung    #
                  #                Kaiser Wilhelm Platz 1               #
                  #                 D-45470 Muelheim/Ruhr               #
                  #                      Germany                        #
                  #                                                     #
                  #                  All rights reserved                #
                  #                        -***-                        #
                  #######################################################


                         Program Version 4.2.1 -  RELEASE  -


 With contributions from (in alphabetic order):
   Daniel Aravena         : Magnetic Suceptibility
   Michael Atanasov       : Ab Initio Ligand Field Theory (pilot matlab implementation)
   Alexander A. Auer      : GIAO ZORA, VPT2
   Ute Becker             : Parallelization
   Giovanni Bistoni       : ED, misc. LED, open-shell LED, HFLD
   Martin Brehm           : Molecular dynamics
   Dmytro Bykov           : SCF Hessian
   Vijay G. Chilkuri      : MRCI spin determinant printing, contributions to CSF-ICE
   Dipayan Datta          : RHF DLPNO-CCSD density
   Achintya Kumar Dutta   : EOM-CC, STEOM-CC
   Dmitry Ganyushin       : Spin-Orbit,Spin-Spin,Magnetic field MRCI
   Miquel Garcia          : C-PCM Hessian, Gaussian charge scheme
   Yang Guo               : DLPNO-NEVPT2, CIM, IAO-localization
   Andreas Hansen         : Spin unrestricted coupled pair/coupled cluster methods
   Benjamin Helmich-Paris : CASSCF linear response (MC-RPA)
   Lee Huntington         : MR-EOM, pCC
   Robert Izsak           : Overlap fitted RIJCOSX, COSX-SCS-MP3, EOM
   Christian Kollmar      : KDIIS, OOCD, Brueckner-CCSD(T), CCSD density
   Simone Kossmann        : Meta GGA functionals, TD-DFT gradient, OOMP2, MP2 Hessian
   Martin Krupicka        : AUTO-CI
   Lucas Lang             : DCDCAS
   Dagmar Lenk            : GEPOL surface, SMD
   Dimitrios Liakos       : Extrapolation schemes; Compound Job, initial MDCI parallelization
   Dimitrios Manganas     : Further ROCIS development; embedding schemes
   Dimitrios Pantazis     : SARC Basis sets
   Taras Petrenko         : DFT Hessian,TD-DFT gradient, ASA, ECA, R-Raman, ABS, FL, XAS/XES, NRVS
   Peter Pinski           : DLPNO-MP2, DLPNO-MP2 Gradient
   Christoph Reimann      : Effective Core Potentials
   Marius Retegan         : Local ZFS, SOC
   Christoph Riplinger    : Optimizer, TS searches, QM/MM, DLPNO-CCSD(T), (RO)-DLPNO pert. Triples
   Tobias Risthaus        : Range-separated hybrids, TD-DFT gradient, RPA, STAB
   Michael Roemelt        : Original ROCIS implementation
   Masaaki Saitow         : Open-shell DLPNO-CCSD energy and density
   Barbara Sandhoefer     : DKH picture change effects
   Avijit Sen             : IP-ROCIS
   Kantharuban Sivalingam : CASSCF convergence, NEVPT2, FIC-MRCI
   Bernardo de Souza      : ESD, SOC TD-DFT
   Georgi Stoychev        : AutoAux, RI-MP2 NMR
   Willem Van den Heuvel  : Paramagnetic NMR
   Boris Wezisla          : Elementary symmetry handling
   Frank Wennmohs         : Technical directorship


 We gratefully acknowledge several colleagues who have allowed us to
 interface, adapt or use parts of their codes:
   Stefan Grimme, W. Hujo, H. Kruse,             : VdW corrections, initial TS optimization,
                  C. Bannwarth                     DFT functionals, gCP, sTDA/sTD-DF
   Ed Valeev, F. Pavosevic, A. Kumar             : LibInt (2-el integral package), F12 methods
   Garnet Chan, S. Sharma, J. Yang, R. Olivares  : DMRG
   Ulf Ekstrom                                   : XCFun DFT Library
   Mihaly Kallay                                 : mrcc  (arbitrary order and MRCC methods)
   Andreas Klamt, Michael Diedenhofen            : otool_cosmo (COSMO solvation model)
   Jiri Pittner, Ondrej Demel                    : Mk-CCSD
   Frank Weinhold                                : gennbo (NPA and NBO analysis)
   Christopher J. Cramer and Donald G. Truhlar   : smd solvation model
   Lars Goerigk                                  : TD-DFT with DH, B97 family of functionals
   V. Asgeirsson, H. Jonsson                     : NEB implementation
   FAccTs GmbH                                   : IRC, NEB, NEB-TS, Multilevel, MM, QM/MM, CI optimization
   S Lehtola, MJT Oliveira, MAL Marques          : LibXC Library


 Your calculation uses the libint2 library for the computation of 2-el integrals
 For citations please refer to: http://libint.valeyev.net

 Your ORCA version has been built with support for libXC version: 4.2.3
 For citations please refer to: https://tddft.org/programs/libxc/

 This ORCA versions uses:
   CBLAS   interface :  Fast vector & matrix operations
   LAPACKE interface :  Fast linear algebra routines
   SCALAPACK package :  Parallel linear algebra routines


----- Orbital basis set information -----
Your calculation utilizes the basis: ANO-RCC-DZP
   H, He:       P.-O. Widmark, P.-A. Malmqvist, and B. O. Roos, Theor. Chim. Acta 77, 291 (1990).
   s block:     B. O. Roos, V. Veryazov and P.-O. Widmark, Theor. Chem. Acc. 111, 345 (2004).
   p block:     B. O. Roos, R. Lindh, P.-A. Malmqvist, V. Veryazov, and P.-O. Widmark, J. Phys. Chem. A 108, 2851 (2004).
   d block:     B. O. Roos, R. Lindh, P.-A. Malmqvist, V. Veryazov, and P.-O. Widmark, J. Phys. Chem. A 109, 6575 (2005).
   actinides:   B. O. Roos, R. Lindh, P.-A. Malmqvist, V. Veryazov, and P.-O. Widmark, Chem. Phys. Letters 409, 295 (2005).
   lanthanides: B. O. Roos, R. Lindh, P.-A. Malmqvist, V. Veryazov, P.-O. Widmark and A. C. Borin, J. Phys. Chem. A 112, 11431 (2008).

================================================================================
                                        WARNINGS
                       Please study these warnings very carefully!
================================================================================


INFO   : the flag for use of LIBINT has been found!

================================================================================
                                       INPUT FILE
================================================================================
NAME = Kr_ano-rcc-dzp_4385.151648_.inp
|  1> ! LDA ano-rcc-dzp nori grid5 finalgrid6 verytightscf
|  2> %Pal NProcs 18 End
|  3> 
|  4> % REL
|  5>   Method ZORA
|  6>   ModelPot 1, 0, 0, 0
|  7>   velit 4385.151648
|  8> END
|  9> 
| 10> *xyz 34 1
| 11> Kr 0.0 0.0 0.0
| 12> **                         ****END OF INPUT****
================================================================================

                       ****************************
                       * Single Point Calculation *
                       ****************************

---------------------------------
CARTESIAN COORDINATES (ANGSTROEM)
---------------------------------
  Kr     0.000000    0.000000    0.000000

----------------------------
CARTESIAN COORDINATES (A.U.)
----------------------------
  NO LB      ZA    FRAG     MASS         X           Y           Z
   0 Kr   36.0000    0    83.800    0.000000    0.000000    0.000000

--------------------------------
INTERNAL COORDINATES (ANGSTROEM)
--------------------------------
 Kr     0   0   0     0.000000000000     0.00000000     0.00000000

---------------------------
INTERNAL COORDINATES (A.U.)
---------------------------
 Kr     0   0   0     0.000000000000     0.00000000     0.00000000

---------------------
BASIS SET INFORMATION
---------------------
There are 1 groups of distinct atoms

 Group   1 Type Kr  : 100s68p22d4f contracted to 5s4p2d1f pattern {2020202020/17171717/1111/4}

Atom   0Kr   basis set group =>   1


           ************************************************************
           *        Program running with 18 parallel MPI-processes    *
           *              working on a common directory               *
           ************************************************************


------------------------------------------------------------------------------
                       ORCA GTO INTEGRAL CALCULATION
                     -- ANO INTEGRAL GENERATION BRANCH --
------------------------------------------------------------------------------


Gathering ANO information                         ... done
Calculation Information:
Number of atoms                                   ... 1
Number of basis functions                         ... 34
Highest angular momentum                          ... 3
Number of primitive shells                        ... 52
Total number of shells                            ... 12
Maximum number of shells                          ... 12

Getting memory                                    ... done
Making prescreening integrals                     ... done
Gathering atom contracted prescreening            ... done
Making one-electron integrals                     ... done

Timings:

Total time                                        ...    0.5 sec
Prescreening matrix                               ...    0.4 sec
One-electron matrix                               ...    0.0 sec
Two-index integrals + Cholesky                    ...    0.0 sec


           ************************************************************
           *        Program running with 18 parallel MPI-processes    *
           *              working on a common directory               *
           ************************************************************
------------------------------------------------------------------------------
                          ORCA RELATIVISTIC HAMILTONIAN
------------------------------------------------------------------------------

Relativistic Method            ... ZORA(MP)
Treatment of potential         ... Van Wuellen
Nucleus model                  ... Point Nucleus
Speed of light used            ... 4385.15164800000002


            *************************************************
            *         ZERO ORDER REGULAR APPROXIMATION      *
            *                     ZORA(MP)                  *
            *            Programmed by FN according to      *
            *                   C. van Wuellen              *
            *       J. Chem. Phys. (1998) vol 109, 392-399  *
            *************************************************

Terms included in model potential: +V(e,N)
Basis function cutoff value   ... 1.000000e-12
Loading the fitted atomic densities  (DKH4)  ... done
Calculating the cutoffs                      ... done
Number of fit functions                      ... 27
Setting up the integration grid ... done


           ************************************************************
           *        Program running with 18 parallel MPI-processes    *
           *              working on a common directory               *
           ************************************************************
-------------------------------------------------------------------------------
                                 ORCA SCF
-------------------------------------------------------------------------------

------------
SCF SETTINGS
------------
Hamiltonian:
 Density Functional     Method          .... DFT(GTOs)
 Exchange Functional    Exchange        .... Slater
   X-Alpha parameter    XAlpha          ....  0.666667
 Correlation Functional Correlation     .... VWN-5
 Gradients option       PostSCFGGA      .... off
   Density functional embedding theory  .... OFF

Relativistic Settings:
 Scalar relativistic method             .... ZORA
 Speed of light used       Velit        ....       4385.15165
Orbital energies will be scaled


General Settings:
 Integral files         IntName         .... Kr_ano-rcc-dzp_4385.151648_
 Hartree-Fock type      HFTyp           .... RHF
 Total Charge           Charge          ....   34
 Multiplicity           Mult            ....    1
 Number of Electrons    NEL             ....    2
 Basis Dimension        Dim             ....   34
 Nuclear Repulsion      ENuc            ....      0.0000000000 Eh

Convergence Acceleration:
 DIIS                   CNVDIIS         .... on
   Start iteration      DIISMaxIt       ....    12
   Startup error        DIISStart       ....  0.200000
   # of expansion vecs  DIISMaxEq       ....     5
   Bias factor          DIISBfac        ....   1.050
   Max. coefficient     DIISMaxC        ....  10.000
 Newton-Raphson         CNVNR           .... off
 SOSCF                  CNVSOSCF        .... on
   Start iteration      SOSCFMaxIt      ....   150
   Startup grad/error   SOSCFStart      ....  0.003300
 Level Shifting         CNVShift        .... on
   Level shift para.    LevelShift      ....    0.2500
   Turn off err/grad.   ShiftErr        ....    0.0010
 Zerner damping         CNVZerner       .... off
 Static damping         CNVDamp         .... on
   Fraction old density DampFac         ....    0.7000
   Max. Damping (<1)    DampMax         ....    0.9800
   Min. Damping (>=0)   DampMin         ....    0.0000
   Turn off err/grad.   DampErr         ....    0.1000
 Fernandez-Rico         CNVRico         .... off

SCF Procedure:
 Maximum # iterations   MaxIter         ....   125
 SCF integral mode      SCFMode         .... Direct
   Integral package                     .... LIBINT
 Reset frequency        DirectResetFreq ....    20
 Integral Threshold     Thresh          ....  1.000e-12 Eh
 Primitive CutOff       TCut            ....  1.000e-14 Eh

Convergence Tolerance:
 Convergence Check Mode ConvCheckMode   .... Total+1el-Energy
 Convergence forced     ConvForced      .... 0
 Energy Change          TolE            ....  1.000e-09 Eh
 1-El. energy change                    ....  1.000e-06 Eh
 Orbital Gradient       TolG            ....  2.000e-06
 Orbital Rotation angle TolX            ....  2.000e-06
 DIIS Error             TolErr          ....  1.000e-08


Diagonalization of the overlap matrix:
Smallest eigenvalue                        ... 1.000e+00
Time for diagonalization                   ...    0.001 sec
Threshold for overlap eigenvalues          ... 1.000e-08
Number of eigenvalues below threshold      ... 0
Time for construction of square roots      ...    0.001 sec
Total time needed                          ...    0.001 sec

-------------------
DFT GRID GENERATION
-------------------

General Integration Accuracy     IntAcc      ...  5.010
Radial Grid Type                 RadialGrid  ... Gauss-Chebyshev
Angular Grid (max. acc.)         AngularGrid ... Lebedev-434
Angular grid pruning method      GridPruning ... 3 (G Style)
Weight generation scheme         WeightScheme... Becke
Basis function cutoff            BFCut       ...    1.0000e-12
Integration weight cutoff        WCut        ...    1.0000e-14
Grids for H and He will be reduced by one unit

# of grid points (after initial pruning)     ...  16106 (   0.0 sec)
# of grid points (after weights+screening)   ...  16106 (   0.0 sec)
Grid point division into batches done        ...    0.2 sec
Reduced shell lists constructed in    0.2 sec

Total number of grid points                  ...    16106
Total number of batches                      ...      252
Average number of points per batch           ...       63
Average number of grid points per atom       ...    16106
Average number of shells per batch           ...     5.87 (48.89%)
Average number of basis functions per batch  ...    16.80 (49.41%)
Average number of large shells per batch     ...     2.00 (34.09%)
Average number of large basis fcns per batch ...     4.93 (29.37%)
Maximum spatial batch extension              ...  17.34, 17.34, 17.34 au
Average spatial batch extension              ...   0.86,  0.87,  0.87 au

Time for grid setup =    0.227 sec

------------------------------
INITIAL GUESS: MODEL POTENTIAL
------------------------------
Loading ZORA relativistic densities                ... done
Calculating cut-offs                               ... done
Setting up the integral package                    ... done
Initializing the effective Hamiltonian             ... done
Starting the Coulomb interaction                   ... done (   0.0 sec)
Reading the grid                                   ... done
Mapping shells                                     ... done
Starting the XC term evaluation                    ... done (   0.0 sec)
  promolecular density results
     # of electrons  =     36.000000565
     EX              =    -91.042004939
     EC              =     -3.295965580
     EX+EC           =    -94.337970520
Transforming the Hamiltonian                       ... done (   0.0 sec)
Diagonalizing the Hamiltonian                      ... done (   0.0 sec)
Back transforming the eigenvectors                 ... done (   0.0 sec)
Now organizing SCF variables                       ... done
                      ------------------
                      INITIAL GUESS DONE (   0.3 sec)
                      ------------------
--------------
SCF ITERATIONS
--------------
ITER       Energy         Delta-E        Max-DP      RMS-DP      [F,P]     Damp
               ***  Starting incremental Fock matrix formation  ***
  0  -1249.2235619355   0.000000000000 0.00458089  0.00014169  6.9773384 0.7000
  1  -1249.2420595105  -0.018497575025 0.00320191  0.00009904  4.8740907 0.7000
  2  -1249.2549726596  -0.012913149072 0.00223630  0.00006917  3.4041113 0.7000
                      *** Initiating the SOSCF procedure ***
                      *** Re-Reading the Fockian *** 
                      *** Removing any level shift *** 
ITER      Energy       Delta-E        Grad      Rot      Max-DP    RMS-DP
  3  -1249.26399477  -0.0090221101  0.002730  0.002730  0.005206  0.000161
               *** Restarting incremental Fock matrix formation ***
  4  -1249.28499210  -0.0209973340  0.006325  0.000014  0.000027  0.000001
  5  -1249.28499230  -0.0000001945  0.000032  0.000000  0.000000  0.000000
                 **** Energy Check signals convergence ****
              ***Rediagonalizing the Fockian in SOSCF/NRSCF***

               *****************************************************
               *                     SUCCESS                       *
               *           SCF CONVERGED AFTER   6 CYCLES          *
               *****************************************************

Setting up the final grid:

General Integration Accuracy     IntAcc      ...  5.340
Radial Grid Type                 RadialGrid  ... Gauss-Chebyshev
Angular Grid (max. acc.)         AngularGrid ... Lebedev-590
Angular grid pruning method      GridPruning ... 3 (G Style)
Weight generation scheme         WeightScheme... Becke
Basis function cutoff            BFCut       ...    1.0000e-12
Integration weight cutoff        WCut        ...    1.0000e-14
Grids for H and He will be reduced by one unit

# of grid points (after initial pruning)     ...  24180 (   0.0 sec)
# of grid points (after weights+screening)   ...  24180 (   0.0 sec)
Grid point division into batches done        ...    0.4 sec
Reduced shell lists constructed in    0.4 sec

Total number of grid points                  ...    24180
Total number of batches                      ...      378
Average number of points per batch           ...       63
Average number of grid points per atom       ...    24180
Average number of shells per batch           ...     3.95 (32.95%)
Average number of basis functions per batch  ...    10.23 (30.08%)
Average number of large shells per batch     ...     1.36 (34.48%)
Average number of large basis fcns per batch ...     4.36 (42.67%)
Maximum spatial batch extension              ...  17.58, 17.58, 17.58 au
Average spatial batch extension              ...   0.77,  0.77,  0.77 au

Final grid set up in    0.4 sec
Final integration                            ... done (   0.0 sec)
Change in XC energy                          ...    -0.000014969
Integrated number of electrons               ...     2.000000075
Previous integrated no of electrons          ...     1.999999430

----------------
TOTAL SCF ENERGY
----------------

Total Energy       :        -1249.28500727 Eh          -33994.77331 eV

Components:
Nuclear Repulsion  :            0.00000000 Eh               0.00000 eV
Electronic Energy  :        -1249.28500727 Eh          -33994.77331 eV
One Electron Energy:        -1274.94448855 Eh          -34693.00329 eV
Two Electron Energy:           25.65948128 Eh             698.22998 eV

Virial components:
Potential Energy   :        -2673.83968020 Eh          -72758.87669 eV
Kinetic Energy     :         1424.55467294 Eh           38764.10338 eV
Virial Ratio       :            1.87696529


DFT components:
N(Alpha)           :        1.000000037438 electrons
N(Beta)            :        1.000000037438 electrons
N(Total)           :        2.000000074875 electrons
E(X)               :      -19.608062832602 Eh       
E(C)               :       -0.278883075149 Eh       
E(XC)              :      -19.886945907751 Eh       
DFET-embed. en.    :        0.000000000000 Eh       

---------------
SCF CONVERGENCE
---------------

  Last Energy change         ...   -4.5475e-12  Tolerance :   1.0000e-09
  Last MAX-Density change    ...    0.0000e+00  Tolerance :   1.0000e-08
  Last RMS-Density change    ...    0.0000e+00  Tolerance :   1.0000e-09
  Last Orbital Gradient      ...    1.6217e-11  Tolerance :   2.0000e-06
  Last Orbital Rotation      ...    0.0000e+00  Tolerance :   2.0000e-06

================================================================================
                                        WARNING
Number of found core electrons (2) does not match given number of chemical core electrons (18)
================================================================================
             **** THE GBW FILE WAS UPDATED (Kr_ano-rcc-dzp_4385.151648_.gbw) ****
             **** DENSITY FILE WAS UPDATED (Kr_ano-rcc-dzp_4385.151648_.scfp) ****
             **** ENERGY FILE WAS UPDATED (Kr_ano-rcc-dzp_4385.151648_.en.tmp) ****
             **** THE GBW FILE WAS UPDATED (Kr_ano-rcc-dzp_4385.151648_.gbw) ****
             **** DENSITY FILE WAS UPDATED (Kr_ano-rcc-dzp_4385.151648_.scfp) ****
----------------
ORBITAL ENERGIES
----------------

  NO   OCC          E(Eh)            E(eV) 
   0   2.0000    -605.147129    -16466.8905 
   1   0.0000    -147.358741     -4009.8352 
   2   0.0000    -146.565128     -3988.2399 
   3   0.0000    -146.565128     -3988.2399 
   4   0.0000    -146.565128     -3988.2399 
   5   0.0000     -61.259847     -1666.9652 
   6   0.0000     -58.734310     -1598.2418 
   7   0.0000     -58.734310     -1598.2418 
   8   0.0000     -58.734310     -1598.2418 
   9   0.0000     -54.605605     -1485.8941 
  10   0.0000     -54.605605     -1485.8941 
  11   0.0000     -54.605605     -1485.8941 
  12   0.0000     -54.605605     -1485.8941 
  13   0.0000     -54.605605     -1485.8941 
  14   0.0000     -27.270809      -742.0764 
  15   0.0000     -23.833698      -648.5479 
  16   0.0000     -23.833698      -648.5479 
  17   0.0000     -23.833698      -648.5479 
  18   0.0000     -18.184544      -494.8266 
  19   0.0000     -18.184544      -494.8266 
  20   0.0000     -18.184544      -494.8266 
  21   0.0000     -18.184544      -494.8266 
  22   0.0000     -18.184544      -494.8266 
  23   0.0000     -17.130797      -466.1527 
  24   0.0000     -17.130797      -466.1527 
  25   0.0000     -17.130797      -466.1527 
  26   0.0000     -17.130797      -466.1527 
  27   0.0000     -17.130797      -466.1527 
  28   0.0000     -17.130797      -466.1527 
  29   0.0000     -17.130797      -466.1527 
  30   0.0000     -13.696756      -372.7077 
  31   0.0000     -11.236766      -305.7680 
  32   0.0000     -11.236766      -305.7680 
  33   0.0000     -11.236766      -305.7680 

                    ********************************
                    * MULLIKEN POPULATION ANALYSIS *
                    ********************************

-----------------------
MULLIKEN ATOMIC CHARGES
-----------------------
   0 Kr:   34.000000
Sum of atomic charges:   34.0000000

--------------------------------
MULLIKEN REDUCED ORBITAL CHARGES
--------------------------------
  0 Krs       :     2.000000  s :     2.000000
      pz      :     0.000000  p :     0.000000
      px      :     0.000000
      py      :     0.000000
      dz2     :     0.000000  d :     0.000000
      dxz     :     0.000000
      dyz     :     0.000000
      dx2y2   :     0.000000
      dxy     :     0.000000
      f0      :     0.000000  f :     0.000000
      f+1     :     0.000000
      f-1     :     0.000000
      f+2     :     0.000000
      f-2     :     0.000000
      f+3     :     0.000000
      f-3     :     0.000000


                     *******************************
                     * LOEWDIN POPULATION ANALYSIS *
                     *******************************

----------------------
LOEWDIN ATOMIC CHARGES
----------------------
   0 Kr:   34.000000

-------------------------------
LOEWDIN REDUCED ORBITAL CHARGES
-------------------------------
  0 Krs       :     2.000000  s :     2.000000
      pz      :     0.000000  p :     0.000000
      px      :     0.000000
      py      :     0.000000
      dz2     :     0.000000  d :     0.000000
      dxz     :     0.000000
      dyz     :     0.000000
      dx2y2   :     0.000000
      dxy     :     0.000000
      f0      :     0.000000  f :     0.000000
      f+1     :     0.000000
      f-1     :     0.000000
      f+2     :     0.000000
      f-2     :     0.000000
      f+3     :     0.000000
      f-3     :     0.000000


                      *****************************
                      * MAYER POPULATION ANALYSIS *
                      *****************************

  NA   - Mulliken gross atomic population
  ZA   - Total nuclear charge
  QA   - Mulliken gross atomic charge
  VA   - Mayer's total valence
  BVA  - Mayer's bonded valence
  FA   - Mayer's free valence

  ATOM       NA         ZA         QA         VA         BVA        FA
  0 Kr     2.0000    36.0000    34.0000     0.0000     0.0000     0.0000

  Mayer bond orders larger than 0.100000


--------------------------
ATOM BASIS FOR ELEMENT Kr
--------------------------
 NewGTO Kr
 S 99
    1   18535881.300000000745         0.000137341927
    2    2419299.990000000224         0.000443161683
    3     474949.065000000002         0.001295209560
    4     117392.346000000005         0.003458684863
    5      34065.440100000000         0.008980448239
    6      11133.885300000000         0.023267008234
    7       3988.280760000000         0.059846824600
    8       1534.678610000000         0.144115205504
    9        624.475513000000         0.287648247616
   10        265.735250000000         0.382459241190
   11        116.709586000000         0.227382188184
   12         50.306071000000         0.027101813602
   13         23.036081700000         0.000594151814
   14         10.586238100000        -0.000552217332
   15          4.798113940000         0.000380629912
   16          2.133543170000        -0.000271684248
   17          0.857316380000         0.000151510062
   18          0.378404470000        -0.000084018944
   19          0.152386050000         0.000035795290
   20          0.060954420000        -0.000009808709
   21   18535881.300000000745        -0.000000662325
   22    2419299.990000000224        -0.000002139429
   23     474949.065000000002        -0.000006264939
   24     117392.346000000005        -0.000016790442
   25      34065.440100000000        -0.000043902767
   26      11133.885300000000        -0.000115221876
   27       3988.280760000000        -0.000304513004
   28       1534.678610000000        -0.000776199093
   29        624.475513000000        -0.001759703414
   30        265.735250000000        -0.003045241595
   31        116.709586000000        -0.002436323718
   32         50.306071000000         0.004102969704
   33         23.036081700000         0.009673262570
   34         10.586238100000         0.003747346152
   35          4.798113940000         0.000153340124
   36          2.133543170000         0.000041959522
   37          0.857316380000        -0.000013758147
   38          0.378404470000         0.000006371286
   39          0.152386050000        -0.000002962389
   40   18535881.300000000745        -0.000000104603
   41    2419299.990000000224        -0.000000337903
   42     474949.065000000002        -0.000000989849
   43     117392.346000000005        -0.000002654047
   44      34065.440100000000        -0.000006946388
   45      11133.885300000000        -0.000018260492
   46       3988.280760000000        -0.000048433538
   47       1534.678610000000        -0.000124400367
   48        624.475513000000        -0.000286961472
   49        265.735250000000        -0.000515925551
   50        116.709586000000        -0.000441407879
   51         50.306071000000         0.000920913722
   52         23.036081700000         0.003111588780
   53         10.586238100000         0.001251894577
   54          4.798113940000        -0.004065117938
   55          2.133543170000        -0.003459877849
   56          0.857316380000        -0.000188397237
   57          0.378404470000        -0.000034954390
   58          0.152386050000         0.000014455579
   59          0.060954420000        -0.000004821074
   60   18535881.300000000745        -0.000000010707
   61    2419299.990000000224        -0.000000034584
   62     474949.065000000002        -0.000000101289
   63     117392.346000000005        -0.000000271580
   64      34065.440100000000        -0.000000710950
   65      11133.885300000000        -0.000001869347
   66       3988.280760000000        -0.000004961109
   67       1534.678610000000        -0.000012757497
   68        624.475513000000        -0.000029509875
   69        265.735250000000        -0.000053373142
   70        116.709586000000        -0.000046198789
   71         50.306071000000         0.000099715751
   72         23.036081700000         0.000357399333
   73         10.586238100000         0.000148590921
   74          4.798113940000        -0.000617917138
   75          2.133543170000        -0.000963491285
   76          0.857316380000         0.000394716822
   77          0.378404470000         0.001446409153
   78          0.152386050000         0.000546693239
   79          0.060954420000        -0.000001694721
   80   18535881.300000000745        -0.000000013953
   81    2419299.990000000224        -0.000000045101
   82     474949.065000000002        -0.000000131830
   83     117392.346000000005        -0.000000355292
   84      34065.440100000000        -0.000000920871
   85      11133.885300000000        -0.000002463555
   86       3988.280760000000        -0.000006369911
   87       1534.678610000000        -0.000017001090
   88        624.475513000000        -0.000037416153
   89        265.735250000000        -0.000073318476
   90        116.709586000000        -0.000051401410
   91         50.306071000000         0.000109031178
   92         23.036081700000         0.000551429918
   93         10.586238100000         0.000030751394
   94          4.798113940000        -0.000626453403
   95          2.133543170000        -0.002295531893
   96          0.857316380000         0.003850486068
   97          0.378404470000         0.000789939138
   98          0.152386050000        -0.002838501295
   99          0.060954420000        -0.000065434904
 S 98
    1   18535881.300000000745         0.000002089541
    2    2419299.990000000224         0.000006742330
    3     474949.065000000002         0.000019705519
    4     117392.346000000005         0.000052620967
    5      34065.440100000000         0.000136629930
    6      11133.885300000000         0.000353987867
    7       3988.280760000000         0.000910518859
    8       1534.678610000000         0.002192591057
    9        624.475513000000         0.004376324990
   10        265.735250000000         0.005818794130
   11        116.709586000000         0.003459427828
   12         50.306071000000         0.000412331190
   13         23.036081700000         0.000009039518
   14         10.586238100000        -0.000008401520
   15          4.798113940000         0.000005790962
   16          2.133543170000        -0.000004133446
   17          0.857316380000         0.000002305098
   18          0.378404470000        -0.000001278277
   19   18535881.300000000745         0.000044453888
   20    2419299.990000000224         0.000143594145
   21     474949.065000000002         0.000420490058
   22     117392.346000000005         0.001126940509
   23      34065.440100000000         0.002946664868
   24      11133.885300000000         0.007733459159
   25       3988.280760000000         0.020438296574
   26       1534.678610000000         0.052096912280
   27        624.475513000000         0.118107731866
   28        265.735250000000         0.204390452920
   29        116.709586000000         0.163521117346
   30         50.306071000000        -0.275383023002
   31         23.036081700000        -0.649249807050
   32         10.586238100000        -0.251514289850
   33          4.798113940000        -0.010291878761
   34          2.133543170000        -0.002816238178
   35          0.857316380000         0.000923418968
   36          0.378404470000        -0.000427627837
   37          0.152386050000         0.000198829574
   38          0.060954420000        -0.000051851223
   39   18535881.300000000745         0.000000962138
   40    2419299.990000000224         0.000003108032
   41     474949.065000000002         0.000009104624
   42     117392.346000000005         0.000024411896
   43      34065.440100000000         0.000063892811
   44      11133.885300000000         0.000167959833
   45       3988.280760000000         0.000445491211
   46       1534.678610000000         0.001144233372
   47        624.475513000000         0.002639468843
   48        265.735250000000         0.004745478222
   49        116.709586000000         0.004060065398
   50         50.306071000000        -0.008470555505
   51         23.036081700000        -0.028620363485
   52         10.586238100000        -0.011514914207
   53          4.798113940000         0.037390915450
   54          2.133543170000         0.031823922972
   55          0.857316380000         0.001732875966
   56          0.378404470000         0.000321510138
   57          0.152386050000        -0.000132962276
   58          0.060954420000         0.000044344191
   59   18535881.300000000745         0.000000071072
   60    2419299.990000000224         0.000000229569
   61     474949.065000000002         0.000000672353
   62     117392.346000000005         0.000001802737
   63      34065.440100000000         0.000004719257
   64      11133.885300000000         0.000012408646
   65       3988.280760000000         0.000032931635
   66       1534.678610000000         0.000084683737
   67        624.475513000000         0.000195885321
   68        265.735250000000         0.000354288699
   69        116.709586000000         0.000306665640
   70         50.306071000000        -0.000661909011
   71         23.036081700000        -0.002372401910
   72         10.586238100000        -0.000986340355
   73          4.798113940000         0.004101708267
   74          2.133543170000         0.006395615086
   75          0.857316380000        -0.002620113848
   76          0.378404470000        -0.009601203809
   77          0.152386050000        -0.003628926990
   78          0.060954420000         0.000011249489
   79   18535881.300000000745         0.000000082124
   80    2419299.990000000224         0.000000265448
   81     474949.065000000002         0.000000775905
   82     117392.346000000005         0.000002091128
   83      34065.440100000000         0.000005419937
   84      11133.885300000000         0.000014499658
   85       3988.280760000000         0.000037491163
   86       1534.678610000000         0.000100062728
   87        624.475513000000         0.000220218961
   88        265.735250000000         0.000431528024
   89        116.709586000000         0.000302531505
   90         50.306071000000        -0.000641721042
   91         23.036081700000        -0.003245532033
   92         10.586238100000        -0.000180992418
   93          4.798113940000         0.003687095166
   94          2.133543170000         0.013510732815
   95          0.857316380000        -0.022662672918
   96          0.378404470000        -0.004649317514
   97          0.152386050000         0.016706469080
   98          0.060954420000         0.000385127953
 S 98
    1   18535881.300000000745         0.000000744971
    2    2419299.990000000224         0.000002403800
    3     474949.065000000002         0.000007025483
    4     117392.346000000005         0.000018760618
    5      34065.440100000000         0.000048711799
    6      11133.885300000000         0.000126205039
    7       3988.280760000000         0.000324621489
    8       1534.678610000000         0.000781710523
    9        624.475513000000         0.001560263271
   10        265.735250000000         0.002074537605
   11        116.709586000000         0.001233367767
   12         50.306071000000         0.000147005812
   13         23.036081700000         0.000003222802
   14         10.586238100000        -0.000002995340
   15          4.798113940000         0.000002064615
   16          2.133543170000        -0.000001473671
   17          0.857316380000         0.000000821822
   18          0.378404470000        -0.000000455736
   19   18535881.300000000745        -0.000002499450
   20    2419299.990000000224        -0.000008073679
   21     474949.065000000002        -0.000023642341
   22     117392.346000000005        -0.000063363000
   23      34065.440100000000        -0.000165678245
   24      11133.885300000000        -0.000434819024
   25       3988.280760000000        -0.001149157187
   26       1534.678610000000        -0.002929184482
   27        624.475513000000        -0.006640687908
   28        265.735250000000        -0.011491992842
   29        116.709586000000        -0.009194086530
   30         50.306071000000         0.015483598593
   31         23.036081700000         0.036504513929
   32         10.586238100000         0.014141562766
   33          4.798113940000         0.000578667914
   34          2.133543170000         0.000158344915
   35          0.857316380000        -0.000051919862
   36          0.378404470000         0.000024043667
   37          0.152386050000        -0.000011179329
   38          0.060954420000         0.000002915370
   39   18535881.300000000745         0.000017550246
   40    2419299.990000000224         0.000056693264
   41     474949.065000000002         0.000166076417
   42     117392.346000000005         0.000445294657
   43      34065.440100000000         0.001165461592
   44      11133.885300000000         0.003063736475
   45       3988.280760000000         0.008126155205
   46       1534.678610000000         0.020871832593
   47        624.475513000000         0.048146255120
   48        265.735250000000         0.086561735989
   49        116.709586000000         0.074059197529
   50         50.306071000000        -0.154510452886
   51         23.036081700000        -0.522060840184
   52         10.586238100000        -0.210042258511
   53          4.798113940000         0.682043494861
   54          2.133543170000         0.580496609469
   55          0.857316380000         0.031609196136
   56          0.378404470000         0.005864630371
   57          0.152386050000        -0.002425349965
   58          0.060954420000         0.000808877406
   59   18535881.300000000745         0.000000854609
   60    2419299.990000000224         0.000002760477
   61     474949.065000000002         0.000008084781
   62     117392.346000000005         0.000021677208
   63      34065.440100000000         0.000056747238
   64      11133.885300000000         0.000149209160
   65       3988.280760000000         0.000395990154
   66       1534.678610000000         0.001018289122
   67        624.475513000000         0.002355445086
   68        265.735250000000         0.004260184325
   69        116.709586000000         0.003687535494
   70         50.306071000000        -0.007959199380
   71         23.036081700000        -0.028527213715
   72         10.586238100000        -0.011860360577
   73          4.798113940000         0.049321452586
   74          2.133543170000         0.076904793242
   75          0.857316380000        -0.031505853778
   76          0.378404470000        -0.115450755532
   77          0.152386050000        -0.043636440919
   78          0.060954420000         0.000135270749
   79   18535881.300000000745         0.000000861126
   80    2419299.990000000224         0.000002783398
   81     474949.065000000002         0.000008135888
   82     117392.346000000005         0.000021926893
   83      34065.440100000000         0.000056831722
   84      11133.885300000000         0.000152038754
   85       3988.280760000000         0.000393120280
   86       1534.678610000000         0.001049225600
   87        624.475513000000         0.002309145237
   88        265.735250000000         0.004524864143
   89        116.709586000000         0.003172248117
   90         50.306071000000        -0.006728880565
   91         23.036081700000        -0.034031605626
   92         10.586238100000        -0.001897828312
   93          4.798113940000         0.038661694696
   94          2.133543170000         0.141669201286
   95          0.857316380000        -0.237633503311
   96          0.378404470000        -0.048751248930
   97          0.152386050000         0.175178664491
   98          0.060954420000         0.004038327921
 S 96
    1   18535881.300000000745        -0.000000196101
    2    2419299.990000000224        -0.000000632759
    3     474949.065000000002        -0.000001849338
    4     117392.346000000005        -0.000004938412
    5      34065.440100000000        -0.000012822549
    6      11133.885300000000        -0.000033221320
    7       3988.280760000000        -0.000085451061
    8       1534.678610000000        -0.000205771940
    9        624.475513000000        -0.000410712650
   10        265.735250000000        -0.000546086582
   11        116.709586000000        -0.000324662993
   12         50.306071000000        -0.000038696769
   13         23.036081700000        -0.000000848347
   14         10.586238100000         0.000000788472
   15          4.798113940000        -0.000000543475
   16          2.133543170000         0.000000387919
   17          0.857316380000        -0.000000216331
   18   18535881.300000000745         0.000000281593
   19    2419299.990000000224         0.000000909597
   20     474949.065000000002         0.000002663594
   21     117392.346000000005         0.000007138604
   22      34065.440100000000         0.000018665646
   23      11133.885300000000         0.000048987589
   24       3988.280760000000         0.000129466369
   25       1534.678610000000         0.000330007839
   26        624.475513000000         0.000748153309
   27        265.735250000000         0.001294711119
   28        116.709586000000         0.001035824354
   29         50.306071000000        -0.001744413483
   30         23.036081700000        -0.004112672251
   31         10.586238100000        -0.001593217017
   32          4.798113940000        -0.000065193896
   33          2.133543170000        -0.000017839458
   34          0.857316380000         0.000005849397
   35          0.378404470000        -0.000002708808
   36          0.152386050000         0.000001259486
   37   18535881.300000000745         0.000003516699
   38    2419299.990000000224         0.000011360135
   39     474949.065000000002         0.000033278214
   40     117392.346000000005         0.000089227664
   41      34065.440100000000         0.000233533939
   42      11133.885300000000         0.000613908216
   43       3988.280760000000         0.001628310231
   44       1534.678610000000         0.004182275343
   45        624.475513000000         0.009647494763
   46        265.735250000000         0.017345147459
   47        116.709586000000         0.014839902264
   48         50.306071000000        -0.030960638193
   49         23.036081700000        -0.104609989070
   50         10.586238100000        -0.042088041615
   51          4.798113940000         0.136667141166
   52          2.133543170000         0.116319285603
   53          0.857316380000         0.006333816689
   54          0.378404470000         0.001175148320
   55          0.152386050000        -0.000485989015
   56          0.060954420000         0.000162081984
   57   18535881.300000000745        -0.000004670959
   58    2419299.990000000224        -0.000015087683
   59     474949.065000000002        -0.000044188244
   60     117392.346000000005        -0.000118479122
   61      34065.440100000000        -0.000310158154
   62      11133.885300000000        -0.000815518764
   63       3988.280760000000        -0.002164326917
   64       1534.678610000000        -0.005565569080
   65        624.475513000000        -0.012873939295
   66        265.735250000000        -0.023284497148
   67        116.709586000000        -0.020154623168
   68         50.306071000000         0.043501863096
   69         23.036081700000         0.155918564955
   70         10.586238100000         0.064824080596
   71          4.798113940000        -0.269571721429
   72          2.133543170000        -0.420331446328
   73          0.857316380000         0.172198643647
   74          0.378404470000         0.631008562750
   75          0.152386050000         0.238499676687
   76          0.060954420000        -0.000739336874
   77   18535881.300000000745        -0.000003682032
   78    2419299.990000000224        -0.000011901350
   79     474949.065000000002        -0.000034787707
   80     117392.346000000005        -0.000093755758
   81      34065.440100000000        -0.000243003019
   82      11133.885300000000        -0.000650092498
   83       3988.280760000000        -0.001680917123
   84       1534.678610000000        -0.004486314664
   85        624.475513000000        -0.009873522090
   86        265.735250000000        -0.019347568676
   87        116.709586000000        -0.013564006866
   88         50.306071000000         0.028771577389
   89         23.036081700000         0.145513501896
   90         10.586238100000         0.008114799128
   91          4.798113940000        -0.165310994915
   92          2.133543170000        -0.605754010457
   93          0.857316380000         1.016081451318
   94          0.378404470000         0.208452255578
   95          0.152386050000        -0.749034917955
   96          0.060954420000        -0.017267220478
 S 94
    1   18535881.300000000745        -0.000000070003
    2    2419299.990000000224        -0.000000225880
    3     474949.065000000002        -0.000000660169
    4     117392.346000000005        -0.000001762893
    5      34065.440100000000        -0.000004577337
    6      11133.885300000000        -0.000011859200
    7       3988.280760000000        -0.000030503941
    8       1534.678610000000        -0.000073455556
    9        624.475513000000        -0.000146614384
   10        265.735250000000        -0.000194939571
   11        116.709586000000        -0.000115896758
   12         50.306071000000        -0.000013813801
   13         23.036081700000        -0.000000302839
   14         10.586238100000         0.000000281465
   15          4.798113940000        -0.000000194007
   16          2.133543170000         0.000000138478
   17   18535881.300000000745         0.000000086459
   18    2419299.990000000224         0.000000279280
   19     474949.065000000002         0.000000817821
   20     117392.346000000005         0.000002191814
   21      34065.440100000000         0.000005731039
   22      11133.885300000000         0.000015040990
   23       3988.280760000000         0.000039750933
   24       1534.678610000000         0.000101324534
   25        624.475513000000         0.000229710560
   26        265.735250000000         0.000397523893
   27        116.709586000000         0.000318036142
   28         50.306071000000        -0.000535599045
   29         23.036081700000        -0.001262741518
   30         10.586238100000        -0.000489176173
   31          4.798113940000        -0.000020016922
   32          2.133543170000        -0.000005477369
   33          0.857316380000         0.000001795980
   34          0.378404470000        -0.000000831704
   35   18535881.300000000745         0.000000412256
   36    2419299.990000000224         0.000001331726
   37     474949.065000000002         0.000003901139
   38     117392.346000000005         0.000010459982
   39      34065.440100000000         0.000027376720
   40      11133.885300000000         0.000071967240
   41       3988.280760000000         0.000190883573
   42       1534.678610000000         0.000490279827
   43        624.475513000000         0.001130956640
   44        265.735250000000         0.002033337168
   45        116.709586000000         0.001739652252
   46         50.306071000000        -0.003629454090
   47         23.036081700000        -0.012263221137
   48         10.586238100000        -0.004933897481
   49          4.798113940000         0.016021217374
   50          2.133543170000         0.013635878701
   51          0.857316380000         0.000742500744
   52          0.378404470000         0.000137760302
   53          0.152386050000        -0.000056971526
   54          0.060954420000         0.000019000549
   55   18535881.300000000745         0.000003294695
   56    2419299.990000000224         0.000010642208
   57     474949.065000000002         0.000031168502
   58     117392.346000000005         0.000083570118
   59      34065.440100000000         0.000218772330
   60      11133.885300000000         0.000575232143
   61       3988.280760000000         0.001526623869
   62       1534.678610000000         0.003925714980
   63        624.475513000000         0.009080727526
   64        265.735250000000         0.016423890880
   65        116.709586000000         0.014216211307
   66         50.306071000000        -0.030684358268
   67         23.036081700000        -0.109978303620
   68         10.586238100000        -0.045724140802
   69          4.798113940000         0.190144391305
   70          2.133543170000         0.296483869246
   71          0.857316380000        -0.121461576557
   72          0.378404470000        -0.445086518855
   73          0.152386050000        -0.168227496600
   74          0.060954420000         0.000521496688
   75   18535881.300000000745        -0.000005445279
   76    2419299.990000000224        -0.000017600652
   77     474949.065000000002        -0.000051446798
   78     117392.346000000005        -0.000138653390
   79      34065.440100000000        -0.000359371978
   80      11133.885300000000        -0.000961407922
   81       3988.280760000000        -0.002485872461
   82       1534.678610000000        -0.006634715016
   83        624.475513000000        -0.014601741110
   84        265.735250000000        -0.028612706424
   85        116.709586000000        -0.020059520289
   86         50.306071000000         0.042549671794
   87         23.036081700000         0.215196812590
   88         10.586238100000         0.012000803254
   89          4.798113940000        -0.244474902522
   90          2.133543170000        -0.895836678831
   91          0.857316380000         1.502661174433
   92          0.378404470000         0.308275592251
   93          0.152386050000        -1.107731755211
   94          0.060954420000        -0.025536123870
 P 68
    1     178109.355000000010         0.000044883815
    2      27138.037499999999         0.000233274178
    3       6512.317450000000         0.001114626364
    4       2033.629170000000         0.004944319648
    5        749.824546000000         0.019490993447
    6        308.463093000000         0.064745027247
    7        137.031449000000         0.169434276183
    8         64.114040700000         0.319764271723
    9         31.107038200000         0.372697596133
   10         15.366235600000         0.201047140468
   11          7.391254080000         0.033581898585
   12          3.530697220000         0.001269301513
   13          1.678108190000         0.000449306829
   14          0.683391650000        -0.000070810924
   15          0.276466560000         0.000014997835
   16          0.105540690000        -0.000015496434
   17          0.042216280000         0.000003829235
   18     178109.355000000010         0.000001314834
   19      27138.037499999999         0.000006839423
   20       6512.317450000000         0.000032782186
   21       2033.629170000000         0.000145936531
   22        749.824546000000         0.000581840723
   23        308.463093000000         0.001971766511
   24        137.031449000000         0.005373756069
   25         64.114040700000         0.010674982507
   26         31.107038200000         0.012986255667
   27         15.366235600000        -0.000290301553
   28          7.391254080000        -0.026982539555
   29          3.530697220000        -0.036166538542
   30          1.678108190000        -0.015278047267
   31          0.683391650000        -0.001183752143
   32          0.276466560000        -0.000010411424
   33          0.105540690000        -0.000033305545
   34          0.042216280000         0.000005227876
   35     178109.355000000010         0.000000077518
   36      27138.037499999999         0.000000402304
   37       6512.317450000000         0.000001936280
   38       2033.629170000000         0.000008579005
   39        749.824546000000         0.000034468630
   40        308.463093000000         0.000116311945
   41        137.031449000000         0.000321332927
   42         64.114040700000         0.000636231714
   43         31.107038200000         0.000795020908
   44         15.366235600000        -0.000136785478
   45          7.391254080000        -0.001958658560
   46          3.530697220000        -0.003165372216
   47          1.678108190000        -0.000554550717
   48          0.683391650000         0.006175220699
   49          0.276466560000         0.008316212819
   50          0.105540690000         0.003063373935
   51          0.042216280000         0.000016624487
   52     178109.355000000010         0.000000094613
   53      27138.037499999999         0.000000487495
   54       6512.317450000000         0.000002378783
   55       2033.629170000000         0.000010340667
   56        749.824546000000         0.000042514534
   57        308.463093000000         0.000139966064
   58        137.031449000000         0.000399043349
   59         64.114040700000         0.000759089344
   60         31.107038200000         0.001019524238
   61         15.366235600000        -0.000292862291
   62          7.391254080000        -0.002393783181
   63          3.530697220000        -0.004324192919
   64          1.678108190000        -0.000442806928
   65          0.683391650000         0.017169246677
   66          0.276466560000        -0.003554975546
   67          0.105540690000        -0.013041624564
   68          0.042216280000        -0.000580781479
 P 66
    1     178109.355000000010        -0.000003347525
    2      27138.037499999999        -0.000017398055
    3       6512.317450000000        -0.000083131066
    4       2033.629170000000        -0.000368757261
    5        749.824546000000        -0.001453677326
    6        308.463093000000        -0.004828813797
    7        137.031449000000        -0.012636747644
    8         64.114040700000        -0.023848659777
    9         31.107038200000        -0.027796533120
   10         15.366235600000        -0.014994498373
   11          7.391254080000        -0.002504605251
   12          3.530697220000        -0.000094667049
   13          1.678108190000        -0.000033510203
   14          0.683391650000         0.000005281221
   15          0.276466560000        -0.000001118569
   16     178109.355000000010         0.000018009386
   17      27138.037499999999         0.000093680146
   18       6512.317450000000         0.000449020318
   19       2033.629170000000         0.001998904760
   20        749.824546000000         0.007969520608
   21        308.463093000000         0.027007449336
   22        137.031449000000         0.073604782277
   23         64.114040700000         0.146216120200
   24         31.107038200000         0.177873820237
   25         15.366235600000        -0.003976284435
   26          7.391254080000        -0.369582080734
   27          3.530697220000        -0.495376076075
   28          1.678108190000        -0.209264679733
   29          0.683391650000        -0.016213951215
   30          0.276466560000        -0.000142606134
   31          0.105540690000        -0.000456188817
   32          0.042216280000         0.000071606651
   33     178109.355000000010         0.000000703855
   34      27138.037499999999         0.000003652883
   35       6512.317450000000         0.000017581221
   36       2033.629170000000         0.000077896491
   37        749.824546000000         0.000312971636
   38        308.463093000000         0.001056100552
   39        137.031449000000         0.002917670079
   40         64.114040700000         0.005776918824
   41         31.107038200000         0.007218708453
   42         15.366235600000        -0.001241998139
   43          7.391254080000        -0.017784419200
   44          3.530697220000        -0.028741255649
   45          1.678108190000        -0.005035263732
   46          0.683391650000         0.056070371728
   47          0.276466560000         0.075510360992
   48          0.105540690000         0.027815121700
   49          0.042216280000         0.000150948642
   50     178109.355000000010         0.000000756981
   51      27138.037499999999         0.000003900379
   52       6512.317450000000         0.000019032309
   53       2033.629170000000         0.000082734220
   54        749.824546000000         0.000340152809
   55        308.463093000000         0.001119848805
   56        137.031449000000         0.003192689747
   57         64.114040700000         0.006073367149
   58         31.107038200000         0.008157070133
   59         15.366235600000        -0.002343150027
   60          7.391254080000        -0.019152322784
   61          3.530697220000        -0.034597259775
   62          1.678108190000        -0.003542835994
   63          0.683391650000         0.137368729503
   64          0.276466560000        -0.028442859689
   65          0.105540690000        -0.104344205121
   66          0.042216280000        -0.004646750982
 P 65
    1     178109.355000000010        -0.000000355543
    2      27138.037499999999        -0.000001847859
    3       6512.317450000000        -0.000008829407
    4       2033.629170000000        -0.000039165957
    5        749.824546000000        -0.000154396048
    6        308.463093000000        -0.000512871566
    7        137.031449000000        -0.001342157479
    8         64.114040700000        -0.002532982219
    9         31.107038200000        -0.002952288506
   10         15.366235600000        -0.001592575772
   11          7.391254080000        -0.000266015811
   12          3.530697220000        -0.000010054651
   13          1.678108190000        -0.000003559141
   14          0.683391650000         0.000000560922
   15     178109.355000000010        -0.000003458335
   16      27138.037499999999        -0.000017989360
   17       6512.317450000000        -0.000086225189
   18       2033.629170000000        -0.000383848868
   19        749.824546000000        -0.001530383802
   20        308.463093000000        -0.005186229516
   21        137.031449000000        -0.014134296418
   22         64.114040700000        -0.028077822120
   23         31.107038200000        -0.034157037388
   24         15.366235600000         0.000763564284
   25          7.391254080000         0.070970696715
   26          3.530697220000         0.095126866501
   27          1.678108190000         0.040185011376
   28          0.683391650000         0.003113558460
   29          0.276466560000         0.000027384598
   30          0.105540690000         0.000087601753
   31          0.042216280000        -0.000013750596
   32     178109.355000000010         0.000004051295
   33      27138.037499999999         0.000021025509
   34       6512.317450000000         0.000101195170
   35       2033.629170000000         0.000448361835
   36        749.824546000000         0.001801423080
   37        308.463093000000         0.006078774214
   38        137.031449000000         0.016793720638
   39         64.114040700000         0.033251175846
   40         31.107038200000         0.041549925053
   41         15.366235600000        -0.007148775982
   42          7.391254080000        -0.102364749825
   43          3.530697220000        -0.165430842079
   44          1.678108190000        -0.028982307854
   45          0.683391650000         0.322733596753
   46          0.276466560000         0.434627587511
   47          0.105540690000         0.160100138335
   48          0.042216280000         0.000868840294
   49     178109.355000000010         0.000003420036
   50      27138.037499999999         0.000017621880
   51       6512.317450000000         0.000085987816
   52       2033.629170000000         0.000373792526
   53        749.824546000000         0.001536807590
   54        308.463093000000         0.005059467677
   55        137.031449000000         0.014424545980
   56         64.114040700000         0.027439422753
   57         31.107038200000         0.036853575673
   58         15.366235600000        -0.010586332520
   59          7.391254080000        -0.086530036583
   60          3.530697220000        -0.156310134690
   61          1.678108190000        -0.016006503840
   62          0.683391650000         0.620630788406
   63          0.276466560000        -0.128504605797
   64          0.105540690000        -0.471426259266
   65          0.042216280000        -0.020993982660
 P 64
    1     178109.355000000010        -0.000000104617
    2      27138.037499999999        -0.000000543725
    3       6512.317450000000        -0.000002598018
    4       2033.629170000000        -0.000011524427
    5        749.824546000000        -0.000045430424
    6        308.463093000000        -0.000150910423
    7        137.031449000000        -0.000394924513
    8         64.114040700000        -0.000745319968
    9         31.107038200000        -0.000868699179
   10         15.366235600000        -0.000468609102
   11          7.391254080000        -0.000078274097
   12          3.530697220000        -0.000002958541
   13          1.678108190000        -0.000001047263
   14          0.683391650000         0.000000165049
   15     178109.355000000010        -0.000000406499
   16      27138.037499999999        -0.000002114504
   17       6512.317450000000        -0.000010135075
   18       2033.629170000000        -0.000045118337
   19        749.824546000000        -0.000179884268
   20        308.463093000000        -0.000609599434
   21        137.031449000000        -0.001661372499
   22         64.114040700000        -0.003300321440
   23         31.107038200000        -0.004014884143
   24         15.366235600000         0.000089750821
   25          7.391254080000         0.008342032760
   26          3.530697220000         0.011181395611
   27          1.678108190000         0.004723423848
   28          0.683391650000         0.000365973675
   29          0.276466560000         0.000003218839
   30          0.105540690000         0.000010296879
   31     178109.355000000010        -0.000003032769
   32      27138.037499999999        -0.000015739535
   33       6512.317450000000        -0.000075753933
   34       2033.629170000000        -0.000335640251
   35        749.824546000000        -0.001348531584
   36        308.463093000000        -0.004550524033
   37        137.031449000000        -0.012571651238
   38         64.114040700000        -0.024891576738
   39         31.107038200000        -0.031103957127
   40         15.366235600000         0.005351519199
   41          7.391254080000         0.076629471311
   42          3.530697220000         0.123840267169
   43          1.678108190000         0.021695934704
   44          0.683391650000        -0.241595910073
   45          0.276466560000        -0.325358898498
   46          0.105540690000        -0.119849742987
   47          0.042216280000        -0.000650407220
   48     178109.355000000010         0.000004746723
   49      27138.037499999999         0.000024457693
   50       6512.317450000000         0.000119343888
   51       2033.629170000000         0.000518792726
   52        749.824546000000         0.002132960248
   53        308.463093000000         0.007022117473
   54        137.031449000000         0.020020061960
   55         64.114040700000         0.038083621100
   56         31.107038200000         0.051149677044
   57         15.366235600000        -0.014692943076
   58          7.391254080000        -0.120096445054
   59          3.530697220000        -0.216945378086
   60          1.678108190000        -0.022215687001
   61          0.683391650000         0.861383564854
   62          0.276466560000        -0.178353632319
   63          0.105540690000        -0.654300172274
   64          0.042216280000        -0.029137889970
 D 22
    1        624.475513000000         0.000644421800
    2        265.735250000000         0.002247028047
    3        116.709586000000         0.013437104371
    4         50.306071000000         0.051626275778
    5         23.036081700000         0.147560808885
    6         10.586238100000         0.299364098230
    7          4.798113940000         0.382432589370
    8          2.133543170000         0.288652050093
    9          0.857316380000         0.082788600316
   10          0.342926550000         0.000347122158
   11          0.137170620000         0.001642113523
   12        624.475513000000         0.000032929064
   13        265.735250000000         0.000128665396
   14        116.709586000000         0.000698196193
   15         50.306071000000         0.002852837531
   16         23.036081700000         0.007778320068
   17         10.586238100000         0.017298610396
   18          4.798113940000         0.020261595756
   19          2.133543170000         0.019018688473
   20          0.857316380000        -0.076046420815
   21          0.342926550000        -0.104875150711
   22          0.137170620000        -0.016421809619
 D 22
    1        624.475513000000        -0.000112045838
    2        265.735250000000        -0.000390691533
    3        116.709586000000        -0.002336313922
    4         50.306071000000        -0.008976278184
    5         23.036081700000        -0.025656448187
    6         10.586238100000        -0.052050537899
    7          4.798113940000        -0.066493684796
    8          2.133543170000        -0.050188030435
    9          0.857316380000        -0.014394482184
   10          0.342926550000        -0.000060354248
   11          0.137170620000        -0.000285514839
   12        624.475513000000         0.000189388621
   13        265.735250000000         0.000740007738
   14        116.709586000000         0.004015614141
   15         50.306071000000         0.016407844740
   16         23.036081700000         0.044736325367
   17         10.586238100000         0.099491439840
   18          4.798113940000         0.116532790159
   19          2.133543170000         0.109384317975
   20          0.857316380000        -0.437374316701
   21          0.342926550000        -0.603180227146
   22          0.137170620000        -0.094448597107
 F 4
    1          1.688892000000         0.101187760149
    2          0.675557000000         0.759109881121
    3          0.270223000000         0.250714540370
    4          0.108089000000         0.004406980007
 end
  // -----------------------------------------------
  // The basis set
  // -----------------------------------------------
  BAS[ATNO] = new BFNGauss[NSH];
  // Basis function   1 L = s
  InitBFNGauss(BAS[ATNO][  0]);
  BAS[ATNO][  0].l  = 0;
  BAS[ATNO][  0].ng = 99;
  BAS[ATNO][  0].a[  0] =  18535881.300000000745;     BAS[ATNO][  0].d[  0] =         0.000137341927;
  BAS[ATNO][  0].a[  1] =   2419299.990000000224;     BAS[ATNO][  0].d[  1] =         0.000443161683;
  BAS[ATNO][  0].a[  2] =    474949.065000000002;     BAS[ATNO][  0].d[  2] =         0.001295209560;
  BAS[ATNO][  0].a[  3] =    117392.346000000005;     BAS[ATNO][  0].d[  3] =         0.003458684863;
  BAS[ATNO][  0].a[  4] =     34065.440100000000;     BAS[ATNO][  0].d[  4] =         0.008980448239;
  BAS[ATNO][  0].a[  5] =     11133.885300000000;     BAS[ATNO][  0].d[  5] =         0.023267008234;
  BAS[ATNO][  0].a[  6] =      3988.280760000000;     BAS[ATNO][  0].d[  6] =         0.059846824600;
  BAS[ATNO][  0].a[  7] =      1534.678610000000;     BAS[ATNO][  0].d[  7] =         0.144115205504;
  BAS[ATNO][  0].a[  8] =       624.475513000000;     BAS[ATNO][  0].d[  8] =         0.287648247616;
  BAS[ATNO][  0].a[  9] =       265.735250000000;     BAS[ATNO][  0].d[  9] =         0.382459241190;
  BAS[ATNO][  0].a[ 10] =       116.709586000000;     BAS[ATNO][  0].d[ 10] =         0.227382188184;
  BAS[ATNO][  0].a[ 11] =        50.306071000000;     BAS[ATNO][  0].d[ 11] =         0.027101813602;
  BAS[ATNO][  0].a[ 12] =        23.036081700000;     BAS[ATNO][  0].d[ 12] =         0.000594151814;
  BAS[ATNO][  0].a[ 13] =        10.586238100000;     BAS[ATNO][  0].d[ 13] =        -0.000552217332;
  BAS[ATNO][  0].a[ 14] =         4.798113940000;     BAS[ATNO][  0].d[ 14] =         0.000380629912;
  BAS[ATNO][  0].a[ 15] =         2.133543170000;     BAS[ATNO][  0].d[ 15] =        -0.000271684248;
  BAS[ATNO][  0].a[ 16] =         0.857316380000;     BAS[ATNO][  0].d[ 16] =         0.000151510062;
  BAS[ATNO][  0].a[ 17] =         0.378404470000;     BAS[ATNO][  0].d[ 17] =        -0.000084018944;
  BAS[ATNO][  0].a[ 18] =         0.152386050000;     BAS[ATNO][  0].d[ 18] =         0.000035795290;
  BAS[ATNO][  0].a[ 19] =         0.060954420000;     BAS[ATNO][  0].d[ 19] =        -0.000009808709;
  BAS[ATNO][  0].a[ 20] =  18535881.300000000745;     BAS[ATNO][  0].d[ 20] =        -0.000000662325;
  BAS[ATNO][  0].a[ 21] =   2419299.990000000224;     BAS[ATNO][  0].d[ 21] =        -0.000002139429;
  BAS[ATNO][  0].a[ 22] =    474949.065000000002;     BAS[ATNO][  0].d[ 22] =        -0.000006264939;
  BAS[ATNO][  0].a[ 23] =    117392.346000000005;     BAS[ATNO][  0].d[ 23] =        -0.000016790442;
  BAS[ATNO][  0].a[ 24] =     34065.440100000000;     BAS[ATNO][  0].d[ 24] =        -0.000043902767;
  BAS[ATNO][  0].a[ 25] =     11133.885300000000;     BAS[ATNO][  0].d[ 25] =        -0.000115221876;
  BAS[ATNO][  0].a[ 26] =      3988.280760000000;     BAS[ATNO][  0].d[ 26] =        -0.000304513004;
  BAS[ATNO][  0].a[ 27] =      1534.678610000000;     BAS[ATNO][  0].d[ 27] =        -0.000776199093;
  BAS[ATNO][  0].a[ 28] =       624.475513000000;     BAS[ATNO][  0].d[ 28] =        -0.001759703414;
  BAS[ATNO][  0].a[ 29] =       265.735250000000;     BAS[ATNO][  0].d[ 29] =        -0.003045241595;
  BAS[ATNO][  0].a[ 30] =       116.709586000000;     BAS[ATNO][  0].d[ 30] =        -0.002436323718;
  BAS[ATNO][  0].a[ 31] =        50.306071000000;     BAS[ATNO][  0].d[ 31] =         0.004102969704;
  BAS[ATNO][  0].a[ 32] =        23.036081700000;     BAS[ATNO][  0].d[ 32] =         0.009673262570;
  BAS[ATNO][  0].a[ 33] =        10.586238100000;     BAS[ATNO][  0].d[ 33] =         0.003747346152;
  BAS[ATNO][  0].a[ 34] =         4.798113940000;     BAS[ATNO][  0].d[ 34] =         0.000153340124;
  BAS[ATNO][  0].a[ 35] =         2.133543170000;     BAS[ATNO][  0].d[ 35] =         0.000041959522;
  BAS[ATNO][  0].a[ 36] =         0.857316380000;     BAS[ATNO][  0].d[ 36] =        -0.000013758147;
  BAS[ATNO][  0].a[ 37] =         0.378404470000;     BAS[ATNO][  0].d[ 37] =         0.000006371286;
  BAS[ATNO][  0].a[ 38] =         0.152386050000;     BAS[ATNO][  0].d[ 38] =        -0.000002962389;
  BAS[ATNO][  0].a[ 39] =  18535881.300000000745;     BAS[ATNO][  0].d[ 39] =        -0.000000104603;
  BAS[ATNO][  0].a[ 40] =   2419299.990000000224;     BAS[ATNO][  0].d[ 40] =        -0.000000337903;
  BAS[ATNO][  0].a[ 41] =    474949.065000000002;     BAS[ATNO][  0].d[ 41] =        -0.000000989849;
  BAS[ATNO][  0].a[ 42] =    117392.346000000005;     BAS[ATNO][  0].d[ 42] =        -0.000002654047;
  BAS[ATNO][  0].a[ 43] =     34065.440100000000;     BAS[ATNO][  0].d[ 43] =        -0.000006946388;
  BAS[ATNO][  0].a[ 44] =     11133.885300000000;     BAS[ATNO][  0].d[ 44] =        -0.000018260492;
  BAS[ATNO][  0].a[ 45] =      3988.280760000000;     BAS[ATNO][  0].d[ 45] =        -0.000048433538;
  BAS[ATNO][  0].a[ 46] =      1534.678610000000;     BAS[ATNO][  0].d[ 46] =        -0.000124400367;
  BAS[ATNO][  0].a[ 47] =       624.475513000000;     BAS[ATNO][  0].d[ 47] =        -0.000286961472;
  BAS[ATNO][  0].a[ 48] =       265.735250000000;     BAS[ATNO][  0].d[ 48] =        -0.000515925551;
  BAS[ATNO][  0].a[ 49] =       116.709586000000;     BAS[ATNO][  0].d[ 49] =        -0.000441407879;
  BAS[ATNO][  0].a[ 50] =        50.306071000000;     BAS[ATNO][  0].d[ 50] =         0.000920913722;
  BAS[ATNO][  0].a[ 51] =        23.036081700000;     BAS[ATNO][  0].d[ 51] =         0.003111588780;
  BAS[ATNO][  0].a[ 52] =        10.586238100000;     BAS[ATNO][  0].d[ 52] =         0.001251894577;
  BAS[ATNO][  0].a[ 53] =         4.798113940000;     BAS[ATNO][  0].d[ 53] =        -0.004065117938;
  BAS[ATNO][  0].a[ 54] =         2.133543170000;     BAS[ATNO][  0].d[ 54] =        -0.003459877849;
  BAS[ATNO][  0].a[ 55] =         0.857316380000;     BAS[ATNO][  0].d[ 55] =        -0.000188397237;
  BAS[ATNO][  0].a[ 56] =         0.378404470000;     BAS[ATNO][  0].d[ 56] =        -0.000034954390;
  BAS[ATNO][  0].a[ 57] =         0.152386050000;     BAS[ATNO][  0].d[ 57] =         0.000014455579;
  BAS[ATNO][  0].a[ 58] =         0.060954420000;     BAS[ATNO][  0].d[ 58] =        -0.000004821074;
  BAS[ATNO][  0].a[ 59] =  18535881.300000000745;     BAS[ATNO][  0].d[ 59] =        -0.000000010707;
  BAS[ATNO][  0].a[ 60] =   2419299.990000000224;     BAS[ATNO][  0].d[ 60] =        -0.000000034584;
  BAS[ATNO][  0].a[ 61] =    474949.065000000002;     BAS[ATNO][  0].d[ 61] =        -0.000000101289;
  BAS[ATNO][  0].a[ 62] =    117392.346000000005;     BAS[ATNO][  0].d[ 62] =        -0.000000271580;
  BAS[ATNO][  0].a[ 63] =     34065.440100000000;     BAS[ATNO][  0].d[ 63] =        -0.000000710950;
  BAS[ATNO][  0].a[ 64] =     11133.885300000000;     BAS[ATNO][  0].d[ 64] =        -0.000001869347;
  BAS[ATNO][  0].a[ 65] =      3988.280760000000;     BAS[ATNO][  0].d[ 65] =        -0.000004961109;
  BAS[ATNO][  0].a[ 66] =      1534.678610000000;     BAS[ATNO][  0].d[ 66] =        -0.000012757497;
  BAS[ATNO][  0].a[ 67] =       624.475513000000;     BAS[ATNO][  0].d[ 67] =        -0.000029509875;
  BAS[ATNO][  0].a[ 68] =       265.735250000000;     BAS[ATNO][  0].d[ 68] =        -0.000053373142;
  BAS[ATNO][  0].a[ 69] =       116.709586000000;     BAS[ATNO][  0].d[ 69] =        -0.000046198789;
  BAS[ATNO][  0].a[ 70] =        50.306071000000;     BAS[ATNO][  0].d[ 70] =         0.000099715751;
  BAS[ATNO][  0].a[ 71] =        23.036081700000;     BAS[ATNO][  0].d[ 71] =         0.000357399333;
  BAS[ATNO][  0].a[ 72] =        10.586238100000;     BAS[ATNO][  0].d[ 72] =         0.000148590921;
  BAS[ATNO][  0].a[ 73] =         4.798113940000;     BAS[ATNO][  0].d[ 73] =        -0.000617917138;
  BAS[ATNO][  0].a[ 74] =         2.133543170000;     BAS[ATNO][  0].d[ 74] =        -0.000963491285;
  BAS[ATNO][  0].a[ 75] =         0.857316380000;     BAS[ATNO][  0].d[ 75] =         0.000394716822;
  BAS[ATNO][  0].a[ 76] =         0.378404470000;     BAS[ATNO][  0].d[ 76] =         0.001446409153;
  BAS[ATNO][  0].a[ 77] =         0.152386050000;     BAS[ATNO][  0].d[ 77] =         0.000546693239;
  BAS[ATNO][  0].a[ 78] =         0.060954420000;     BAS[ATNO][  0].d[ 78] =        -0.000001694721;
  BAS[ATNO][  0].a[ 79] =  18535881.300000000745;     BAS[ATNO][  0].d[ 79] =        -0.000000013953;
  BAS[ATNO][  0].a[ 80] =   2419299.990000000224;     BAS[ATNO][  0].d[ 80] =        -0.000000045101;
  BAS[ATNO][  0].a[ 81] =    474949.065000000002;     BAS[ATNO][  0].d[ 81] =        -0.000000131830;
  BAS[ATNO][  0].a[ 82] =    117392.346000000005;     BAS[ATNO][  0].d[ 82] =        -0.000000355292;
  BAS[ATNO][  0].a[ 83] =     34065.440100000000;     BAS[ATNO][  0].d[ 83] =        -0.000000920871;
  BAS[ATNO][  0].a[ 84] =     11133.885300000000;     BAS[ATNO][  0].d[ 84] =        -0.000002463555;
  BAS[ATNO][  0].a[ 85] =      3988.280760000000;     BAS[ATNO][  0].d[ 85] =        -0.000006369911;
  BAS[ATNO][  0].a[ 86] =      1534.678610000000;     BAS[ATNO][  0].d[ 86] =        -0.000017001090;
  BAS[ATNO][  0].a[ 87] =       624.475513000000;     BAS[ATNO][  0].d[ 87] =        -0.000037416153;
  BAS[ATNO][  0].a[ 88] =       265.735250000000;     BAS[ATNO][  0].d[ 88] =        -0.000073318476;
  BAS[ATNO][  0].a[ 89] =       116.709586000000;     BAS[ATNO][  0].d[ 89] =        -0.000051401410;
  BAS[ATNO][  0].a[ 90] =        50.306071000000;     BAS[ATNO][  0].d[ 90] =         0.000109031178;
  BAS[ATNO][  0].a[ 91] =        23.036081700000;     BAS[ATNO][  0].d[ 91] =         0.000551429918;
  BAS[ATNO][  0].a[ 92] =        10.586238100000;     BAS[ATNO][  0].d[ 92] =         0.000030751394;
  BAS[ATNO][  0].a[ 93] =         4.798113940000;     BAS[ATNO][  0].d[ 93] =        -0.000626453403;
  BAS[ATNO][  0].a[ 94] =         2.133543170000;     BAS[ATNO][  0].d[ 94] =        -0.002295531893;
  BAS[ATNO][  0].a[ 95] =         0.857316380000;     BAS[ATNO][  0].d[ 95] =         0.003850486068;
  BAS[ATNO][  0].a[ 96] =         0.378404470000;     BAS[ATNO][  0].d[ 96] =         0.000789939138;
  BAS[ATNO][  0].a[ 97] =         0.152386050000;     BAS[ATNO][  0].d[ 97] =        -0.002838501295;
  BAS[ATNO][  0].a[ 98] =         0.060954420000;     BAS[ATNO][  0].d[ 98] =        -0.000065434904;

  // Basis function   2 L = s
  InitBFNGauss(BAS[ATNO][  1]);
  BAS[ATNO][  1].l  = 0;
  BAS[ATNO][  1].ng = 98;
  BAS[ATNO][  1].a[  0] =  18535881.300000000745;     BAS[ATNO][  1].d[  0] =        -0.000002089541;
  BAS[ATNO][  1].a[  1] =   2419299.990000000224;     BAS[ATNO][  1].d[  1] =        -0.000006742330;
  BAS[ATNO][  1].a[  2] =    474949.065000000002;     BAS[ATNO][  1].d[  2] =        -0.000019705519;
  BAS[ATNO][  1].a[  3] =    117392.346000000005;     BAS[ATNO][  1].d[  3] =        -0.000052620967;
[...]
  BAS[ATNO][  7].a[ 21] =        64.114040700000;     BAS[ATNO][  7].d[ 21] =        -0.028077822120;
  BAS[ATNO][  7].a[ 22] =        31.107038200000;     BAS[ATNO][  7].d[ 22] =        -0.034157037388;
  BAS[ATNO][  7].a[ 23] =        15.366235600000;     BAS[ATNO][  7].d[ 23] =         0.000763564284;
  BAS[ATNO][  7].a[ 24] =         7.391254080000;     BAS[ATNO][  7].d[ 24] =         0.070970696715;
  BAS[ATNO][  7].a[ 25] =         3.530697220000;     BAS[ATNO][  7].d[ 25] =         0.095126866501;
  BAS[ATNO][  7].a[ 26] =         1.678108190000;     BAS[ATNO][  7].d[ 26] =         0.040185011376;
  BAS[ATNO][  7].a[ 27] =         0.683391650000;     BAS[ATNO][  7].d[ 27] =         0.003113558460;
  BAS[ATNO][  7].a[ 28] =         0.276466560000;     BAS[ATNO][  7].d[ 28] =         0.000027384598;
  BAS[ATNO][  7].a[ 29] =         0.105540690000;     BAS[ATNO][  7].d[ 29] =         0.000087601753;
  BAS[ATNO][  7].a[ 30] =         0.042216280000;     BAS[ATNO][  7].d[ 30] =        -0.000013750596;
  BAS[ATNO][  7].a[ 31] =    178109.355000000010;     BAS[ATNO][  7].d[ 31] =         0.000004051295;
  BAS[ATNO][  7].a[ 32] =     27138.037499999999;     BAS[ATNO][  7].d[ 32] =         0.000021025509;
  BAS[ATNO][  7].a[ 33] =      6512.317450000000;     BAS[ATNO][  7].d[ 33] =         0.000101195170;
  BAS[ATNO][  7].a[ 34] =      2033.629170000000;     BAS[ATNO][  7].d[ 34] =         0.000448361835;
  BAS[ATNO][  7].a[ 35] =       749.824546000000;     BAS[ATNO][  7].d[ 35] =         0.001801423080;
  BAS[ATNO][  7].a[ 36] =       308.463093000000;     BAS[ATNO][  7].d[ 36] =         0.006078774214;
  BAS[ATNO][  7].a[ 37] =       137.031449000000;     BAS[ATNO][  7].d[ 37] =         0.016793720638;
  BAS[ATNO][  7].a[ 38] =        64.114040700000;     BAS[ATNO][  7].d[ 38] =         0.033251175846;
  BAS[ATNO][  7].a[ 39] =        31.107038200000;     BAS[ATNO][  7].d[ 39] =         0.041549925053;
  BAS[ATNO][  7].a[ 40] =        15.366235600000;     BAS[ATNO][  7].d[ 40] =        -0.007148775982;
  BAS[ATNO][  7].a[ 41] =         7.391254080000;     BAS[ATNO][  7].d[ 41] =        -0.102364749825;
  BAS[ATNO][  7].a[ 42] =         3.530697220000;     BAS[ATNO][  7].d[ 42] =        -0.165430842079;
  BAS[ATNO][  7].a[ 43] =         1.678108190000;     BAS[ATNO][  7].d[ 43] =        -0.028982307854;
  BAS[ATNO][  7].a[ 44] =         0.683391650000;     BAS[ATNO][  7].d[ 44] =         0.322733596753;
  BAS[ATNO][  7].a[ 45] =         0.276466560000;     BAS[ATNO][  7].d[ 45] =         0.434627587511;
  BAS[ATNO][  7].a[ 46] =         0.105540690000;     BAS[ATNO][  7].d[ 46] =         0.160100138335;
  BAS[ATNO][  7].a[ 47] =         0.042216280000;     BAS[ATNO][  7].d[ 47] =         0.000868840294;
  BAS[ATNO][  7].a[ 48] =    178109.355000000010;     BAS[ATNO][  7].d[ 48] =         0.000003420036;
  BAS[ATNO][  7].a[ 49] =     27138.037499999999;     BAS[ATNO][  7].d[ 49] =         0.000017621880;
  BAS[ATNO][  7].a[ 50] =      6512.317450000000;     BAS[ATNO][  7].d[ 50] =         0.000085987816;
  BAS[ATNO][  7].a[ 51] =      2033.629170000000;     BAS[ATNO][  7].d[ 51] =         0.000373792526;
  BAS[ATNO][  7].a[ 52] =       749.824546000000;     BAS[ATNO][  7].d[ 52] =         0.001536807590;
  BAS[ATNO][  7].a[ 53] =       308.463093000000;     BAS[ATNO][  7].d[ 53] =         0.005059467677;
  BAS[ATNO][  7].a[ 54] =       137.031449000000;     BAS[ATNO][  7].d[ 54] =         0.014424545980;
  BAS[ATNO][  7].a[ 55] =        64.114040700000;     BAS[ATNO][  7].d[ 55] =         0.027439422753;
  BAS[ATNO][  7].a[ 56] =        31.107038200000;     BAS[ATNO][  7].d[ 56] =         0.036853575673;
  BAS[ATNO][  7].a[ 57] =        15.366235600000;     BAS[ATNO][  7].d[ 57] =        -0.010586332520;
  BAS[ATNO][  7].a[ 58] =         7.391254080000;     BAS[ATNO][  7].d[ 58] =        -0.086530036583;
  BAS[ATNO][  7].a[ 59] =         3.530697220000;     BAS[ATNO][  7].d[ 59] =        -0.156310134690;
  BAS[ATNO][  7].a[ 60] =         1.678108190000;     BAS[ATNO][  7].d[ 60] =        -0.016006503840;
  BAS[ATNO][  7].a[ 61] =         0.683391650000;     BAS[ATNO][  7].d[ 61] =         0.620630788406;
  BAS[ATNO][  7].a[ 62] =         0.276466560000;     BAS[ATNO][  7].d[ 62] =        -0.128504605797;
  BAS[ATNO][  7].a[ 63] =         0.105540690000;     BAS[ATNO][  7].d[ 63] =        -0.471426259266;
  BAS[ATNO][  7].a[ 64] =         0.042216280000;     BAS[ATNO][  7].d[ 64] =        -0.020993982660;

  // Basis function   9 L = p
  InitBFNGauss(BAS[ATNO][  8]);
  BAS[ATNO][  8].l  = 1;
  BAS[ATNO][  8].ng = 64;
  BAS[ATNO][  8].a[  0] =    178109.355000000010;     BAS[ATNO][  8].d[  0] =        -0.000000104617;
  BAS[ATNO][  8].a[  1] =     27138.037499999999;     BAS[ATNO][  8].d[  1] =        -0.000000543725;
  BAS[ATNO][  8].a[  2] =      6512.317450000000;     BAS[ATNO][  8].d[  2] =        -0.000002598018;
  BAS[ATNO][  8].a[  3] =      2033.629170000000;     BAS[ATNO][  8].d[  3] =        -0.000011524427;
  BAS[ATNO][  8].a[  4] =       749.824546000000;     BAS[ATNO][  8].d[  4] =        -0.000045430424;
  BAS[ATNO][  8].a[  5] =       308.463093000000;     BAS[ATNO][  8].d[  5] =        -0.000150910423;
  BAS[ATNO][  8].a[  6] =       137.031449000000;     BAS[ATNO][  8].d[  6] =        -0.000394924513;
  BAS[ATNO][  8].a[  7] =        64.114040700000;     BAS[ATNO][  8].d[  7] =        -0.000745319968;
  BAS[ATNO][  8].a[  8] =        31.107038200000;     BAS[ATNO][  8].d[  8] =        -0.000868699179;
  BAS[ATNO][  8].a[  9] =        15.366235600000;     BAS[ATNO][  8].d[  9] =        -0.000468609102;
  BAS[ATNO][  8].a[ 10] =         7.391254080000;     BAS[ATNO][  8].d[ 10] =        -0.000078274097;
  BAS[ATNO][  8].a[ 11] =         3.530697220000;     BAS[ATNO][  8].d[ 11] =        -0.000002958541;
  BAS[ATNO][  8].a[ 12] =         1.678108190000;     BAS[ATNO][  8].d[ 12] =        -0.000001047263;
  BAS[ATNO][  8].a[ 13] =         0.683391650000;     BAS[ATNO][  8].d[ 13] =         0.000000165049;
  BAS[ATNO][  8].a[ 14] =    178109.355000000010;     BAS[ATNO][  8].d[ 14] =        -0.000000406499;
  BAS[ATNO][  8].a[ 15] =     27138.037499999999;     BAS[ATNO][  8].d[ 15] =        -0.000002114504;
  BAS[ATNO][  8].a[ 16] =      6512.317450000000;     BAS[ATNO][  8].d[ 16] =        -0.000010135075;
  BAS[ATNO][  8].a[ 17] =      2033.629170000000;     BAS[ATNO][  8].d[ 17] =        -0.000045118337;
  BAS[ATNO][  8].a[ 18] =       749.824546000000;     BAS[ATNO][  8].d[ 18] =        -0.000179884268;
  BAS[ATNO][  8].a[ 19] =       308.463093000000;     BAS[ATNO][  8].d[ 19] =        -0.000609599434;
  BAS[ATNO][  8].a[ 20] =       137.031449000000;     BAS[ATNO][  8].d[ 20] =        -0.001661372499;
  BAS[ATNO][  8].a[ 21] =        64.114040700000;     BAS[ATNO][  8].d[ 21] =        -0.003300321440;
  BAS[ATNO][  8].a[ 22] =        31.107038200000;     BAS[ATNO][  8].d[ 22] =        -0.004014884143;
  BAS[ATNO][  8].a[ 23] =        15.366235600000;     BAS[ATNO][  8].d[ 23] =         0.000089750821;
  BAS[ATNO][  8].a[ 24] =         7.391254080000;     BAS[ATNO][  8].d[ 24] =         0.008342032760;
  BAS[ATNO][  8].a[ 25] =         3.530697220000;     BAS[ATNO][  8].d[ 25] =         0.011181395611;
  BAS[ATNO][  8].a[ 26] =         1.678108190000;     BAS[ATNO][  8].d[ 26] =         0.004723423848;
  BAS[ATNO][  8].a[ 27] =         0.683391650000;     BAS[ATNO][  8].d[ 27] =         0.000365973675;
  BAS[ATNO][  8].a[ 28] =         0.276466560000;     BAS[ATNO][  8].d[ 28] =         0.000003218839;
  BAS[ATNO][  8].a[ 29] =         0.105540690000;     BAS[ATNO][  8].d[ 29] =         0.000010296879;
  BAS[ATNO][  8].a[ 30] =    178109.355000000010;     BAS[ATNO][  8].d[ 30] =        -0.000003032769;
  BAS[ATNO][  8].a[ 31] =     27138.037499999999;     BAS[ATNO][  8].d[ 31] =        -0.000015739535;
  BAS[ATNO][  8].a[ 32] =      6512.317450000000;     BAS[ATNO][  8].d[ 32] =        -0.000075753933;
  BAS[ATNO][  8].a[ 33] =      2033.629170000000;     BAS[ATNO][  8].d[ 33] =        -0.000335640251;
  BAS[ATNO][  8].a[ 34] =       749.824546000000;     BAS[ATNO][  8].d[ 34] =        -0.001348531584;
  BAS[ATNO][  8].a[ 35] =       308.463093000000;     BAS[ATNO][  8].d[ 35] =        -0.004550524033;
  BAS[ATNO][  8].a[ 36] =       137.031449000000;     BAS[ATNO][  8].d[ 36] =        -0.012571651238;
  BAS[ATNO][  8].a[ 37] =        64.114040700000;     BAS[ATNO][  8].d[ 37] =        -0.024891576738;
  BAS[ATNO][  8].a[ 38] =        31.107038200000;     BAS[ATNO][  8].d[ 38] =        -0.031103957127;
  BAS[ATNO][  8].a[ 39] =        15.366235600000;     BAS[ATNO][  8].d[ 39] =         0.005351519199;
  BAS[ATNO][  8].a[ 40] =         7.391254080000;     BAS[ATNO][  8].d[ 40] =         0.076629471311;
  BAS[ATNO][  8].a[ 41] =         3.530697220000;     BAS[ATNO][  8].d[ 41] =         0.123840267169;
  BAS[ATNO][  8].a[ 42] =         1.678108190000;     BAS[ATNO][  8].d[ 42] =         0.021695934704;
  BAS[ATNO][  8].a[ 43] =         0.683391650000;     BAS[ATNO][  8].d[ 43] =        -0.241595910073;
  BAS[ATNO][  8].a[ 44] =         0.276466560000;     BAS[ATNO][  8].d[ 44] =        -0.325358898498;
  BAS[ATNO][  8].a[ 45] =         0.105540690000;     BAS[ATNO][  8].d[ 45] =        -0.119849742987;
  BAS[ATNO][  8].a[ 46] =         0.042216280000;     BAS[ATNO][  8].d[ 46] =        -0.000650407220;
  BAS[ATNO][  8].a[ 47] =    178109.355000000010;     BAS[ATNO][  8].d[ 47] =         0.000004746723;
  BAS[ATNO][  8].a[ 48] =     27138.037499999999;     BAS[ATNO][  8].d[ 48] =         0.000024457693;
  BAS[ATNO][  8].a[ 49] =      6512.317450000000;     BAS[ATNO][  8].d[ 49] =         0.000119343888;
  BAS[ATNO][  8].a[ 50] =      2033.629170000000;     BAS[ATNO][  8].d[ 50] =         0.000518792726;
  BAS[ATNO][  8].a[ 51] =       749.824546000000;     BAS[ATNO][  8].d[ 51] =         0.002132960248;
  BAS[ATNO][  8].a[ 52] =       308.463093000000;     BAS[ATNO][  8].d[ 52] =         0.007022117473;
  BAS[ATNO][  8].a[ 53] =       137.031449000000;     BAS[ATNO][  8].d[ 53] =         0.020020061960;
  BAS[ATNO][  8].a[ 54] =        64.114040700000;     BAS[ATNO][  8].d[ 54] =         0.038083621100;
  BAS[ATNO][  8].a[ 55] =        31.107038200000;     BAS[ATNO][  8].d[ 55] =         0.051149677044;
  BAS[ATNO][  8].a[ 56] =        15.366235600000;     BAS[ATNO][  8].d[ 56] =        -0.014692943076;
  BAS[ATNO][  8].a[ 57] =         7.391254080000;     BAS[ATNO][  8].d[ 57] =        -0.120096445054;
  BAS[ATNO][  8].a[ 58] =         3.530697220000;     BAS[ATNO][  8].d[ 58] =        -0.216945378086;
  BAS[ATNO][  8].a[ 59] =         1.678108190000;     BAS[ATNO][  8].d[ 59] =        -0.022215687001;
  BAS[ATNO][  8].a[ 60] =         0.683391650000;     BAS[ATNO][  8].d[ 60] =         0.861383564854;
  BAS[ATNO][  8].a[ 61] =         0.276466560000;     BAS[ATNO][  8].d[ 61] =        -0.178353632319;
  BAS[ATNO][  8].a[ 62] =         0.105540690000;     BAS[ATNO][  8].d[ 62] =        -0.654300172274;
  BAS[ATNO][  8].a[ 63] =         0.042216280000;     BAS[ATNO][  8].d[ 63] =        -0.029137889970;

  // Basis function  10 L = d
  InitBFNGauss(BAS[ATNO][  9]);
  BAS[ATNO][  9].l  = 2;
  BAS[ATNO][  9].ng = 22;
  BAS[ATNO][  9].a[  0] =       624.475513000000;     BAS[ATNO][  9].d[  0] =         0.000644421800;
  BAS[ATNO][  9].a[  1] =       265.735250000000;     BAS[ATNO][  9].d[  1] =         0.002247028047;
  BAS[ATNO][  9].a[  2] =       116.709586000000;     BAS[ATNO][  9].d[  2] =         0.013437104371;
  BAS[ATNO][  9].a[  3] =        50.306071000000;     BAS[ATNO][  9].d[  3] =         0.051626275778;
  BAS[ATNO][  9].a[  4] =        23.036081700000;     BAS[ATNO][  9].d[  4] =         0.147560808885;
  BAS[ATNO][  9].a[  5] =        10.586238100000;     BAS[ATNO][  9].d[  5] =         0.299364098230;
  BAS[ATNO][  9].a[  6] =         4.798113940000;     BAS[ATNO][  9].d[  6] =         0.382432589370;
  BAS[ATNO][  9].a[  7] =         2.133543170000;     BAS[ATNO][  9].d[  7] =         0.288652050093;
  BAS[ATNO][  9].a[  8] =         0.857316380000;     BAS[ATNO][  9].d[  8] =         0.082788600316;
  BAS[ATNO][  9].a[  9] =         0.342926550000;     BAS[ATNO][  9].d[  9] =         0.000347122158;
  BAS[ATNO][  9].a[ 10] =         0.137170620000;     BAS[ATNO][  9].d[ 10] =         0.001642113523;
  BAS[ATNO][  9].a[ 11] =       624.475513000000;     BAS[ATNO][  9].d[ 11] =         0.000032929064;
  BAS[ATNO][  9].a[ 12] =       265.735250000000;     BAS[ATNO][  9].d[ 12] =         0.000128665396;
  BAS[ATNO][  9].a[ 13] =       116.709586000000;     BAS[ATNO][  9].d[ 13] =         0.000698196193;
  BAS[ATNO][  9].a[ 14] =        50.306071000000;     BAS[ATNO][  9].d[ 14] =         0.002852837531;
  BAS[ATNO][  9].a[ 15] =        23.036081700000;     BAS[ATNO][  9].d[ 15] =         0.007778320068;
  BAS[ATNO][  9].a[ 16] =        10.586238100000;     BAS[ATNO][  9].d[ 16] =         0.017298610396;
  BAS[ATNO][  9].a[ 17] =         4.798113940000;     BAS[ATNO][  9].d[ 17] =         0.020261595756;
  BAS[ATNO][  9].a[ 18] =         2.133543170000;     BAS[ATNO][  9].d[ 18] =         0.019018688473;
  BAS[ATNO][  9].a[ 19] =         0.857316380000;     BAS[ATNO][  9].d[ 19] =        -0.076046420815;
  BAS[ATNO][  9].a[ 20] =         0.342926550000;     BAS[ATNO][  9].d[ 20] =        -0.104875150711;
  BAS[ATNO][  9].a[ 21] =         0.137170620000;     BAS[ATNO][  9].d[ 21] =        -0.016421809619;

  // Basis function  11 L = d
  InitBFNGauss(BAS[ATNO][ 10]);
  BAS[ATNO][ 10].l  = 2;
  BAS[ATNO][ 10].ng = 22;
  BAS[ATNO][ 10].a[  0] =       624.475513000000;     BAS[ATNO][ 10].d[  0] =         0.000112045838;
  BAS[ATNO][ 10].a[  1] =       265.735250000000;     BAS[ATNO][ 10].d[  1] =         0.000390691533;
  BAS[ATNO][ 10].a[  2] =       116.709586000000;     BAS[ATNO][ 10].d[  2] =         0.002336313922;
  BAS[ATNO][ 10].a[  3] =        50.306071000000;     BAS[ATNO][ 10].d[  3] =         0.008976278184;
  BAS[ATNO][ 10].a[  4] =        23.036081700000;     BAS[ATNO][ 10].d[  4] =         0.025656448187;
  BAS[ATNO][ 10].a[  5] =        10.586238100000;     BAS[ATNO][ 10].d[  5] =         0.052050537899;
  BAS[ATNO][ 10].a[  6] =         4.798113940000;     BAS[ATNO][ 10].d[  6] =         0.066493684796;
  BAS[ATNO][ 10].a[  7] =         2.133543170000;     BAS[ATNO][ 10].d[  7] =         0.050188030435;
  BAS[ATNO][ 10].a[  8] =         0.857316380000;     BAS[ATNO][ 10].d[  8] =         0.014394482184;
  BAS[ATNO][ 10].a[  9] =         0.342926550000;     BAS[ATNO][ 10].d[  9] =         0.000060354248;
  BAS[ATNO][ 10].a[ 10] =         0.137170620000;     BAS[ATNO][ 10].d[ 10] =         0.000285514839;
  BAS[ATNO][ 10].a[ 11] =       624.475513000000;     BAS[ATNO][ 10].d[ 11] =        -0.000189388621;
  BAS[ATNO][ 10].a[ 12] =       265.735250000000;     BAS[ATNO][ 10].d[ 12] =        -0.000740007738;
  BAS[ATNO][ 10].a[ 13] =       116.709586000000;     BAS[ATNO][ 10].d[ 13] =        -0.004015614141;
  BAS[ATNO][ 10].a[ 14] =        50.306071000000;     BAS[ATNO][ 10].d[ 14] =        -0.016407844740;
  BAS[ATNO][ 10].a[ 15] =        23.036081700000;     BAS[ATNO][ 10].d[ 15] =        -0.044736325367;
  BAS[ATNO][ 10].a[ 16] =        10.586238100000;     BAS[ATNO][ 10].d[ 16] =        -0.099491439840;
  BAS[ATNO][ 10].a[ 17] =         4.798113940000;     BAS[ATNO][ 10].d[ 17] =        -0.116532790159;
  BAS[ATNO][ 10].a[ 18] =         2.133543170000;     BAS[ATNO][ 10].d[ 18] =        -0.109384317975;
  BAS[ATNO][ 10].a[ 19] =         0.857316380000;     BAS[ATNO][ 10].d[ 19] =         0.437374316701;
  BAS[ATNO][ 10].a[ 20] =         0.342926550000;     BAS[ATNO][ 10].d[ 20] =         0.603180227146;
  BAS[ATNO][ 10].a[ 21] =         0.137170620000;     BAS[ATNO][ 10].d[ 21] =         0.094448597107;

  // Basis function  12 L = f
  InitBFNGauss(BAS[ATNO][ 11]);
  BAS[ATNO][ 11].l  = 3;
  BAS[ATNO][ 11].ng = 4;
  BAS[ATNO][ 11].a[  0] =         1.688892000000;     BAS[ATNO][ 11].d[  0] =         0.101187760149;
  BAS[ATNO][ 11].a[  1] =         0.675557000000;     BAS[ATNO][ 11].d[  1] =         0.759109881121;
  BAS[ATNO][ 11].a[  2] =         0.270223000000;     BAS[ATNO][ 11].d[  2] =         0.250714540370;
  BAS[ATNO][ 11].a[  3] =         0.108089000000;     BAS[ATNO][ 11].d[  3] =         0.004406980007;

-------
TIMINGS
-------

Total SCF time: 0 days 0 hours 0 min 21 sec 

Total time                  ....      21.928 sec
Sum of individual times     ....      21.571 sec  ( 98.4%)

Fock matrix formation       ....      20.854 sec  ( 95.1%)
  XC integration            ....       0.045 sec  (  0.2% of F)
    Basis function eval.    ....       0.019 sec  ( 41.5% of XC)
    Density eval.           ....       0.001 sec  (  3.2% of XC)
    XC-Functional eval.     ....       0.002 sec  (  5.2% of XC)
    XC-Potential eval.      ....       0.002 sec  (  3.3% of XC)
Diagonalization             ....       0.001 sec  (  0.0%)
Density matrix formation    ....       0.001 sec  (  0.0%)
Population analysis         ....       0.001 sec  (  0.0%)
Initial guess               ....       0.079 sec  (  0.4%)
Orbital Transformation      ....       0.000 sec  (  0.0%)
Orbital Orthonormalization  ....       0.000 sec  (  0.0%)
DIIS solution               ....       0.000 sec  (  0.0%)
SOSCF solution              ....       0.001 sec  (  0.0%)
Grid generation             ....       0.636 sec  (  2.9%)

-------------------------   --------------------
FINAL SINGLE POINT ENERGY     -1249.285007267111
-------------------------   --------------------


                            ***************************************
                            *     ORCA property calculations      *
                            ***************************************

                                    ---------------------
                                    Active property flags
                                    ---------------------
   (+) Dipole Moment


------------------------------------------------------------------------------
                       ORCA ELECTRIC PROPERTIES CALCULATION
------------------------------------------------------------------------------

Dipole Moment Calculation                       ... on
Quadrupole Moment Calculation                   ... off
Polarizability Calculation                      ... off
GBWName                                         ... Kr_ano-rcc-dzp_4385.151648_.gbw
Electron density file                           ... Kr_ano-rcc-dzp_4385.151648_.scfp
The origin for moment calculation is the CENTER OF MASS  = ( 0.000000,  0.000000  0.000000)

-------------
DIPOLE MOMENT
-------------
                                X             Y             Z
Electronic contribution:      0.00000       0.00000      -0.00000
Nuclear contribution   :      0.00000       0.00000       0.00000
                        -----------------------------------------
Total Dipole Moment    :      0.00000       0.00000      -0.00000
                        -----------------------------------------
Magnitude (a.u.)       :      0.00000
Magnitude (Debye)      :      0.00000



--------------------
Rotational spectrum 
--------------------
 
Rotational constants in cm-1:     0.000000     0.000000     0.000000 
Rotational constants in MHz :     0.000000     0.000000     0.000000 

 Dipole components along the rotational axes: 
x,y,z [a.u.] :     0.000000     0.000000    -0.000000 
x,y,z [Debye]:     0.000000     0.000000    -0.000000 

 

Timings for individual modules:

Sum of individual times         ...       23.412 sec (=   0.390 min)
GTO integral calculation        ...        0.725 sec (=   0.012 min)   3.1 %
Relativistic integrals          ...        0.460 sec (=   0.008 min)   2.0 %
SCF iterations                  ...       22.227 sec (=   0.370 min)  94.9 %
                             ****ORCA TERMINATED NORMALLY****
TOTAL RUN TIME: 0 days 0 hours 0 minutes 23 seconds 787 msec
