
                                 *****************
                                 * O   R   C   A *
                                 *****************

           --- An Ab Initio, DFT and Semiempirical electronic structure package ---

                  #######################################################
                  #                        -***-                        #
                  #          Department of theory and spectroscopy      #
                  #               Directorship: Frank Neese             #
                  #        Max Planck Institute fuer Kohlenforschung    #
                  #                Kaiser Wilhelm Platz 1               #
                  #                 D-45470 Muelheim/Ruhr               #
                  #                      Germany                        #
                  #                                                     #
                  #                  All rights reserved                #
                  #                        -***-                        #
                  #######################################################


                         Program Version 4.2.1 -  RELEASE  -


 With contributions from (in alphabetic order):
   Daniel Aravena         : Magnetic Suceptibility
   Michael Atanasov       : Ab Initio Ligand Field Theory (pilot matlab implementation)
   Alexander A. Auer      : GIAO ZORA, VPT2
   Ute Becker             : Parallelization
   Giovanni Bistoni       : ED, misc. LED, open-shell LED, HFLD
   Martin Brehm           : Molecular dynamics
   Dmytro Bykov           : SCF Hessian
   Vijay G. Chilkuri      : MRCI spin determinant printing, contributions to CSF-ICE
   Dipayan Datta          : RHF DLPNO-CCSD density
   Achintya Kumar Dutta   : EOM-CC, STEOM-CC
   Dmitry Ganyushin       : Spin-Orbit,Spin-Spin,Magnetic field MRCI
   Miquel Garcia          : C-PCM Hessian, Gaussian charge scheme
   Yang Guo               : DLPNO-NEVPT2, CIM, IAO-localization
   Andreas Hansen         : Spin unrestricted coupled pair/coupled cluster methods
   Benjamin Helmich-Paris : CASSCF linear response (MC-RPA)
   Lee Huntington         : MR-EOM, pCC
   Robert Izsak           : Overlap fitted RIJCOSX, COSX-SCS-MP3, EOM
   Christian Kollmar      : KDIIS, OOCD, Brueckner-CCSD(T), CCSD density
   Simone Kossmann        : Meta GGA functionals, TD-DFT gradient, OOMP2, MP2 Hessian
   Martin Krupicka        : AUTO-CI
   Lucas Lang             : DCDCAS
   Dagmar Lenk            : GEPOL surface, SMD
   Dimitrios Liakos       : Extrapolation schemes; Compound Job, initial MDCI parallelization
   Dimitrios Manganas     : Further ROCIS development; embedding schemes
   Dimitrios Pantazis     : SARC Basis sets
   Taras Petrenko         : DFT Hessian,TD-DFT gradient, ASA, ECA, R-Raman, ABS, FL, XAS/XES, NRVS
   Peter Pinski           : DLPNO-MP2, DLPNO-MP2 Gradient
   Christoph Reimann      : Effective Core Potentials
   Marius Retegan         : Local ZFS, SOC
   Christoph Riplinger    : Optimizer, TS searches, QM/MM, DLPNO-CCSD(T), (RO)-DLPNO pert. Triples
   Tobias Risthaus        : Range-separated hybrids, TD-DFT gradient, RPA, STAB
   Michael Roemelt        : Original ROCIS implementation
   Masaaki Saitow         : Open-shell DLPNO-CCSD energy and density
   Barbara Sandhoefer     : DKH picture change effects
   Avijit Sen             : IP-ROCIS
   Kantharuban Sivalingam : CASSCF convergence, NEVPT2, FIC-MRCI
   Bernardo de Souza      : ESD, SOC TD-DFT
   Georgi Stoychev        : AutoAux, RI-MP2 NMR
   Willem Van den Heuvel  : Paramagnetic NMR
   Boris Wezisla          : Elementary symmetry handling
   Frank Wennmohs         : Technical directorship


 We gratefully acknowledge several colleagues who have allowed us to
 interface, adapt or use parts of their codes:
   Stefan Grimme, W. Hujo, H. Kruse,             : VdW corrections, initial TS optimization,
                  C. Bannwarth                     DFT functionals, gCP, sTDA/sTD-DF
   Ed Valeev, F. Pavosevic, A. Kumar             : LibInt (2-el integral package), F12 methods
   Garnet Chan, S. Sharma, J. Yang, R. Olivares  : DMRG
   Ulf Ekstrom                                   : XCFun DFT Library
   Mihaly Kallay                                 : mrcc  (arbitrary order and MRCC methods)
   Andreas Klamt, Michael Diedenhofen            : otool_cosmo (COSMO solvation model)
   Jiri Pittner, Ondrej Demel                    : Mk-CCSD
   Frank Weinhold                                : gennbo (NPA and NBO analysis)
   Christopher J. Cramer and Donald G. Truhlar   : smd solvation model
   Lars Goerigk                                  : TD-DFT with DH, B97 family of functionals
   V. Asgeirsson, H. Jonsson                     : NEB implementation
   FAccTs GmbH                                   : IRC, NEB, NEB-TS, Multilevel, MM, QM/MM, CI optimization
   S Lehtola, MJT Oliveira, MAL Marques          : LibXC Library


 Your calculation uses the libint2 library for the computation of 2-el integrals
 For citations please refer to: http://libint.valeyev.net

 Your ORCA version has been built with support for libXC version: 4.2.3
 For citations please refer to: https://tddft.org/programs/libxc/

 This ORCA versions uses:
   CBLAS   interface :  Fast vector & matrix operations
   LAPACKE interface :  Fast linear algebra routines
   SCALAPACK package :  Parallel linear algebra routines


----- Orbital basis set information -----
Your calculation utilizes the basis: ANO-RCC-QZP
   H, He:       P.-O. Widmark, P.-A. Malmqvist, and B. O. Roos, Theor. Chim. Acta 77, 291 (1990).
   s block:     B. O. Roos, V. Veryazov and P.-O. Widmark, Theor. Chem. Acc. 111, 345 (2004).
   p block:     B. O. Roos, R. Lindh, P.-A. Malmqvist, V. Veryazov, and P.-O. Widmark, J. Phys. Chem. A 108, 2851 (2004).
   d block:     B. O. Roos, R. Lindh, P.-A. Malmqvist, V. Veryazov, and P.-O. Widmark, J. Phys. Chem. A 109, 6575 (2005).
   actinides:   B. O. Roos, R. Lindh, P.-A. Malmqvist, V. Veryazov, and P.-O. Widmark, Chem. Phys. Letters 409, 295 (2005).
   lanthanides: B. O. Roos, R. Lindh, P.-A. Malmqvist, V. Veryazov, P.-O. Widmark and A. C. Borin, J. Phys. Chem. A 112, 11431 (2008).

================================================================================
                                        WARNINGS
                       Please study these warnings very carefully!
================================================================================


INFO   : the flag for use of LIBINT has been found!

================================================================================
                                       INPUT FILE
================================================================================
NAME = Kr_ano-rcc-qzp_34.25899725_.inp
|  1> ! LDA ano-rcc-qzp nori grid5 finalgrid6 verytightscf
|  2> %Pal NProcs 18 End
|  3> 
|  4> % REL
|  5>   Method ZORA
|  6>   ModelPot 1, 0, 0, 0
|  7>   velit 34.25899725
|  8> END
|  9> 
| 10> *xyz 34 1
| 11> Kr 0.0 0.0 0.0
| 12> **                         ****END OF INPUT****
================================================================================

                       ****************************
                       * Single Point Calculation *
                       ****************************

---------------------------------
CARTESIAN COORDINATES (ANGSTROEM)
---------------------------------
  Kr     0.000000    0.000000    0.000000

----------------------------
CARTESIAN COORDINATES (A.U.)
----------------------------
  NO LB      ZA    FRAG     MASS         X           Y           Z
   0 Kr   36.0000    0    83.800    0.000000    0.000000    0.000000

--------------------------------
INTERNAL COORDINATES (ANGSTROEM)
--------------------------------
 Kr     0   0   0     0.000000000000     0.00000000     0.00000000

---------------------------
INTERNAL COORDINATES (A.U.)
---------------------------
 Kr     0   0   0     0.000000000000     0.00000000     0.00000000

---------------------
BASIS SET INFORMATION
---------------------
There are 1 groups of distinct atoms

 Group   1 Type Kr  : 140s102p44d12f4g contracted to 7s6p4d3f2g pattern {20202020202020/171717171717/11111111/444/22}

Atom   0Kr   basis set group =>   1


           ************************************************************
           *        Program running with 18 parallel MPI-processes    *
           *              working on a common directory               *
           ************************************************************


------------------------------------------------------------------------------
                       ORCA GTO INTEGRAL CALCULATION
                     -- ANO INTEGRAL GENERATION BRANCH --
------------------------------------------------------------------------------


Gathering ANO information                         ... done
Calculation Information:
Number of atoms                                   ... 1
Number of basis functions                         ... 84
Highest angular momentum                          ... 4
Number of primitive shells                        ... 54
Total number of shells                            ... 22
Maximum number of shells                          ... 22

Getting memory                                    ... done
Making prescreening integrals                     ... done
Gathering atom contracted prescreening            ... done
Making one-electron integrals                     ... done

Timings:

Total time                                        ...    0.6 sec
Prescreening matrix                               ...    0.6 sec
One-electron matrix                               ...    0.0 sec
Two-index integrals + Cholesky                    ...    0.0 sec


           ************************************************************
           *        Program running with 18 parallel MPI-processes    *
           *              working on a common directory               *
           ************************************************************
------------------------------------------------------------------------------
                          ORCA RELATIVISTIC HAMILTONIAN
------------------------------------------------------------------------------

Relativistic Method            ... ZORA(MP)
Treatment of potential         ... Van Wuellen
Nucleus model                  ... Point Nucleus
Speed of light used            ...  34.25899725000000


            *************************************************
            *         ZERO ORDER REGULAR APPROXIMATION      *
            *                     ZORA(MP)                  *
            *            Programmed by FN according to      *
            *                   C. van Wuellen              *
            *       J. Chem. Phys. (1998) vol 109, 392-399  *
            *************************************************

Terms included in model potential: +V(e,N)
Basis function cutoff value   ... 1.000000e-12
Loading the fitted atomic densities  (DKH4)  ... done
Calculating the cutoffs                      ... done
Number of fit functions                      ... 27
Setting up the integration grid ... done


           ************************************************************
           *        Program running with 18 parallel MPI-processes    *
           *              working on a common directory               *
           ************************************************************
-------------------------------------------------------------------------------
                                 ORCA SCF
-------------------------------------------------------------------------------

------------
SCF SETTINGS
------------
Hamiltonian:
 Density Functional     Method          .... DFT(GTOs)
 Exchange Functional    Exchange        .... Slater
   X-Alpha parameter    XAlpha          ....  0.666667
 Correlation Functional Correlation     .... VWN-5
 Gradients option       PostSCFGGA      .... off
   Density functional embedding theory  .... OFF

Relativistic Settings:
 Scalar relativistic method             .... ZORA
 Speed of light used       Velit        ....       34.2589973
Orbital energies will be scaled


General Settings:
 Integral files         IntName         .... Kr_ano-rcc-qzp_34.25899725_
 Hartree-Fock type      HFTyp           .... RHF
 Total Charge           Charge          ....   34
 Multiplicity           Mult            ....    1
 Number of Electrons    NEL             ....    2
 Basis Dimension        Dim             ....   84
 Nuclear Repulsion      ENuc            ....      0.0000000000 Eh

Convergence Acceleration:
 DIIS                   CNVDIIS         .... on
   Start iteration      DIISMaxIt       ....    12
   Startup error        DIISStart       ....  0.200000
   # of expansion vecs  DIISMaxEq       ....     5
   Bias factor          DIISBfac        ....   1.050
   Max. coefficient     DIISMaxC        ....  10.000
 Newton-Raphson         CNVNR           .... off
 SOSCF                  CNVSOSCF        .... on
   Start iteration      SOSCFMaxIt      ....   150
   Startup grad/error   SOSCFStart      ....  0.003300
 Level Shifting         CNVShift        .... on
   Level shift para.    LevelShift      ....    0.2500
   Turn off err/grad.   ShiftErr        ....    0.0010
 Zerner damping         CNVZerner       .... off
 Static damping         CNVDamp         .... on
   Fraction old density DampFac         ....    0.7000
   Max. Damping (<1)    DampMax         ....    0.9800
   Min. Damping (>=0)   DampMin         ....    0.0000
   Turn off err/grad.   DampErr         ....    0.1000
 Fernandez-Rico         CNVRico         .... off

SCF Procedure:
 Maximum # iterations   MaxIter         ....   125
 SCF integral mode      SCFMode         .... Direct
   Integral package                     .... LIBINT
 Reset frequency        DirectResetFreq ....    20
 Integral Threshold     Thresh          ....  1.000e-12 Eh
 Primitive CutOff       TCut            ....  1.000e-14 Eh

Convergence Tolerance:
 Convergence Check Mode ConvCheckMode   .... Total+1el-Energy
 Convergence forced     ConvForced      .... 0
 Energy Change          TolE            ....  1.000e-09 Eh
 1-El. energy change                    ....  1.000e-06 Eh
 Orbital Gradient       TolG            ....  2.000e-06
 Orbital Rotation angle TolX            ....  2.000e-06
 DIIS Error             TolErr          ....  1.000e-08


Diagonalization of the overlap matrix:
Smallest eigenvalue                        ... 1.000e+00
Time for diagonalization                   ...    0.001 sec
Threshold for overlap eigenvalues          ... 1.000e-08
Number of eigenvalues below threshold      ... 0
Time for construction of square roots      ...    0.001 sec
Total time needed                          ...    0.003 sec

-------------------
DFT GRID GENERATION
-------------------

General Integration Accuracy     IntAcc      ...  5.010
Radial Grid Type                 RadialGrid  ... Gauss-Chebyshev
Angular Grid (max. acc.)         AngularGrid ... Lebedev-434
Angular grid pruning method      GridPruning ... 3 (G Style)
Weight generation scheme         WeightScheme... Becke
Basis function cutoff            BFCut       ...    1.0000e-12
Integration weight cutoff        WCut        ...    1.0000e-14
Grids for H and He will be reduced by one unit

# of grid points (after initial pruning)     ...  16106 (   0.0 sec)
# of grid points (after weights+screening)   ...  16106 (   0.0 sec)
Grid point division into batches done        ...    0.2 sec
Reduced shell lists constructed in    0.2 sec

Total number of grid points                  ...    16106
Total number of batches                      ...      252
Average number of points per batch           ...       63
Average number of grid points per atom       ...    16106
Average number of shells per batch           ...    16.53 (75.15%)
Average number of basis functions per batch  ...    57.07 (67.94%)
Average number of large shells per batch     ...     7.73 (46.77%)
Average number of large basis fcns per batch ...    25.33 (44.39%)
Maximum spatial batch extension              ...  17.34, 17.34, 17.34 au
Average spatial batch extension              ...   0.86,  0.87,  0.87 au

Time for grid setup =    0.239 sec

------------------------------
INITIAL GUESS: MODEL POTENTIAL
------------------------------
Loading ZORA relativistic densities                ... done
Calculating cut-offs                               ... done
Setting up the integral package                    ... done
Initializing the effective Hamiltonian             ... done
Starting the Coulomb interaction                   ... done (   0.0 sec)
Reading the grid                                   ... done
Mapping shells                                     ... done
Starting the XC term evaluation                    ... done (   0.0 sec)
  promolecular density results
     # of electrons  =     36.000000565
     EX              =    -91.042004939
     EC              =     -3.295965580
     EX+EC           =    -94.337970520
Transforming the Hamiltonian                       ... done (   0.0 sec)
Diagonalizing the Hamiltonian                      ... done (   0.0 sec)
Back transforming the eigenvectors                 ... done (   0.0 sec)
Now organizing SCF variables                       ... done
                      ------------------
                      INITIAL GUESS DONE (   0.3 sec)
                      ------------------
--------------
SCF ITERATIONS
--------------
ITER       Energy         Delta-E        Max-DP      RMS-DP      [F,P]     Damp
               ***  Starting incremental Fock matrix formation  ***
  0  -1785.5165255192   0.000000000000 0.00068870  0.00001209  1.9429684 0.7000
                      *** Initiating the SOSCF procedure ***
                      *** Re-Reading the Fockian *** 
                      *** Removing any level shift *** 
ITER      Energy       Delta-E        Grad      Rot      Max-DP    RMS-DP
  1  -1785.51791990  -0.0013943783  0.000283  0.000283  0.001608  0.000028
               *** Restarting incremental Fock matrix formation ***
  2  -1785.52117330  -0.0032534037  0.000119  0.000000  0.000000  0.000000
                 **** Energy Check signals convergence ****
              ***Rediagonalizing the Fockian in SOSCF/NRSCF***

               *****************************************************
               *                     SUCCESS                       *
               *           SCF CONVERGED AFTER   3 CYCLES          *
               *****************************************************

Setting up the final grid:

General Integration Accuracy     IntAcc      ...  5.340
Radial Grid Type                 RadialGrid  ... Gauss-Chebyshev
Angular Grid (max. acc.)         AngularGrid ... Lebedev-590
Angular grid pruning method      GridPruning ... 3 (G Style)
Weight generation scheme         WeightScheme... Becke
Basis function cutoff            BFCut       ...    1.0000e-12
Integration weight cutoff        WCut        ...    1.0000e-14
Grids for H and He will be reduced by one unit

# of grid points (after initial pruning)     ...  24180 (   0.0 sec)
# of grid points (after weights+screening)   ...  24180 (   0.0 sec)
Grid point division into batches done        ...    0.4 sec
Reduced shell lists constructed in    0.4 sec

Total number of grid points                  ...    24180
Total number of batches                      ...      378
Average number of points per batch           ...       63
Average number of grid points per atom       ...    24180
Average number of shells per batch           ...    14.18 (64.46%)
Average number of basis functions per batch  ...    46.64 (55.52%)
Average number of large shells per batch     ...     5.73 (40.38%)
Average number of large basis fcns per batch ...    15.27 (32.75%)
Maximum spatial batch extension              ...  17.58, 17.58, 17.58 au
Average spatial batch extension              ...   0.77,  0.77,  0.77 au

Final grid set up in    0.5 sec
Final integration                            ... done (   0.0 sec)
Change in XC energy                          ...    -0.000112575
Integrated number of electrons               ...     2.000000082
Previous integrated no of electrons          ...     1.999999373

----------------
TOTAL SCF ENERGY
----------------

Total Energy       :        -1785.52128588 Eh          -48586.50428 eV

Components:
Nuclear Repulsion  :            0.00000000 Eh               0.00000 eV
Electronic Energy  :        -1785.52128588 Eh          -48586.50428 eV
One Electron Energy:        -1813.05357137 Eh          -49335.69586 eV
Two Electron Energy:           27.53228549 Eh             749.19158 eV

Virial components:
Potential Energy   :        -2822.23460389 Eh          -76796.90785 eV
Kinetic Energy     :         1036.71331801 Eh           28210.40357 eV
Virial Ratio       :            2.72229029


DFT components:
N(Alpha)           :        1.000000041159 electrons
N(Beta)            :        1.000000041159 electrons
N(Total)           :        2.000000082318 electrons
E(X)               :      -20.972913107154 Eh       
E(C)               :       -0.283321629628 Eh       
E(XC)              :      -21.256234736782 Eh       
DFET-embed. en.    :        0.000000000000 Eh       

---------------
SCF CONVERGENCE
---------------

  Last Energy change         ...   -4.2064e-11  Tolerance :   1.0000e-09
  Last MAX-Density change    ...    3.2646e-11  Tolerance :   1.0000e-08
  Last RMS-Density change    ...    5.7287e-13  Tolerance :   1.0000e-09
  Last Orbital Gradient      ...    1.6483e-08  Tolerance :   2.0000e-06
  Last Orbital Rotation      ...    2.0495e-11  Tolerance :   2.0000e-06

================================================================================
                                        WARNING
Number of found core electrons (2) does not match given number of chemical core electrons (18)
================================================================================
             **** THE GBW FILE WAS UPDATED (Kr_ano-rcc-qzp_34.25899725_.gbw) ****
             **** DENSITY FILE WAS UPDATED (Kr_ano-rcc-qzp_34.25899725_.scfp) ****
             **** ENERGY FILE WAS UPDATED (Kr_ano-rcc-qzp_34.25899725_.en.tmp) ****
             **** THE GBW FILE WAS UPDATED (Kr_ano-rcc-qzp_34.25899725_.gbw) ****
             **** DENSITY FILE WAS UPDATED (Kr_ano-rcc-qzp_34.25899725_.scfp) ****
----------------
ORBITAL ENERGIES
----------------

  NO   OCC          E(Eh)            E(eV) 
   0   2.0000    -871.871651    -23724.8338 
   1   0.0000    -178.364661     -4853.5492 
   2   0.0000    -169.333945     -4607.8109 
   3   0.0000    -169.333945     -4607.8109 
   4   0.0000    -169.333945     -4607.8109 
   5   0.0000     -67.652124     -1840.9079 
   6   0.0000     -64.826452     -1764.0174 
   7   0.0000     -64.826452     -1764.0174 
   8   0.0000     -64.826452     -1764.0174 
   9   0.0000     -58.645937     -1595.8371 
  10   0.0000     -58.645937     -1595.8371 
  11   0.0000     -58.645937     -1595.8371 
  12   0.0000     -58.645937     -1595.8371 
  13   0.0000     -58.645937     -1595.8371 
  14   0.0000     -32.935677      -896.2253 
  15   0.0000     -31.662848      -861.5899 
  16   0.0000     -31.662848      -861.5899 
  17   0.0000     -31.662848      -861.5899 
  18   0.0000     -24.689420      -671.8333 
  19   0.0000     -24.689420      -671.8333 
  20   0.0000     -24.689420      -671.8333 
  21   0.0000     -24.689420      -671.8333 
  22   0.0000     -24.689420      -671.8333 
  23   0.0000     -24.613396      -669.7645 
  24   0.0000     -24.613396      -669.7645 
  25   0.0000     -24.613396      -669.7645 
  26   0.0000     -24.613396      -669.7645 
  27   0.0000     -24.613396      -669.7645 
  28   0.0000     -24.613396      -669.7645 
  29   0.0000     -24.613396      -669.7645 
  30   0.0000     -19.171294      -521.6774 
  31   0.0000     -18.646764      -507.4042 
  32   0.0000     -18.646764      -507.4042 
  33   0.0000     -18.646764      -507.4042 
  34   0.0000     -15.836605      -430.9359 
  35   0.0000     -15.836605      -430.9359 
  36   0.0000     -15.836605      -430.9359 
  37   0.0000     -15.836605      -430.9359 
  38   0.0000     -15.836605      -430.9359 
  39   0.0000     -15.836605      -430.9359 
  40   0.0000     -15.836605      -430.9359 
  41   0.0000     -15.836605      -430.9359 
  42   0.0000     -15.836605      -430.9359 
  43   0.0000     -14.876927      -404.8218 
  44   0.0000     -14.876927      -404.8218 
  45   0.0000     -14.876927      -404.8218 
  46   0.0000     -14.876927      -404.8218 
  47   0.0000     -14.876927      -404.8218 
  48   0.0000     -14.876927      -404.8218 
  49   0.0000     -14.876927      -404.8218 
  50   0.0000     -14.391093      -391.6015 
  51   0.0000     -14.391093      -391.6015 
  52   0.0000     -14.391093      -391.6015 
  53   0.0000     -14.391093      -391.6015 
  54   0.0000     -14.391093      -391.6015 
  55   0.0000     -12.245268      -333.2107 
  56   0.0000     -11.928911      -324.6022 
  57   0.0000     -11.928911      -324.6022 
  58   0.0000     -11.928911      -324.6022 
  59   0.0000      -9.851548      -268.0743 
  60   0.0000      -9.851548      -268.0743 
  61   0.0000      -9.851548      -268.0743 
  62   0.0000      -9.851548      -268.0743 
  63   0.0000      -9.851548      -268.0743 
  64   0.0000      -9.851548      -268.0743 
  65   0.0000      -9.851548      -268.0743 
  66   0.0000      -9.851548      -268.0743 
  67   0.0000      -9.851548      -268.0743 
  68   0.0000      -9.678407      -263.3628 
  69   0.0000      -9.678407      -263.3628 
  70   0.0000      -9.678407      -263.3628 
  71   0.0000      -9.678407      -263.3628 
  72   0.0000      -9.678407      -263.3628 
  73   0.0000      -9.678407      -263.3628 
  74   0.0000      -9.678407      -263.3628 
  75   0.0000      -9.296913      -252.9819 
  76   0.0000      -9.296913      -252.9819 
  77   0.0000      -9.296913      -252.9819 
  78   0.0000      -9.296913      -252.9819 
  79   0.0000      -9.296913      -252.9819 
  80   0.0000      -8.005362      -217.8370 
  81   0.0000      -7.514308      -204.4747 
  82   0.0000      -7.514308      -204.4747 
  83   0.0000      -7.514308      -204.4747 

                    ********************************
                    * MULLIKEN POPULATION ANALYSIS *
                    ********************************

-----------------------
MULLIKEN ATOMIC CHARGES
-----------------------
   0 Kr:   34.000000
Sum of atomic charges:   34.0000000

--------------------------------
MULLIKEN REDUCED ORBITAL CHARGES
--------------------------------
  0 Krs       :     2.000000  s :     2.000000
      pz      :     0.000000  p :     0.000000
      px      :     0.000000
      py      :     0.000000
      dz2     :     0.000000  d :     0.000000
      dxz     :     0.000000
      dyz     :     0.000000
      dx2y2   :     0.000000
      dxy     :     0.000000
      f0      :     0.000000  f :     0.000000
      f+1     :     0.000000
      f-1     :     0.000000
      f+2     :     0.000000
      f-2     :     0.000000
      f+3     :     0.000000
      f-3     :     0.000000
      g0      :     0.000000  g :     0.000000
      g+1     :     0.000000
      g-1     :     0.000000
      g+2     :     0.000000
      g-2     :     0.000000
      g+3     :     0.000000
      g-3     :     0.000000
      g+4     :     0.000000
      g-4     :     0.000000


                     *******************************
                     * LOEWDIN POPULATION ANALYSIS *
                     *******************************

----------------------
LOEWDIN ATOMIC CHARGES
----------------------
   0 Kr:   34.000000

-------------------------------
LOEWDIN REDUCED ORBITAL CHARGES
-------------------------------
  0 Krs       :     2.000000  s :     2.000000
      pz      :     0.000000  p :     0.000000
      px      :     0.000000
      py      :     0.000000
      dz2     :     0.000000  d :     0.000000
      dxz     :     0.000000
      dyz     :     0.000000
      dx2y2   :     0.000000
      dxy     :     0.000000
      f0      :     0.000000  f :     0.000000
      f+1     :     0.000000
      f-1     :     0.000000
      f+2     :     0.000000
      f-2     :     0.000000
      f+3     :     0.000000
      f-3     :     0.000000
      g0      :     0.000000  g :     0.000000
      g+1     :     0.000000
      g-1     :     0.000000
      g+2     :     0.000000
      g-2     :     0.000000
      g+3     :     0.000000
      g-3     :     0.000000
      g+4     :     0.000000
      g-4     :     0.000000


                      *****************************
                      * MAYER POPULATION ANALYSIS *
                      *****************************

  NA   - Mulliken gross atomic population
  ZA   - Total nuclear charge
  QA   - Mulliken gross atomic charge
  VA   - Mayer's total valence
  BVA  - Mayer's bonded valence
  FA   - Mayer's free valence

  ATOM       NA         ZA         QA         VA         BVA        FA
  0 Kr     2.0000    36.0000    34.0000    -0.0000     0.0000    -0.0000

  Mayer bond orders larger than 0.100000


--------------------------
ATOM BASIS FOR ELEMENT Kr
--------------------------
 NewGTO Kr
 S 140
    1   18535881.300000000745         0.000135911012
    2    2419299.990000000224         0.000438544544
    3     474949.065000000002         0.001281715246
    4     117392.346000000005         0.003422650093
    5      34065.440100000000         0.008886884242
    6      11133.885300000000         0.023024597805
    7       3988.280760000000         0.059223302475
    8       1534.678610000000         0.142613722012
    9        624.475513000000         0.284651345980
   10        265.735250000000         0.378474538570
   11        116.709586000000         0.225013176527
   12         50.306071000000         0.026819449742
   13         23.036081700000         0.000587961564
   14         10.586238100000        -0.000546463982
   15          4.798113940000         0.000376664268
   16          2.133543170000        -0.000268853670
   17          0.857316380000         0.000149931535
   18          0.378404470000        -0.000083143581
   19          0.152386050000         0.000035422352
   20          0.060954420000        -0.000009706516
   21   18535881.300000000745         0.000005830238
   22    2419299.990000000224         0.000018832729
   23     474949.065000000002         0.000055148315
   24     117392.346000000005         0.000147801046
   25      34065.440100000000         0.000386462414
   26      11133.885300000000         0.001014262370
   27       3988.280760000000         0.002680533340
   28       1534.678610000000         0.006832639393
   29        624.475513000000         0.015490122275
   30        265.735250000000         0.026806315366
   31        116.709586000000         0.021446200534
   32         50.306071000000        -0.036117167194
   33         23.036081700000        -0.085150724168
   34         10.586238100000        -0.032986723580
   35          4.798113940000        -0.001349805452
   36          2.133543170000        -0.000369356629
   37          0.857316380000         0.000121108690
   38          0.378404470000        -0.000056084453
   39          0.152386050000         0.000026076992
   40          0.060954420000        -0.000006800417
   41   18535881.300000000745         0.000000855206
   42    2419299.990000000224         0.000002762606
   43     474949.065000000002         0.000008092738
   44     117392.346000000005         0.000021698763
   45      34065.440100000000         0.000056791778
   46      11133.885300000000         0.000149292814
   47       3988.280760000000         0.000395979415
   48       1534.678610000000         0.001017063526
   49        624.475513000000         0.002346118854
   50        265.735250000000         0.004218066813
   51        116.709586000000         0.003608830619
   52         50.306071000000        -0.007529139823
   53         23.036081700000        -0.025439502559
   54         10.586238100000        -0.010235149166
   55          4.798113940000         0.033235297302
   56          2.133543170000         0.028287019147
   57          0.857316380000         0.001540284511
   58          0.378404470000         0.000285777572
   59          0.152386050000        -0.000118184878
   60          0.060954420000         0.000039415787
   61   18535881.300000000745         0.000000087179
   62    2419299.990000000224         0.000000281598
   63     474949.065000000002         0.000000824735
   64     117392.346000000005         0.000002211310
   65      34065.440100000000         0.000005788832
   66      11133.885300000000         0.000015220947
   67       3988.280760000000         0.000040395277
   68       1534.678610000000         0.000103876499
   69        624.475513000000         0.000240280863
   70        265.735250000000         0.000434584857
   71        116.709586000000         0.000376168486
   72         50.306071000000        -0.000811924383
   73         23.036081700000        -0.002910084203
   74         10.586238100000        -0.001209885000
   75          4.798113940000         0.005031321372
   76          2.133543170000         0.007845120319
   77          0.857316380000        -0.003213937691
   78          0.378404470000        -0.011777225188
   79          0.152386050000        -0.004451388722
   80          0.060954420000         0.000013799079
   81   18535881.300000000745         0.000000113960
   82    2419299.990000000224         0.000000368349
   83     474949.065000000002         0.000001076686
   84     117392.346000000005         0.000002901759
   85      34065.440100000000         0.000007520992
   86      11133.885300000000         0.000020120492
   87       3988.280760000000         0.000052024718
   88       1534.678610000000         0.000138852328
   89        624.475513000000         0.000305587466
   90        265.735250000000         0.000598811085
   91        116.709586000000         0.000419808701
   92         50.306071000000        -0.000890486023
   93         23.036081700000        -0.004503671725
   94         10.586238100000        -0.000251154641
   95          4.798113940000         0.005116408058
   96          2.133543170000         0.018748206687
   97          0.857316380000        -0.031447922311
   98          0.378404470000        -0.006451638626
   99          0.152386050000         0.023182779173
  100          0.060954420000         0.000534423896
  101   18535881.300000000745         0.000000182480
  102    2419299.990000000224         0.000000588518
  103     474949.065000000002         0.000001733124
  104     117392.346000000005         0.000004594422
  105      34065.440100000000         0.000012299431
  106      11133.885300000000         0.000031139805
  107       3988.280760000000         0.000087560175
  108       1534.678610000000         0.000208139436
  109        624.475513000000         0.000538042089
  110        265.735250000000         0.000830024867
  111        116.709586000000         0.001041103004
  112         50.306071000000        -0.002547701197
  113         23.036081700000        -0.005120544154
  114         10.586238100000        -0.005445164411
  115          4.798113940000         0.023664945886
  116          2.133543170000         0.012546454812
  117          0.857316380000        -0.087017153664
  118          0.378404470000         0.097167747205
  119          0.152386050000        -0.032744794291
  120          0.060954420000        -0.009713348535
  121   18535881.300000000745         0.000000230472
  122    2419299.990000000224         0.000000736403
  123     474949.065000000002         0.000002215463
  124     117392.346000000005         0.000005600364
  125      34065.440100000000         0.000016409194
  126      11133.885300000000         0.000035311957
  127       3988.280760000000         0.000125529327
  128       1534.678610000000         0.000210104472
  129        624.475513000000         0.000850650780
  130        265.735250000000         0.000563489637
  131        116.709586000000         0.002634389487
  132         50.306071000000        -0.007109402793
  133         23.036081700000         0.002222800855
  134         10.586238100000        -0.026529688438
  135          4.798113940000         0.082729427575
  136          2.133543170000        -0.088624812452
  137          0.857316380000         0.023409446734
  138          0.378404470000         0.053501960091
  139          0.152386050000        -0.089388286019
  140          0.060954420000         0.054033649938
 S 140
    1   18535881.300000000745        -0.000019247757
    2    2419299.990000000224        -0.000062106805
    3     474949.065000000002        -0.000181516882
    4     117392.346000000005        -0.000484716692
    5      34065.440100000000        -0.001258563105
    6      11133.885300000000        -0.003260750172
    7       3988.280760000000        -0.008387221151
    8       1534.678610000000        -0.020196996380
    9        624.475513000000        -0.040312405590
   10        265.735250000000        -0.053599673143
   11        116.709586000000        -0.031866430858
   12         50.306071000000        -0.003798178196
   13         23.036081700000        -0.000083267286
   14         10.586238100000         0.000077390387
   15          4.798113940000        -0.000053343302
   16          2.133543170000         0.000038075134
   17          0.857316380000        -0.000021233347
   18          0.378404470000         0.000011774818
   19          0.152386050000        -0.000005016524
   20          0.060954420000         0.000001374640
   21   18535881.300000000745         0.000043338348
   22    2419299.990000000224         0.000139990746
   23     474949.065000000002         0.000409938142
   24     117392.346000000005         0.001098660692
   25      34065.440100000000         0.002872720288
   26      11133.885300000000         0.007539393184
   27       3988.280760000000         0.019925411218
   28       1534.678610000000         0.050789575179
   29        624.475513000000         0.115143897485
   30        265.735250000000         0.199261411475
   31        116.709586000000         0.159417664489
   32         50.306071000000        -0.268472470587
   33         23.036081700000        -0.632957318234
   34         10.586238100000        -0.245202707298
   35          4.798113940000        -0.010033610961
   36          2.133543170000        -0.002745566568
   37          0.857316380000         0.000900246388
   38          0.378404470000        -0.000416896803
   39          0.152386050000         0.000193840079
   40          0.060954420000        -0.000050550051
   41   18535881.300000000745         0.000002712370
   42    2419299.990000000224         0.000008761878
   43     474949.065000000002         0.000025666918
   44     117392.346000000005         0.000068819775
   45      34065.440100000000         0.000180120742
   46      11133.885300000000         0.000473496932
   47       3988.280760000000         0.001255887897
   48       1534.678610000000         0.003225717608
   49        624.475513000000         0.007440948092
   50        265.735250000000         0.013378016268
   51        116.709586000000         0.011445763396
   52         50.306071000000        -0.023879411944
   53         23.036081700000        -0.080683899565
   54         10.586238100000        -0.032461788331
   55          4.798113940000         0.105409033972
   56          2.133543170000         0.089715080181
   57          0.857316380000         0.004885164736
   58          0.378404470000         0.000906371847
   59          0.152386050000        -0.000374835034
   60          0.060954420000         0.000125011068
   61   18535881.300000000745         0.000000246186
   62    2419299.990000000224         0.000000795206
   63     474949.065000000002         0.000002328969
   64     117392.346000000005         0.000006244516
   65      34065.440100000000         0.000016347080
   66      11133.885300000000         0.000042982428
   67       3988.280760000000         0.000114072208
   68       1534.678610000000         0.000293336811
   69        624.475513000000         0.000678529050
   70        265.735250000000         0.001227224035
   71        116.709586000000         0.001062262062
   72         50.306071000000        -0.002292792994
   73         23.036081700000        -0.008217785814
   74         10.586238100000        -0.003416593849
   75          4.798113940000         0.014207946750
   76          2.133543170000         0.022153832661
   77          0.857316380000        -0.009075837578
   78          0.378404470000        -0.033257702295
   79          0.152386050000        -0.012570275132
   80          0.060954420000         0.000038967214
   81   18535881.300000000745         0.000000310049
   82    2419299.990000000224         0.000001002163
   83     474949.065000000002         0.000002929328
   84     117392.346000000005         0.000007894782
   85      34065.440100000000         0.000020462273
   86      11133.885300000000         0.000054741584
   87       3988.280760000000         0.000141543037
   88       1534.678610000000         0.000377773890
   89        624.475513000000         0.000831408212
   90        265.735250000000         0.001629178254
   91        116.709586000000         0.001142168579
   92         50.306071000000        -0.002422734814
   93         23.036081700000        -0.012253086518
   94         10.586238100000        -0.000683313469
   95          4.798113940000         0.013920151028
   96          2.133543170000         0.051008024698
   97          0.857316380000        -0.085559991135
   98          0.378404470000        -0.017552897079
   99          0.152386050000         0.063073113732
  100          0.060954420000         0.001454000788
  101   18535881.300000000745         0.000000467349
  102    2419299.990000000224         0.000001507255
  103     474949.065000000002         0.000004438707
  104     117392.346000000005         0.000011766781
  105      34065.440100000000         0.000031500087
  106      11133.885300000000         0.000079752193
  107       3988.280760000000         0.000224250474
  108       1534.678610000000         0.000533066170
  109        624.475513000000         0.001377980267
  110        265.735250000000         0.002125777724
  111        116.709586000000         0.002666370204
  112         50.306071000000        -0.006524920717
  113         23.036081700000        -0.013114232025
  114         10.586238100000        -0.013945617370
  115          4.798113940000         0.060608322449
  116          2.133543170000         0.032132741079
  117          0.857316380000        -0.222859740871
  118          0.378404470000         0.248856438658
  119          0.152386050000        -0.083862733533
  120          0.060954420000        -0.024876869059
  121   18535881.300000000745         0.000000543471
  122    2419299.990000000224         0.000001736497
  123     474949.065000000002         0.000005224241
  124     117392.346000000005         0.000013206114
  125      34065.440100000000         0.000038694215
  126      11133.885300000000         0.000083268467
  127       3988.280760000000         0.000296008362
  128       1534.678610000000         0.000495443434
  129        624.475513000000         0.002005903727
  130        265.735250000000         0.001328754397
  131        116.709586000000         0.006212104681
  132         50.306071000000        -0.016764550034
  133         23.036081700000         0.005241545210
  134         10.586238100000        -0.062559163148
  135          4.798113940000         0.195082719080
  136          2.133543170000        -0.208984516125
  137          0.857316380000         0.055201379422
  138          0.378404470000         0.126161973515
  139          0.152386050000        -0.210784848892
  140          0.060954420000         0.127415741419
 S 139
    1   18535881.300000000745        -0.000004625491
    2    2419299.990000000224        -0.000014925087
    3     474949.065000000002        -0.000043620909
    4     117392.346000000005        -0.000116483836
    5      34065.440100000000        -0.000302449371
    6      11133.885300000000        -0.000783601421
    7       3988.280760000000        -0.002015560244
    8       1534.678610000000        -0.004853605528
    9        624.475513000000        -0.009687604579
   10        265.735250000000        -0.012880710823
   11        116.709586000000        -0.007657925073
   12         50.306071000000        -0.000912752488
   13         23.036081700000        -0.000020010231
   14         10.586238100000         0.000018597934
   15          4.798113940000        -0.000012819101
   16          2.133543170000         0.000009149959
   17          0.857316380000        -0.000005102654
   18          0.378404470000         0.000002829645
   19          0.152386050000        -0.000001205537
   20   18535881.300000000745        -0.000008180700
   21    2419299.990000000224        -0.000026425150
   22     474949.065000000002        -0.000077381378
   23     117392.346000000005        -0.000207387090
   24      34065.440100000000        -0.000542264873
   25      11133.885300000000        -0.001423162606
   26       3988.280760000000        -0.003761191313
   27       1534.678610000000        -0.009587220402
   28        624.475513000000        -0.021734970597
   29        265.735250000000        -0.037613290971
   30        116.709586000000        -0.030092243932
   31         50.306071000000         0.050677816036
   32         23.036081700000         0.119479268999
   33         10.586238100000         0.046285332961
   34          4.798113940000         0.001893980002
   35          2.133543170000         0.000518262886
   36          0.857316380000        -0.000169933702
   37          0.378404470000         0.000078694920
   38          0.152386050000        -0.000036589941
   39          0.060954420000         0.000009542007
   40   18535881.300000000745         0.000016426856
   41    2419299.990000000224         0.000053064333
   42     474949.065000000002         0.000155445880
   43     117392.346000000005         0.000416791384
   44      34065.440100000000         0.001090860495
   45      11133.885300000000         0.002867626966
   46       3988.280760000000         0.007606000709
   47       1534.678610000000         0.019535828382
   48        624.475513000000         0.045064417465
   49        265.735250000000         0.081020926704
   50        116.709586000000         0.069318674657
   51         50.306071000000        -0.144620252069
   52         23.036081700000        -0.488643770649
   53         10.586238100000        -0.196597471586
   54          4.798113940000         0.638385949343
   55          2.133543170000         0.543339071361
   56          0.857316380000         0.029585894206
   57          0.378404470000         0.005489235885
   58          0.152386050000        -0.002270103522
   59          0.060954420000         0.000757101233
   60   18535881.300000000745         0.000001056622
   61    2419299.990000000224         0.000003412999
   62     474949.065000000002         0.000009995864
   63     117392.346000000005         0.000026801274
   64      34065.440100000000         0.000070161168
   65      11133.885300000000         0.000184479268
   66       3988.280760000000         0.000489594432
   67       1534.678610000000         0.001258992626
   68        624.475513000000         0.002912225940
   69        265.735250000000         0.005267208042
   70        116.709586000000         0.004559196300
   71         50.306071000000        -0.009840597446
   72         23.036081700000        -0.035270485511
   73         10.586238100000        -0.014663916360
   74          4.798113940000         0.060980073139
   75          2.133543170000         0.095083572579
   76          0.857316380000        -0.038953217453
   77          0.378404470000        -0.142741041620
   78          0.152386050000        -0.053951236617
   79          0.060954420000         0.000167246091
   80   18535881.300000000745         0.000001210326
   81    2419299.990000000224         0.000003912111
   82     474949.065000000002         0.000011435120
   83     117392.346000000005         0.000030818597
   84      34065.440100000000         0.000079877889
   85      11133.885300000000         0.000213692886
   86       3988.280760000000         0.000552536804
   87       1534.678610000000         0.001474703263
   88        624.475513000000         0.003245540345
   89        265.735250000000         0.006359768494
   90        116.709586000000         0.004458645165
   91         50.306071000000        -0.009457548619
   92         23.036081700000        -0.047831962783
   93         10.586238100000        -0.002667427866
   94          4.798113940000         0.054339626587
   95          2.133543170000         0.199118314837
   96          0.857316380000        -0.333997667091
   97          0.378404470000        -0.068520655478
   98          0.152386050000         0.246216398146
   99          0.060954420000         0.005675934099
  100   18535881.300000000745         0.000001572088
  101    2419299.990000000224         0.000005070171
  102     474949.065000000002         0.000014931113
  103     117392.346000000005         0.000039581606
  104      34065.440100000000         0.000105961357
  105      11133.885300000000         0.000268273883
  106       3988.280760000000         0.000754343458
  107       1534.678610000000         0.001793151073
  108        624.475513000000         0.004635309708
  109        265.735250000000         0.007150783186
  110        116.709586000000         0.008969251585
  111         50.306071000000        -0.021948810934
  112         23.036081700000        -0.044114221731
  113         10.586238100000        -0.046910871763
  114          4.798113940000         0.203876900309
  115          2.133543170000         0.108089506275
  116          0.857316380000        -0.749665249531
  117          0.378404470000         0.837114067599
  118          0.152386050000        -0.282101095581
  119          0.060954420000        -0.083681889685
  120   18535881.300000000745         0.000001493891
  121    2419299.990000000224         0.000004773277
  122     474949.065000000002         0.000014360376
  123     117392.346000000005         0.000036300922
  124      34065.440100000000         0.000106362528
  125      11133.885300000000         0.000228888080
  126       3988.280760000000         0.000813666787
  127       1534.678610000000         0.001361873239
  128        624.475513000000         0.005513821394
  129        265.735250000000         0.003652475601
  130        116.709586000000         0.017075812380
  131         50.306071000000        -0.046082338550
  132         23.036081700000         0.014407941783
  133         10.586238100000        -0.171962416509
  134          4.798113940000         0.536242719757
  135          2.133543170000        -0.574455932552
  136          0.857316380000         0.151737365438
  137          0.378404470000         0.346793606973
  138          0.152386050000        -0.579404681186
  139          0.060954420000         0.350239959954
 S 138
    1   18535881.300000000745        -0.000001690136
    2    2419299.990000000224        -0.000005453567
    3     474949.065000000002        -0.000015938906
    4     117392.346000000005        -0.000042562729
    5      34065.440100000000        -0.000110513794
    6      11133.885300000000        -0.000286324834
    7       3988.280760000000        -0.000736477675
    8       1534.678610000000        -0.001773488105
    9        624.475513000000        -0.003539812081
   10        265.735250000000        -0.004706560369
   11        116.709586000000        -0.002798175283
   12         50.306071000000        -0.000333516119
   13         23.036081700000        -0.000007311659
   14         10.586238100000         0.000006795611
   15          4.798113940000        -0.000004684049
   16          2.133543170000         0.000003343358
   17          0.857316380000        -0.000001864490
   18          0.378404470000         0.000001033941
   19   18535881.300000000745        -0.000001691246
   20    2419299.990000000224        -0.000005463031
   21     474949.065000000002        -0.000015997521
   22     117392.346000000005        -0.000042874389
   23      34065.440100000000        -0.000112105702
   24      11133.885300000000        -0.000294219026
   25       3988.280760000000        -0.000777573862
   26       1534.678610000000        -0.001982024144
   27        624.475513000000        -0.004493402122
   28        265.735250000000        -0.007776023470
   29        116.709586000000        -0.006221151860
   30         50.306071000000         0.010476931869
   31         23.036081700000         0.024700672977
   32         10.586238100000         0.009568847238
   33          4.798113940000         0.000391553958
   34          2.133543170000         0.000107143626
   35          0.857316380000        -0.000035131424
   36          0.378404470000         0.000016269077
   37          0.152386050000        -0.000007564460
   38          0.060954420000         0.000001972677
   39   18535881.300000000745        -0.000006551560
   40    2419299.990000000224        -0.000021163767
   41     474949.065000000002        -0.000061996828
   42     117392.346000000005        -0.000166229841
   43      34065.440100000000        -0.000435070334
   44      11133.885300000000        -0.001143702085
   45       3988.280760000000        -0.003033518295
   46       1534.678610000000        -0.007791518182
   47        624.475513000000        -0.017973142535
   48        265.735250000000        -0.032313757635
   49        116.709586000000        -0.027646522245
   50         50.306071000000         0.057679218994
   51         23.036081700000         0.194886889312
   52         10.586238100000         0.078409409851
   53          4.798113940000        -0.254608897771
   54          2.133543170000        -0.216701138579
   55          0.857316380000        -0.011799808441
   56          0.378404470000        -0.002189284241
   57          0.152386050000         0.000905390471
   58          0.060954420000        -0.000301956380
   59   18535881.300000000745         0.000003080508
   60    2419299.990000000224         0.000009950361
   61     474949.065000000002         0.000029142246
   62     117392.346000000005         0.000078137247
   63      34065.440100000000         0.000204549998
   64      11133.885300000000         0.000537836453
   65       3988.280760000000         0.001427378453
   66       1534.678610000000         0.003670505282
   67        624.475513000000         0.008490391820
   68        265.735250000000         0.015356178058
   69        116.709586000000         0.013292019152
   70         50.306071000000        -0.028689576214
   71         23.036081700000        -0.102828643053
   72         10.586238100000        -0.042751626445
   73          4.798113940000         0.177783154481
   74          2.133543170000         0.277209530954
   75          0.857316380000        -0.113565391439
   76          0.378404470000        -0.416151561432
   77          0.152386050000        -0.157291071332
   78          0.060954420000         0.000487594326
   79   18535881.300000000745         0.000003393091
   80    2419299.990000000224         0.000010967411
   81     474949.065000000002         0.000032057797
   82     117392.346000000005         0.000086398425
   83      34065.440100000000         0.000223933745
   84      11133.885300000000         0.000599077528
   85       3988.280760000000         0.001549009838
   86       1534.678610000000         0.004134258290
   87        624.475513000000         0.009098713221
   88        265.735250000000         0.017829299141
   89        116.709586000000         0.012499593103
   90         50.306071000000        -0.026513773829
   91         23.036081700000        -0.134094562362
   92         10.586238100000        -0.007478003234
   93          4.798113940000         0.152338478752
   94          2.133543170000         0.558218432467
   95          0.857316380000        -0.936346083100
   96          0.378404470000        -0.192094297924
   97          0.152386050000         0.690255599709
   98          0.060954420000         0.015912202944
   99   18535881.300000000745         0.000003939126
  100    2419299.990000000224         0.000012704148
  101     474949.065000000002         0.000037412362
  102     117392.346000000005         0.000099178231
  103      34065.440100000000         0.000265503625
  104      11133.885300000000         0.000672204380
  105       3988.280760000000         0.001890131725
  106       1534.678610000000         0.004493035226
  107        624.475513000000         0.011614531601
  108        265.735250000000         0.017917464530
  109        116.709586000000         0.022473936487
  110         50.306071000000        -0.054996359305
  111         23.036081700000        -0.110535445226
  112         10.586238100000        -0.117542912304
  113          4.798113940000         0.510847138693
  114          2.133543170000         0.270836053126
  115          0.857316380000        -1.878409702714
  116          0.378404470000         2.097527113388
  117          0.152386050000        -0.706850738269
  118          0.060954420000        -0.209678751448
  119   18535881.300000000745         0.000003046072
  120    2419299.990000000224         0.000009732805
  121     474949.065000000002         0.000029281086
  122     117392.346000000005         0.000074018286
  123      34065.440100000000         0.000216875263
  124      11133.885300000000         0.000466707247
  125       3988.280760000000         0.001659082405
  126       1534.678610000000         0.002776886024
  127        624.475513000000         0.011242789071
  128        265.735250000000         0.007447468794
  129        116.709586000000         0.034817913582
  130         50.306071000000        -0.093962784647
  131         23.036081700000         0.029378073542
  132         10.586238100000        -0.350634712084
  133          4.798113940000         1.093409335983
  134          2.133543170000        -1.171326820153
  135          0.857316380000         0.309395439554
  136          0.378404470000         0.707118910062
  137          0.152386050000        -1.181417414876
  138          0.060954420000         0.714146090826
 S 137
    1   18535881.300000000745        -0.000000883981
    2    2419299.990000000224        -0.000002852346
    3     474949.065000000002        -0.000008336428
    4     117392.346000000005        -0.000022261322
    5      34065.440100000000        -0.000057801349
    6      11133.885300000000        -0.000149754716
    7       3988.280760000000        -0.000385195386
    8       1534.678610000000        -0.000927576568
    9        624.475513000000        -0.001851406125
   10        265.735250000000        -0.002461643301
   11        116.709586000000        -0.001463512396
   12         50.306071000000        -0.000174436883
   13         23.036081700000        -0.000003824172
   14         10.586238100000         0.000003554267
   15          4.798113940000        -0.000002449869
   16          2.133543170000         0.000001748656
   17          0.857316380000        -0.000000975172
   18          0.378404470000         0.000000540776
   19   18535881.300000000745        -0.000000783185
   20    2419299.990000000224        -0.000002529830
   21     474949.065000000002        -0.000007408159
   22     117392.346000000005        -0.000019854345
   23      34065.440100000000        -0.000051914099
   24      11133.885300000000        -0.000136247446
   25       3988.280760000000        -0.000360080225
   26       1534.678610000000        -0.000917839109
   27        624.475513000000        -0.002080812291
   28        265.735250000000        -0.003600934163
   29        116.709586000000        -0.002880901576
   30         50.306071000000         0.004851675415
   31         23.036081700000         0.011438429620
   32         10.586238100000         0.004431158041
   33          4.798113940000         0.000181321472
   34          2.133543170000         0.000049616252
   35          0.857316380000        -0.000016268719
   36          0.378404470000         0.000007533912
   37          0.152386050000        -0.000003502963
   38   18535881.300000000745        -0.000000628581
   39    2419299.990000000224        -0.000002030529
   40     474949.065000000002        -0.000005948202
   41     117392.346000000005        -0.000015948698
   42      34065.440100000000        -0.000041742237
   43      11133.885300000000        -0.000109730955
   44       3988.280760000000        -0.000291046825
   45       1534.678610000000        -0.000747546713
   46        624.475513000000        -0.001724408942
   47        265.735250000000        -0.003100299935
   48        116.709586000000        -0.002652508324
   49         50.306071000000         0.005533954946
   50         23.036081700000         0.018698159993
   51         10.586238100000         0.007522885175
   52          4.798113940000        -0.024428107621
   53          2.133543170000        -0.020791098745
   54          0.857316380000        -0.001132116721
   55          0.378404470000        -0.000210047926
   56          0.152386050000         0.000086866469
   57          0.060954420000        -0.000028970798
   58   18535881.300000000745        -0.000004367289
   59    2419299.990000000224        -0.000014106796
   60     474949.065000000002        -0.000041315458
   61     117392.346000000005        -0.000110776505
   62      34065.440100000000        -0.000289994017
   63      11133.885300000000        -0.000762499901
   64       3988.280760000000        -0.002023618748
   65       1534.678610000000        -0.005203737865
   66        624.475513000000        -0.012036973114
   67        265.735250000000        -0.021770715220
   68        116.709586000000        -0.018844321977
   69         50.306071000000         0.040673700916
   70         23.036081700000         0.145781918908
   71         10.586238100000         0.060609709071
   72          4.798113940000        -0.252046206585
   73          2.133543170000        -0.393004674206
   74          0.857316380000         0.161003589992
   75          0.378404470000         0.589985157644
   76          0.152386050000         0.222994231227
   77          0.060954420000        -0.000691270781
   78   18535881.300000000745         0.000000305032
   79    2419299.990000000224         0.000000985947
   80     474949.065000000002         0.000002881928
   81     117392.346000000005         0.000007767034
   82      34065.440100000000         0.000020131167
   83      11133.885300000000         0.000053855794
   84       3988.280760000000         0.000139252686
   85       1534.678610000000         0.000371661016
   86        624.475513000000         0.000817954943
   87        265.735250000000         0.001602816026
   88        116.709586000000         0.001123686802
   89         50.306071000000        -0.002383531807
   90         23.036081700000        -0.012054815604
   91         10.586238100000        -0.000672256566
   92          4.798113940000         0.013694904837
   93          2.133543170000         0.050182648360
   94          0.857316380000        -0.084175518934
   95          0.378404470000        -0.017268868321
   96          0.152386050000         0.062052508524
   97          0.060954420000         0.001430473160
   98   18535881.300000000745         0.000004138211
   99    2419299.990000000224         0.000013346220
  100     474949.065000000002         0.000039303197
  101     117392.346000000005         0.000104190736
  102      34065.440100000000         0.000278922277
  103      11133.885300000000         0.000706177840
  104       3988.280760000000         0.001985659688
  105       1534.678610000000         0.004720114904
  106        624.475513000000         0.012201534364
  107        265.735250000000         0.018823019876
  108        116.709586000000         0.023609777626
  109         50.306071000000        -0.057775895834
  110         23.036081700000        -0.116121947890
  111         10.586238100000        -0.123483574971
  112          4.798113940000         0.536665543782
  113          2.133543170000         0.284524208354
  114          0.857316380000        -1.973345230301
  115          0.378404470000         2.203536916707
  116          0.152386050000        -0.742575238449
  117          0.060954420000        -0.220275993820
  118   18535881.300000000745         0.000004120398
  119    2419299.990000000224         0.000013165489
  120     474949.065000000002         0.000039608295
  121     117392.346000000005         0.000100123955
  122      34065.440100000000         0.000293365468
  123      11133.885300000000         0.000631311235
  124       3988.280760000000         0.002244227765
  125       1534.678610000000         0.003756271958
  126        624.475513000000         0.015208032651
  127        265.735250000000         0.010074132662
  128        116.709586000000         0.047097918786
  129         50.306071000000        -0.127102722275
  130         23.036081700000         0.039739489804
  131         10.586238100000        -0.474300826625
  132          4.798113940000         1.479046238219
  133          2.133543170000        -1.584444608307
  134          0.857316380000         0.418516785924
  135          0.378404470000         0.956514206969
  136          0.152386050000        -1.598094076695
  137          0.060954420000         0.966019819307
 S 137
    1   18535881.300000000745        -0.000000557730
    2    2419299.990000000224        -0.000001799628
    3     474949.065000000002        -0.000005259696
    4     117392.346000000005        -0.000014045320
    5      34065.440100000000        -0.000036468563
    6      11133.885300000000        -0.000094484633
    7       3988.280760000000        -0.000243031042
    8       1534.678610000000        -0.000585235203
    9        624.475513000000        -0.001168106308
   10        265.735250000000        -0.001553122801
   11        116.709586000000        -0.000923372802
   12         50.306071000000        -0.000110057335
   13         23.036081700000        -0.000002412782
   14         10.586238100000         0.000002242491
   15          4.798113940000        -0.000001545694
   16          2.133543170000         0.000001103278
   17          0.857316380000        -0.000000615265
   18          0.378404470000         0.000000341191
   19   18535881.300000000745        -0.000000470676
   20    2419299.990000000224        -0.000001520368
   21     474949.065000000002        -0.000004452129
   22     117392.346000000005        -0.000011931993
   23      34065.440100000000        -0.000031199148
   24      11133.885300000000        -0.000081881499
   25       3988.280760000000        -0.000216399715
   26       1534.678610000000        -0.000551599637
   27        624.475513000000        -0.001250519064
   28        265.735250000000        -0.002164076423
   29        116.709586000000        -0.001731353836
   30         50.306071000000         0.002915742388
   31         23.036081700000         0.006874226168
   32         10.586238100000         0.002663021374
   33          4.798113940000         0.000108969924
   34          2.133543170000         0.000029818196
   35          0.857316380000        -0.000009777116
   36          0.378404470000         0.000004527703
   37          0.152386050000        -0.000002105198
   38   18535881.300000000745        -0.000000413872
   39    2419299.990000000224        -0.000001336946
   40     474949.065000000002        -0.000003916431
   41     117392.346000000005        -0.000010500985
   42      34065.440100000000        -0.000027484037
   43      11133.885300000000        -0.000072249355
   44       3988.280760000000        -0.000191631844
   45       1534.678610000000        -0.000492201745
   46        624.475513000000        -0.001135390037
   47        265.735250000000        -0.002041307935
   48        116.709586000000        -0.001746471762
   49         50.306071000000         0.003643681703
   50         23.036081700000         0.012311293480
   51         10.586238100000         0.004953238567
   52          4.798113940000        -0.016084021219
   53          2.133543170000        -0.013689331919
   54          0.857316380000        -0.000745411378
   55          0.378404470000        -0.000138300328
   56          0.152386050000         0.000057194857
   57          0.060954420000        -0.000019075032
   58   18535881.300000000745         0.000001865001
   59    2419299.990000000224         0.000006024148
   60     474949.065000000002         0.000017643300
   61     117392.346000000005         0.000047305857
   62      34065.440100000000         0.000123838673
   63      11133.885300000000         0.000325616980
   64       3988.280760000000         0.000864163555
   65       1534.678610000000         0.002222197545
   66        624.475513000000         0.005140253563
   67        265.735250000000         0.009296938310
   68        116.709586000000         0.008047255093
   69         50.306071000000        -0.017369245082
   70         23.036081700000        -0.062254523710
   71         10.586238100000        -0.025882692440
   72          4.798113940000         0.107633488854
   73          2.133543170000         0.167828212112
   74          0.857316380000        -0.068754766611
   75          0.378404470000        -0.251946505166
   76          0.152386050000        -0.095227170552
   77          0.060954420000         0.000295199388
   78   18535881.300000000745        -0.000005148564
   79    2419299.990000000224        -0.000016641589
   80     474949.065000000002        -0.000048643450
   81     117392.346000000005        -0.000131098137
   82      34065.440100000000        -0.000339789721
   83      11133.885300000000        -0.000909020596
   84       3988.280760000000        -0.002350416732
   85       1534.678610000000        -0.006273187957
   86        624.475513000000        -0.013806089073
   87        265.735250000000        -0.027053593849
   88        116.709586000000        -0.018966472681
   89         50.306071000000         0.040231130956
   90         23.036081700000         0.203470691633
   91         10.586238100000         0.011346876884
   92          4.798113940000        -0.231153412100
   93          2.133543170000        -0.847022344049
   94          0.857316380000         1.420780841371
   95          0.378404470000         0.291477588418
   96          0.152386050000        -1.047371211794
   97          0.060954420000        -0.024144654946
   98   18535881.300000000745         0.000000864654
   99    2419299.990000000224         0.000002788612
  100     474949.065000000002         0.000008212166
  101     117392.346000000005         0.000021770026
  102      34065.440100000000         0.000058279127
  103      11133.885300000000         0.000147551599
  104       3988.280760000000         0.000414891611
  105       1534.678610000000         0.000986239530
  106        624.475513000000         0.002549436985
  107        265.735250000000         0.003932956431
  108        116.709586000000         0.004933120582
  109         50.306071000000        -0.012071924834
  110         23.036081700000        -0.024262980371
  111         10.586238100000        -0.025801147932
  112          4.798113940000         0.112133027314
  113          2.133543170000         0.059449616612
  114          0.857316380000        -0.412318579369
  115          0.378404470000         0.460415743344
  116          0.152386050000        -0.155156615624
  117          0.060954420000        -0.046025339837
  118   18535881.300000000745         0.000005084556
  119    2419299.990000000224         0.000016246164
  120     474949.065000000002         0.000048876487
  121     117392.346000000005         0.000123552584
  122      34065.440100000000         0.000362011885
  123      11133.885300000000         0.000779035693
  124       3988.280760000000         0.002769368631
  125       1534.678610000000         0.004635225485
  126        624.475513000000         0.018766655161
  127        265.735250000000         0.012431441860
  128        116.709586000000         0.058118654854
  129         50.306071000000        -0.156844281813
  130         23.036081700000         0.049038381133
  131         10.586238100000        -0.585285438299
  132          4.798113940000         1.825137501782
  133          2.133543170000        -1.955198694533
  134          0.857316380000         0.516448141631
  135          0.378404470000         1.180334938162
  136          0.152386050000        -1.972042087248
  137          0.060954420000         1.192064828078
 S 136
    1   18535881.300000000745        -0.000000382043
    2    2419299.990000000224        -0.000001232739
    3     474949.065000000002        -0.000003602873
    4     117392.346000000005        -0.000009620994
    5      34065.440100000000        -0.000024980836
    6      11133.885300000000        -0.000064721637
    7       3988.280760000000        -0.000166475399
    8       1534.678610000000        -0.000400884031
    9        624.475513000000        -0.000800148663
   10        265.735250000000        -0.001063883591
   11        116.709586000000        -0.000632507083
   12         50.306071000000        -0.000075388882
   13         23.036081700000        -0.000001652747
   14         10.586238100000         0.000001536098
   15          4.798113940000        -0.000001058795
   16          2.133543170000         0.000000755742
   17          0.857316380000        -0.000000421454
   18   18535881.300000000745        -0.000000312629
   19    2419299.990000000224        -0.000001009849
   20     474949.065000000002        -0.000002957164
   21     117392.346000000005        -0.000007925390
   22      34065.440100000000        -0.000020722894
   23      11133.885300000000        -0.000054386795
   24       3988.280760000000        -0.000143735606
   25       1534.678610000000        -0.000366379911
   26        624.475513000000        -0.000830611611
   27        265.735250000000        -0.001437408718
   28        116.709586000000        -0.001149988545
   29         50.306071000000         0.001936675379
   30         23.036081700000         0.004565953640
   31         10.586238100000         0.001768814676
   32          4.798113940000         0.000072379292
   33          2.133543170000         0.000019805648
   34          0.857316380000        -0.000006494092
   35          0.378404470000         0.000003007362
   36          0.152386050000        -0.000001398301
   37   18535881.300000000745        -0.000000256200
   38    2419299.990000000224        -0.000000827614
   39     474949.065000000002        -0.000002424401
   40     117392.346000000005        -0.000006500459
   41      34065.440100000000        -0.000017013532
   42      11133.885300000000        -0.000044724750
   43       3988.280760000000        -0.000118626475
   44       1534.678610000000        -0.000304689223
   45        624.475513000000        -0.000702844133
   46        265.735250000000        -0.001263637393
   47        116.709586000000        -0.001081124012
   48         50.306071000000         0.002255559961
   49         23.036081700000         0.007621099454
   50         10.586238100000         0.003066219142
   51          4.798113940000        -0.009956543196
   52          2.133543170000        -0.008474151005
   53          0.857316380000        -0.000461434394
   54          0.378404470000        -0.000085612495
   55          0.152386050000         0.000035405516
   56          0.060954420000        -0.000011808078
   57   18535881.300000000745        -0.000000427517
   58    2419299.990000000224        -0.000001380925
   59     474949.065000000002        -0.000004044401
   60     117392.346000000005        -0.000010843996
   61      34065.440100000000        -0.000028387733
   62      11133.885300000000        -0.000074641690
   63       3988.280760000000        -0.000198093565
   64       1534.678610000000        -0.000509397824
   65        624.475513000000        -0.001178308377
   66        265.735250000000        -0.002131151733
   67        116.709586000000        -0.001844684892
   68         50.306071000000         0.003981579260
   69         23.036081700000         0.014270701997
   70         10.586238100000         0.005933130135
   71          4.798113940000        -0.024672993266
   72          2.133543170000        -0.038471523978
   73          0.857316380000         0.015760762860
   74          0.378404470000         0.057754092073
   75          0.152386050000         0.021829073486
   76          0.060954420000        -0.000067669018
   77   18535881.300000000745         0.000002066173
   78    2419299.990000000224         0.000006678443
   79     474949.065000000002         0.000019521124
   80     117392.346000000005         0.000052611051
   81      34065.440100000000         0.000136361161
   82      11133.885300000000         0.000364799452
   83       3988.280760000000         0.000943246765
   84       1534.678610000000         0.002517495799
   85        624.475513000000         0.005540527637
   86        265.735250000000         0.010856889566
   87        116.709586000000         0.007611443437
   88         50.306071000000        -0.016145172739
   89         23.036081700000        -0.081654912147
   90         10.586238100000        -0.004553620119
   91          4.798113940000         0.092764276791
   92          2.133543170000         0.339918906920
   93          0.857316380000        -0.570174180132
   94          0.378404470000        -0.116972998343
   95          0.152386050000         0.420320998559
   96          0.060954420000         0.009689502024
   97   18535881.300000000745        -0.000005926322
   98    2419299.990000000224        -0.000019113091
   99     474949.065000000002        -0.000056286017
  100     117392.346000000005        -0.000149211311
  101      34065.440100000000        -0.000399443947
  102      11133.885300000000        -0.001011315649
  103       3988.280760000000        -0.002843658638
  104       1534.678610000000        -0.006759665618
  105        624.475513000000        -0.017473789093
  106        265.735250000000        -0.026956403154
  107        116.709586000000        -0.033811507838
  108         50.306071000000         0.082740726566
  109         23.036081700000         0.166297972536
  110         10.586238100000         0.176840541623
  111          4.798113940000        -0.768557481874
  112          2.133543170000        -0.407466459583
  113          0.857316380000         2.826023132361
  114          0.378404470000        -3.155680113142
  115          0.152386050000         1.063440278544
  116          0.060954420000         0.315456740402
  117   18535881.300000000745         0.000006089932
  118    2419299.990000000224         0.000019458539
  119     474949.065000000002         0.000058540898
  120     117392.346000000005         0.000147982794
  121      34065.440100000000         0.000433592957
  122      11133.885300000000         0.000933075413
  123       3988.280760000000         0.003316959420
[...]
  BAS[ATNO][ 14].a[ 24] =       116.709586000000;     BAS[ATNO][ 14].d[ 24] =        -0.003410499938;
  BAS[ATNO][ 14].a[ 25] =        50.306071000000;     BAS[ATNO][ 14].d[ 25] =        -0.008568832641;
  BAS[ATNO][ 14].a[ 26] =        23.036081700000;     BAS[ATNO][ 14].d[ 26] =        -0.035818970827;
  BAS[ATNO][ 14].a[ 27] =        10.586238100000;     BAS[ATNO][ 14].d[ 27] =        -0.059604391466;
  BAS[ATNO][ 14].a[ 28] =         4.798113940000;     BAS[ATNO][ 14].d[ 28] =        -0.127864719273;
  BAS[ATNO][ 14].a[ 29] =         2.133543170000;     BAS[ATNO][ 14].d[ 29] =        -0.059243557970;
  BAS[ATNO][ 14].a[ 30] =         0.857316380000;     BAS[ATNO][ 14].d[ 30] =         0.761868731221;
  BAS[ATNO][ 14].a[ 31] =         0.342926550000;     BAS[ATNO][ 14].d[ 31] =        -0.470261092320;
  BAS[ATNO][ 14].a[ 32] =         0.137170620000;     BAS[ATNO][ 14].d[ 32] =        -0.254826706713;
  BAS[ATNO][ 14].a[ 33] =       624.475513000000;     BAS[ATNO][ 14].d[ 33] =        -0.000359327911;
  BAS[ATNO][ 14].a[ 34] =       265.735250000000;     BAS[ATNO][ 14].d[ 34] =         0.001014306568;
  BAS[ATNO][ 14].a[ 35] =       116.709586000000;     BAS[ATNO][ 14].d[ 35] =        -0.005571741476;
  BAS[ATNO][ 14].a[ 36] =        50.306071000000;     BAS[ATNO][ 14].d[ 36] =         0.006577305373;
  BAS[ATNO][ 14].a[ 37] =        23.036081700000;     BAS[ATNO][ 14].d[ 37] =        -0.051447477649;
  BAS[ATNO][ 14].a[ 38] =        10.586238100000;     BAS[ATNO][ 14].d[ 38] =         0.027932562333;
  BAS[ATNO][ 14].a[ 39] =         4.798113940000;     BAS[ATNO][ 14].d[ 39] =        -0.287640369655;
  BAS[ATNO][ 14].a[ 40] =         2.133543170000;     BAS[ATNO][ 14].d[ 40] =         0.398090803269;
  BAS[ATNO][ 14].a[ 41] =         0.857316380000;     BAS[ATNO][ 14].d[ 41] =         0.081954418493;
  BAS[ATNO][ 14].a[ 42] =         0.342926550000;     BAS[ATNO][ 14].d[ 42] =        -0.547911295728;
  BAS[ATNO][ 14].a[ 43] =         0.137170620000;     BAS[ATNO][ 14].d[ 43] =         0.513109901175;

  // Basis function  16 L = d
  InitBFNGauss(BAS[ATNO][ 15]);
  BAS[ATNO][ 15].l  = 2;
  BAS[ATNO][ 15].ng = 44;
  BAS[ATNO][ 15].a[  0] =       624.475513000000;     BAS[ATNO][ 15].d[  0] =        -0.000004640405;
  BAS[ATNO][ 15].a[  1] =       265.735250000000;     BAS[ATNO][ 15].d[  1] =        -0.000016180583;
  BAS[ATNO][ 15].a[  2] =       116.709586000000;     BAS[ATNO][ 15].d[  2] =        -0.000096758999;
  BAS[ATNO][ 15].a[  3] =        50.306071000000;     BAS[ATNO][ 15].d[  3] =        -0.000371754703;
  BAS[ATNO][ 15].a[  4] =        23.036081700000;     BAS[ATNO][ 15].d[  4] =        -0.001062567924;
  BAS[ATNO][ 15].a[  5] =        10.586238100000;     BAS[ATNO][ 15].d[  5] =        -0.002155685447;
  BAS[ATNO][ 15].a[  6] =         4.798113940000;     BAS[ATNO][ 15].d[  6] =        -0.002753851823;
  BAS[ATNO][ 15].a[  7] =         2.133543170000;     BAS[ATNO][ 15].d[  7] =        -0.002078549256;
  BAS[ATNO][ 15].a[  8] =         0.857316380000;     BAS[ATNO][ 15].d[  8] =        -0.000596150914;
  BAS[ATNO][ 15].a[  9] =         0.342926550000;     BAS[ATNO][ 15].d[  9] =        -0.000002499586;
  BAS[ATNO][ 15].a[ 10] =         0.137170620000;     BAS[ATNO][ 15].d[ 10] =        -0.000011824665;
  BAS[ATNO][ 15].a[ 11] =       624.475513000000;     BAS[ATNO][ 15].d[ 11] =        -0.000143603467;
  BAS[ATNO][ 15].a[ 12] =       265.735250000000;     BAS[ATNO][ 15].d[ 12] =        -0.000561109088;
  BAS[ATNO][ 15].a[ 13] =       116.709586000000;     BAS[ATNO][ 15].d[ 13] =        -0.003044829770;
  BAS[ATNO][ 15].a[ 14] =        50.306071000000;     BAS[ATNO][ 15].d[ 14] =        -0.012441208835;
  BAS[ATNO][ 15].a[ 15] =        23.036081700000;     BAS[ATNO][ 15].d[ 15] =        -0.033921211179;
  BAS[ATNO][ 15].a[ 16] =        10.586238100000;     BAS[ATNO][ 15].d[ 16] =        -0.075439145115;
  BAS[ATNO][ 15].a[ 17] =         4.798113940000;     BAS[ATNO][ 15].d[ 17] =        -0.088360708032;
  BAS[ATNO][ 15].a[ 18] =         2.133543170000;     BAS[ATNO][ 15].d[ 18] =        -0.082940396181;
  BAS[ATNO][ 15].a[ 19] =         0.857316380000;     BAS[ATNO][ 15].d[ 19] =         0.331638024337;
  BAS[ATNO][ 15].a[ 20] =         0.342926550000;     BAS[ATNO][ 15].d[ 20] =         0.457359957390;
  BAS[ATNO][ 15].a[ 21] =         0.137170620000;     BAS[ATNO][ 15].d[ 21] =         0.071615421734;
  BAS[ATNO][ 15].a[ 22] =       624.475513000000;     BAS[ATNO][ 15].d[ 22] =         0.000089404960;
  BAS[ATNO][ 15].a[ 23] =       265.735250000000;     BAS[ATNO][ 15].d[ 23] =         0.000127170901;
  BAS[ATNO][ 15].a[ 24] =       116.709586000000;     BAS[ATNO][ 15].d[ 24] =         0.001695166150;
  BAS[ATNO][ 15].a[ 25] =        50.306071000000;     BAS[ATNO][ 15].d[ 25] =         0.004259080868;
  BAS[ATNO][ 15].a[ 26] =        23.036081700000;     BAS[ATNO][ 15].d[ 26] =         0.017803579523;
  BAS[ATNO][ 15].a[ 27] =        10.586238100000;     BAS[ATNO][ 15].d[ 27] =         0.029625963530;
  BAS[ATNO][ 15].a[ 28] =         4.798113940000;     BAS[ATNO][ 15].d[ 28] =         0.063554302238;
  BAS[ATNO][ 15].a[ 29] =         2.133543170000;     BAS[ATNO][ 15].d[ 29] =         0.029446613658;
  BAS[ATNO][ 15].a[ 30] =         0.857316380000;     BAS[ATNO][ 15].d[ 30] =        -0.378681749627;
  BAS[ATNO][ 15].a[ 31] =         0.342926550000;     BAS[ATNO][ 15].d[ 31] =         0.233740125988;
  BAS[ATNO][ 15].a[ 32] =         0.137170620000;     BAS[ATNO][ 15].d[ 32] =         0.126659907666;
  BAS[ATNO][ 15].a[ 33] =       624.475513000000;     BAS[ATNO][ 15].d[ 33] =         0.000513834014;
  BAS[ATNO][ 15].a[ 34] =       265.735250000000;     BAS[ATNO][ 15].d[ 34] =        -0.001450444567;
  BAS[ATNO][ 15].a[ 35] =       116.709586000000;     BAS[ATNO][ 15].d[ 35] =         0.007967514363;
  BAS[ATNO][ 15].a[ 36] =        50.306071000000;     BAS[ATNO][ 15].d[ 36] =        -0.009405457029;
  BAS[ATNO][ 15].a[ 37] =        23.036081700000;     BAS[ATNO][ 15].d[ 37] =         0.073569191758;
  BAS[ATNO][ 15].a[ 38] =        10.586238100000;     BAS[ATNO][ 15].d[ 38] =        -0.039943183388;
  BAS[ATNO][ 15].a[ 39] =         4.798113940000;     BAS[ATNO][ 15].d[ 39] =         0.411321807784;
  BAS[ATNO][ 15].a[ 40] =         2.133543170000;     BAS[ATNO][ 15].d[ 40] =        -0.569264422304;
  BAS[ATNO][ 15].a[ 41] =         0.857316380000;     BAS[ATNO][ 15].d[ 41] =        -0.117193701326;
  BAS[ATNO][ 15].a[ 42] =         0.342926550000;     BAS[ATNO][ 15].d[ 42] =         0.783505684318;
  BAS[ATNO][ 15].a[ 43] =         0.137170620000;     BAS[ATNO][ 15].d[ 43] =        -0.733740164485;

  // Basis function  17 L = d
  InitBFNGauss(BAS[ATNO][ 16]);
  BAS[ATNO][ 16].l  = 2;
  BAS[ATNO][ 16].ng = 44;
  BAS[ATNO][ 16].a[  0] =       624.475513000000;     BAS[ATNO][ 16].d[  0] =        -0.000011284636;
  BAS[ATNO][ 16].a[  1] =       265.735250000000;     BAS[ATNO][ 16].d[  1] =        -0.000039348287;
  BAS[ATNO][ 16].a[  2] =       116.709586000000;     BAS[ATNO][ 16].d[  2] =        -0.000235300598;
  BAS[ATNO][ 16].a[  3] =        50.306071000000;     BAS[ATNO][ 16].d[  3] =        -0.000904041023;
  BAS[ATNO][ 16].a[  4] =        23.036081700000;     BAS[ATNO][ 16].d[  4] =        -0.002583975363;
  BAS[ATNO][ 16].a[  5] =        10.586238100000;     BAS[ATNO][ 16].d[  5] =        -0.005242241894;
  BAS[ATNO][ 16].a[  6] =         4.798113940000;     BAS[ATNO][ 16].d[  6] =        -0.006696875656;
  BAS[ATNO][ 16].a[  7] =         2.133543170000;     BAS[ATNO][ 16].d[  7] =        -0.005054660458;
  BAS[ATNO][ 16].a[  8] =         0.857316380000;     BAS[ATNO][ 16].d[  8] =        -0.001449732521;
  BAS[ATNO][ 16].a[  9] =         0.342926550000;     BAS[ATNO][ 16].d[  9] =        -0.000006078546;
  BAS[ATNO][ 16].a[ 10] =         0.137170620000;     BAS[ATNO][ 16].d[ 10] =        -0.000028755473;
  BAS[ATNO][ 16].a[ 11] =       624.475513000000;     BAS[ATNO][ 16].d[ 11] =         0.000047682301;
  BAS[ATNO][ 16].a[ 12] =       265.735250000000;     BAS[ATNO][ 16].d[ 12] =         0.000186311466;
  BAS[ATNO][ 16].a[ 13] =       116.709586000000;     BAS[ATNO][ 16].d[ 13] =         0.001011009644;
  BAS[ATNO][ 16].a[ 14] =        50.306071000000;     BAS[ATNO][ 16].d[ 14] =         0.004130996824;
  BAS[ATNO][ 16].a[ 15] =        23.036081700000;     BAS[ATNO][ 16].d[ 15] =         0.011263247607;
  BAS[ATNO][ 16].a[ 16] =        10.586238100000;     BAS[ATNO][ 16].d[ 16] =         0.025048921934;
  BAS[ATNO][ 16].a[ 17] =         4.798113940000;     BAS[ATNO][ 16].d[ 17] =         0.029339416216;
  BAS[ATNO][ 16].a[ 18] =         2.133543170000;     BAS[ATNO][ 16].d[ 18] =         0.027539648096;
  BAS[ATNO][ 16].a[ 19] =         0.857316380000;     BAS[ATNO][ 16].d[ 19] =        -0.110117565214;
  BAS[ATNO][ 16].a[ 20] =         0.342926550000;     BAS[ATNO][ 16].d[ 20] =        -0.151862456166;
  BAS[ATNO][ 16].a[ 21] =         0.137170620000;     BAS[ATNO][ 16].d[ 21] =        -0.023779287338;
  BAS[ATNO][ 16].a[ 22] =       624.475513000000;     BAS[ATNO][ 16].d[ 22] =        -0.000202361163;
  BAS[ATNO][ 16].a[ 23] =       265.735250000000;     BAS[ATNO][ 16].d[ 23] =        -0.000287841429;
  BAS[ATNO][ 16].a[ 24] =       116.709586000000;     BAS[ATNO][ 16].d[ 24] =        -0.003836876531;
  BAS[ATNO][ 16].a[ 25] =        50.306071000000;     BAS[ATNO][ 16].d[ 25] =        -0.009640097774;
  BAS[ATNO][ 16].a[ 26] =        23.036081700000;     BAS[ATNO][ 16].d[ 26] =        -0.040297015403;
  BAS[ATNO][ 16].a[ 27] =        10.586238100000;     BAS[ATNO][ 16].d[ 27] =        -0.067056060672;
  BAS[ATNO][ 16].a[ 28] =         4.798113940000;     BAS[ATNO][ 16].d[ 28] =        -0.143850212417;
  BAS[ATNO][ 16].a[ 29] =         2.133543170000;     BAS[ATNO][ 16].d[ 29] =        -0.066650116207;
  BAS[ATNO][ 16].a[ 30] =         0.857316380000;     BAS[ATNO][ 16].d[ 30] =         0.857116642053;
  BAS[ATNO][ 16].a[ 31] =         0.342926550000;     BAS[ATNO][ 16].d[ 31] =        -0.529052567483;
  BAS[ATNO][ 16].a[ 32] =         0.137170620000;     BAS[ATNO][ 16].d[ 32] =        -0.286684834556;
  BAS[ATNO][ 16].a[ 33] =       624.475513000000;     BAS[ATNO][ 16].d[ 33] =         0.000588381549;
  BAS[ATNO][ 16].a[ 34] =       265.735250000000;     BAS[ATNO][ 16].d[ 34] =        -0.001660876466;
  BAS[ATNO][ 16].a[ 35] =       116.709586000000;     BAS[ATNO][ 16].d[ 35] =         0.009123449045;
  BAS[ATNO][ 16].a[ 36] =        50.306071000000;     BAS[ATNO][ 16].d[ 36] =        -0.010770009823;
  BAS[ATNO][ 16].a[ 37] =        23.036081700000;     BAS[ATNO][ 16].d[ 37] =         0.084242681187;
  BAS[ATNO][ 16].a[ 38] =        10.586238100000;     BAS[ATNO][ 16].d[ 38] =        -0.045738179031;
  BAS[ATNO][ 16].a[ 39] =         4.798113940000;     BAS[ATNO][ 16].d[ 39] =         0.470996773112;
  BAS[ATNO][ 16].a[ 40] =         2.133543170000;     BAS[ATNO][ 16].d[ 40] =        -0.651853854764;
  BAS[ATNO][ 16].a[ 41] =         0.857316380000;     BAS[ATNO][ 16].d[ 41] =        -0.134196276756;
  BAS[ATNO][ 16].a[ 42] =         0.342926550000;     BAS[ATNO][ 16].d[ 42] =         0.897177446090;
  BAS[ATNO][ 16].a[ 43] =         0.137170620000;     BAS[ATNO][ 16].d[ 43] =        -0.840191896552;

  // Basis function  18 L = f
  InitBFNGauss(BAS[ATNO][ 17]);
  BAS[ATNO][ 17].l  = 3;
  BAS[ATNO][ 17].ng = 12;
  BAS[ATNO][ 17].a[  0] =         1.688892000000;     BAS[ATNO][ 17].d[  0] =        -0.052923518198;
  BAS[ATNO][ 17].a[  1] =         0.675557000000;     BAS[ATNO][ 17].d[  1] =        -0.397031869751;
  BAS[ATNO][ 17].a[  2] =         0.270223000000;     BAS[ATNO][ 17].d[  2] =        -0.131129452023;
  BAS[ATNO][ 17].a[  3] =         0.108089000000;     BAS[ATNO][ 17].d[  3] =        -0.002304951570;
  BAS[ATNO][ 17].a[  4] =         1.688892000000;     BAS[ATNO][ 17].d[  4] =        -0.269738821875;
  BAS[ATNO][ 17].a[  5] =         0.675557000000;     BAS[ATNO][ 17].d[  5] =        -0.313429251709;
  BAS[ATNO][ 17].a[  6] =         0.270223000000;     BAS[ATNO][ 17].d[  6] =         0.658184318125;
  BAS[ATNO][ 17].a[  7] =         0.108089000000;     BAS[ATNO][ 17].d[  7] =        -0.058349284831;
  BAS[ATNO][ 17].a[  8] =         1.688892000000;     BAS[ATNO][ 17].d[  8] =        -0.757875063328;
  BAS[ATNO][ 17].a[  9] =         0.675557000000;     BAS[ATNO][ 17].d[  9] =         0.850127597899;
  BAS[ATNO][ 17].a[ 10] =         0.270223000000;     BAS[ATNO][ 17].d[ 10] =        -0.419096793875;
  BAS[ATNO][ 17].a[ 11] =         0.108089000000;     BAS[ATNO][ 17].d[ 11] =        -0.138644428161;

  // Basis function  19 L = f
  InitBFNGauss(BAS[ATNO][ 18]);
  BAS[ATNO][ 18].l  = 3;
  BAS[ATNO][ 18].ng = 12;
  BAS[ATNO][ 18].a[  0] =         1.688892000000;     BAS[ATNO][ 18].d[  0] =         0.081996881800;
  BAS[ATNO][ 18].a[  1] =         0.675557000000;     BAS[ATNO][ 18].d[  1] =         0.615140043657;
  BAS[ATNO][ 18].a[  2] =         0.270223000000;     BAS[ATNO][ 18].d[  2] =         0.203164992505;
  BAS[ATNO][ 18].a[  3] =         0.108089000000;     BAS[ATNO][ 18].d[  3] =         0.003571169262;
  BAS[ATNO][ 18].a[  4] =         1.688892000000;     BAS[ATNO][ 18].d[  4] =        -0.054510948146;
  BAS[ATNO][ 18].a[  5] =         0.675557000000;     BAS[ATNO][ 18].d[  5] =        -0.063340254727;
  BAS[ATNO][ 18].a[  6] =         0.270223000000;     BAS[ATNO][ 18].d[  6] =         0.133011077108;
  BAS[ATNO][ 18].a[  7] =         0.108089000000;     BAS[ATNO][ 18].d[  7] =        -0.011791683591;
  BAS[ATNO][ 18].a[  8] =         1.688892000000;     BAS[ATNO][ 18].d[  8] =        -0.704992031900;
  BAS[ATNO][ 18].a[  9] =         0.675557000000;     BAS[ATNO][ 18].d[  9] =         0.790807366039;
  BAS[ATNO][ 18].a[ 10] =         0.270223000000;     BAS[ATNO][ 18].d[ 10] =        -0.389853043824;
  BAS[ATNO][ 18].a[ 11] =         0.108089000000;     BAS[ATNO][ 18].d[ 11] =        -0.128970092632;

  // Basis function  20 L = f
  InitBFNGauss(BAS[ATNO][ 19]);
  BAS[ATNO][ 19].l  = 3;
  BAS[ATNO][ 19].ng = 12;
  BAS[ATNO][ 19].a[  0] =         1.688892000000;     BAS[ATNO][ 19].d[  0] =         0.026731543176;
  BAS[ATNO][ 19].a[  1] =         0.675557000000;     BAS[ATNO][ 19].d[  1] =         0.200539853163;
  BAS[ATNO][ 19].a[  2] =         0.270223000000;     BAS[ATNO][ 19].d[  2] =         0.066233174356;
  BAS[ATNO][ 19].a[  3] =         0.108089000000;     BAS[ATNO][ 19].d[  3] =         0.001164225556;
  BAS[ATNO][ 19].a[  4] =         1.688892000000;     BAS[ATNO][ 19].d[  4] =        -0.366825054409;
  BAS[ATNO][ 19].a[  5] =         0.675557000000;     BAS[ATNO][ 19].d[  5] =        -0.426240841093;
  BAS[ATNO][ 19].a[  6] =         0.270223000000;     BAS[ATNO][ 19].d[  6] =         0.895082497315;
  BAS[ATNO][ 19].a[  7] =         0.108089000000;     BAS[ATNO][ 19].d[  7] =        -0.079350756536;
  BAS[ATNO][ 19].a[  8] =         1.688892000000;     BAS[ATNO][ 19].d[  8] =         0.662054323674;
  BAS[ATNO][ 19].a[  9] =         0.675557000000;     BAS[ATNO][ 19].d[  9] =        -0.742643054374;
  BAS[ATNO][ 19].a[ 10] =         0.270223000000;     BAS[ATNO][ 19].d[ 10] =         0.366108950999;
  BAS[ATNO][ 19].a[ 11] =         0.108089000000;     BAS[ATNO][ 19].d[ 11] =         0.121115138311;

  // Basis function  21 L = g
  InitBFNGauss(BAS[ATNO][ 20]);
  BAS[ATNO][ 20].l  = 4;
  BAS[ATNO][ 20].ng = 4;
  BAS[ATNO][ 20].a[  0] =         0.844446000000;     BAS[ATNO][ 20].d[  0] =         0.707699892671;
  BAS[ATNO][ 20].a[  1] =         0.337778000000;     BAS[ATNO][ 20].d[  1] =         0.295069030736;
  BAS[ATNO][ 20].a[  2] =         0.844446000000;     BAS[ATNO][ 20].d[  2] =         0.390575463551;
  BAS[ATNO][ 20].a[  3] =         0.337778000000;     BAS[ATNO][ 20].d[  3] =        -0.489033697458;

  // Basis function  22 L = g
  InitBFNGauss(BAS[ATNO][ 21]);
  BAS[ATNO][ 21].l  = 4;
  BAS[ATNO][ 21].ng = 4;
  BAS[ATNO][ 21].a[  0] =         0.844446000000;     BAS[ATNO][ 21].d[  0] =         0.323771580940;
  BAS[ATNO][ 21].a[  1] =         0.337778000000;     BAS[ATNO][ 21].d[  1] =         0.134993614606;
  BAS[ATNO][ 21].a[  2] =         0.844446000000;     BAS[ATNO][ 21].d[  2] =        -0.853719801839;
  BAS[ATNO][ 21].a[  3] =         0.337778000000;     BAS[ATNO][ 21].d[  3] =         1.068929797818;

-------
TIMINGS
-------

Total SCF time: 0 days 0 hours 0 min 56 sec 

Total time                  ....      56.601 sec
Sum of individual times     ....      56.227 sec  ( 99.3%)

Fock matrix formation       ....      55.432 sec  ( 97.9%)
  XC integration            ....       0.045 sec  (  0.1% of F)
    Basis function eval.    ....       0.020 sec  ( 44.7% of XC)
    Density eval.           ....       0.002 sec  (  5.5% of XC)
    XC-Functional eval.     ....       0.002 sec  (  3.6% of XC)
    XC-Potential eval.      ....       0.006 sec  ( 13.0% of XC)
Diagonalization             ....       0.002 sec  (  0.0%)
Density matrix formation    ....       0.001 sec  (  0.0%)
Population analysis         ....       0.001 sec  (  0.0%)
Initial guess               ....       0.088 sec  (  0.2%)
Orbital Transformation      ....       0.000 sec  (  0.0%)
Orbital Orthonormalization  ....       0.000 sec  (  0.0%)
DIIS solution               ....       0.000 sec  (  0.0%)
SOSCF solution              ....       0.001 sec  (  0.0%)
Grid generation             ....       0.703 sec  (  1.2%)

-------------------------   --------------------
FINAL SINGLE POINT ENERGY     -1785.521285876546
-------------------------   --------------------


                            ***************************************
                            *     ORCA property calculations      *
                            ***************************************

                                    ---------------------
                                    Active property flags
                                    ---------------------
   (+) Dipole Moment


------------------------------------------------------------------------------
                       ORCA ELECTRIC PROPERTIES CALCULATION
------------------------------------------------------------------------------

Dipole Moment Calculation                       ... on
Quadrupole Moment Calculation                   ... off
Polarizability Calculation                      ... off
GBWName                                         ... Kr_ano-rcc-qzp_34.25899725_.gbw
Electron density file                           ... Kr_ano-rcc-qzp_34.25899725_.scfp
The origin for moment calculation is the CENTER OF MASS  = ( 0.000000,  0.000000  0.000000)

-------------
DIPOLE MOMENT
-------------
                                X             Y             Z
Electronic contribution:      0.00000       0.00000      -0.00000
Nuclear contribution   :      0.00000       0.00000       0.00000
                        -----------------------------------------
Total Dipole Moment    :      0.00000       0.00000      -0.00000
                        -----------------------------------------
Magnitude (a.u.)       :      0.00000
Magnitude (Debye)      :      0.00000



--------------------
Rotational spectrum 
--------------------
 
Rotational constants in cm-1:     0.000000     0.000000     0.000000 
Rotational constants in MHz :     0.000000     0.000000     0.000000 

 Dipole components along the rotational axes: 
x,y,z [a.u.] :     0.000000     0.000000    -0.000000 
x,y,z [Debye]:     0.000000     0.000000    -0.000000 

 

Timings for individual modules:

Sum of individual times         ...       58.259 sec (=   0.971 min)
GTO integral calculation        ...        0.876 sec (=   0.015 min)   1.5 %
Relativistic integrals          ...        0.472 sec (=   0.008 min)   0.8 %
SCF iterations                  ...       56.911 sec (=   0.949 min)  97.7 %
                             ****ORCA TERMINATED NORMALLY****
TOTAL RUN TIME: 0 days 0 hours 0 minutes 58 seconds 682 msec
