
                                 *****************
                                 * O   R   C   A *
                                 *****************

           --- An Ab Initio, DFT and Semiempirical electronic structure package ---

                  #######################################################
                  #                        -***-                        #
                  #          Department of theory and spectroscopy      #
                  #               Directorship: Frank Neese             #
                  #        Max Planck Institute fuer Kohlenforschung    #
                  #                Kaiser Wilhelm Platz 1               #
                  #                 D-45470 Muelheim/Ruhr               #
                  #                      Germany                        #
                  #                                                     #
                  #                  All rights reserved                #
                  #                        -***-                        #
                  #######################################################


                         Program Version 4.2.1 -  RELEASE  -


 With contributions from (in alphabetic order):
   Daniel Aravena         : Magnetic Suceptibility
   Michael Atanasov       : Ab Initio Ligand Field Theory (pilot matlab implementation)
   Alexander A. Auer      : GIAO ZORA, VPT2
   Ute Becker             : Parallelization
   Giovanni Bistoni       : ED, misc. LED, open-shell LED, HFLD
   Martin Brehm           : Molecular dynamics
   Dmytro Bykov           : SCF Hessian
   Vijay G. Chilkuri      : MRCI spin determinant printing, contributions to CSF-ICE
   Dipayan Datta          : RHF DLPNO-CCSD density
   Achintya Kumar Dutta   : EOM-CC, STEOM-CC
   Dmitry Ganyushin       : Spin-Orbit,Spin-Spin,Magnetic field MRCI
   Miquel Garcia          : C-PCM Hessian, Gaussian charge scheme
   Yang Guo               : DLPNO-NEVPT2, CIM, IAO-localization
   Andreas Hansen         : Spin unrestricted coupled pair/coupled cluster methods
   Benjamin Helmich-Paris : CASSCF linear response (MC-RPA)
   Lee Huntington         : MR-EOM, pCC
   Robert Izsak           : Overlap fitted RIJCOSX, COSX-SCS-MP3, EOM
   Christian Kollmar      : KDIIS, OOCD, Brueckner-CCSD(T), CCSD density
   Simone Kossmann        : Meta GGA functionals, TD-DFT gradient, OOMP2, MP2 Hessian
   Martin Krupicka        : AUTO-CI
   Lucas Lang             : DCDCAS
   Dagmar Lenk            : GEPOL surface, SMD
   Dimitrios Liakos       : Extrapolation schemes; Compound Job, initial MDCI parallelization
   Dimitrios Manganas     : Further ROCIS development; embedding schemes
   Dimitrios Pantazis     : SARC Basis sets
   Taras Petrenko         : DFT Hessian,TD-DFT gradient, ASA, ECA, R-Raman, ABS, FL, XAS/XES, NRVS
   Peter Pinski           : DLPNO-MP2, DLPNO-MP2 Gradient
   Christoph Reimann      : Effective Core Potentials
   Marius Retegan         : Local ZFS, SOC
   Christoph Riplinger    : Optimizer, TS searches, QM/MM, DLPNO-CCSD(T), (RO)-DLPNO pert. Triples
   Tobias Risthaus        : Range-separated hybrids, TD-DFT gradient, RPA, STAB
   Michael Roemelt        : Original ROCIS implementation
   Masaaki Saitow         : Open-shell DLPNO-CCSD energy and density
   Barbara Sandhoefer     : DKH picture change effects
   Avijit Sen             : IP-ROCIS
   Kantharuban Sivalingam : CASSCF convergence, NEVPT2, FIC-MRCI
   Bernardo de Souza      : ESD, SOC TD-DFT
   Georgi Stoychev        : AutoAux, RI-MP2 NMR
   Willem Van den Heuvel  : Paramagnetic NMR
   Boris Wezisla          : Elementary symmetry handling
   Frank Wennmohs         : Technical directorship


 We gratefully acknowledge several colleagues who have allowed us to
 interface, adapt or use parts of their codes:
   Stefan Grimme, W. Hujo, H. Kruse,             : VdW corrections, initial TS optimization,
                  C. Bannwarth                     DFT functionals, gCP, sTDA/sTD-DF
   Ed Valeev, F. Pavosevic, A. Kumar             : LibInt (2-el integral package), F12 methods
   Garnet Chan, S. Sharma, J. Yang, R. Olivares  : DMRG
   Ulf Ekstrom                                   : XCFun DFT Library
   Mihaly Kallay                                 : mrcc  (arbitrary order and MRCC methods)
   Andreas Klamt, Michael Diedenhofen            : otool_cosmo (COSMO solvation model)
   Jiri Pittner, Ondrej Demel                    : Mk-CCSD
   Frank Weinhold                                : gennbo (NPA and NBO analysis)
   Christopher J. Cramer and Donald G. Truhlar   : smd solvation model
   Lars Goerigk                                  : TD-DFT with DH, B97 family of functionals
   V. Asgeirsson, H. Jonsson                     : NEB implementation
   FAccTs GmbH                                   : IRC, NEB, NEB-TS, Multilevel, MM, QM/MM, CI optimization
   S Lehtola, MJT Oliveira, MAL Marques          : LibXC Library


 Your calculation uses the libint2 library for the computation of 2-el integrals
 For citations please refer to: http://libint.valeyev.net

 Your ORCA version has been built with support for libXC version: 4.2.3
 For citations please refer to: https://tddft.org/programs/libxc/

 This ORCA versions uses:
   CBLAS   interface :  Fast vector & matrix operations
   LAPACKE interface :  Fast linear algebra routines
   SCALAPACK package :  Parallel linear algebra routines


----- Orbital basis set information -----
Your calculation utilizes the basis: ANO-RCC-TZP
   H, He:       P.-O. Widmark, P.-A. Malmqvist, and B. O. Roos, Theor. Chim. Acta 77, 291 (1990).
   s block:     B. O. Roos, V. Veryazov and P.-O. Widmark, Theor. Chem. Acc. 111, 345 (2004).
   p block:     B. O. Roos, R. Lindh, P.-A. Malmqvist, V. Veryazov, and P.-O. Widmark, J. Phys. Chem. A 108, 2851 (2004).
   d block:     B. O. Roos, R. Lindh, P.-A. Malmqvist, V. Veryazov, and P.-O. Widmark, J. Phys. Chem. A 109, 6575 (2005).
   actinides:   B. O. Roos, R. Lindh, P.-A. Malmqvist, V. Veryazov, and P.-O. Widmark, Chem. Phys. Letters 409, 295 (2005).
   lanthanides: B. O. Roos, R. Lindh, P.-A. Malmqvist, V. Veryazov, P.-O. Widmark and A. C. Borin, J. Phys. Chem. A 112, 11431 (2008).

================================================================================
                                        WARNINGS
                       Please study these warnings very carefully!
================================================================================


INFO   : the flag for use of LIBINT has been found!

================================================================================
                                       INPUT FILE
================================================================================
NAME = Kr_ano-rcc-tzp_2192.575824_.inp
|  1> ! LDA ano-rcc-tzp nori grid5 finalgrid6 verytightscf
|  2> %Pal NProcs 18 End
|  3> 
|  4> % REL
|  5>   Method ZORA
|  6>   ModelPot 1, 0, 0, 0
|  7>   velit 2192.575824
|  8> END
|  9> 
| 10> *xyz 34 1
| 11> Kr 0.0 0.0 0.0
| 12> **                         ****END OF INPUT****
================================================================================

                       ****************************
                       * Single Point Calculation *
                       ****************************

---------------------------------
CARTESIAN COORDINATES (ANGSTROEM)
---------------------------------
  Kr     0.000000    0.000000    0.000000

----------------------------
CARTESIAN COORDINATES (A.U.)
----------------------------
  NO LB      ZA    FRAG     MASS         X           Y           Z
   0 Kr   36.0000    0    83.800    0.000000    0.000000    0.000000

--------------------------------
INTERNAL COORDINATES (ANGSTROEM)
--------------------------------
 Kr     0   0   0     0.000000000000     0.00000000     0.00000000

---------------------------
INTERNAL COORDINATES (A.U.)
---------------------------
 Kr     0   0   0     0.000000000000     0.00000000     0.00000000

---------------------
BASIS SET INFORMATION
---------------------
There are 1 groups of distinct atoms

 Group   1 Type Kr  : 120s85p33d8f2g contracted to 6s5p3d2f1g pattern {202020202020/1717171717/111111/44/2}

Atom   0Kr   basis set group =>   1


           ************************************************************
           *        Program running with 18 parallel MPI-processes    *
           *              working on a common directory               *
           ************************************************************


------------------------------------------------------------------------------
                       ORCA GTO INTEGRAL CALCULATION
                     -- ANO INTEGRAL GENERATION BRANCH --
------------------------------------------------------------------------------


Gathering ANO information                         ... done
Calculation Information:
Number of atoms                                   ... 1
Number of basis functions                         ... 59
Highest angular momentum                          ... 4
Number of primitive shells                        ... 54
Total number of shells                            ... 17
Maximum number of shells                          ... 17

Getting memory                                    ... done
Making prescreening integrals                     ... done
Gathering atom contracted prescreening            ... done
Making one-electron integrals                     ... done

Timings:

Total time                                        ...    0.6 sec
Prescreening matrix                               ...    0.5 sec
One-electron matrix                               ...    0.0 sec
Two-index integrals + Cholesky                    ...    0.0 sec


           ************************************************************
           *        Program running with 18 parallel MPI-processes    *
           *              working on a common directory               *
           ************************************************************
------------------------------------------------------------------------------
                          ORCA RELATIVISTIC HAMILTONIAN
------------------------------------------------------------------------------

Relativistic Method            ... ZORA(MP)
Treatment of potential         ... Van Wuellen
Nucleus model                  ... Point Nucleus
Speed of light used            ... 2192.57582400000001


            *************************************************
            *         ZERO ORDER REGULAR APPROXIMATION      *
            *                     ZORA(MP)                  *
            *            Programmed by FN according to      *
            *                   C. van Wuellen              *
            *       J. Chem. Phys. (1998) vol 109, 392-399  *
            *************************************************

Terms included in model potential: +V(e,N)
Basis function cutoff value   ... 1.000000e-12
Loading the fitted atomic densities  (DKH4)  ... done
Calculating the cutoffs                      ... done
Number of fit functions                      ... 27
Setting up the integration grid ... done


           ************************************************************
           *        Program running with 18 parallel MPI-processes    *
           *              working on a common directory               *
           ************************************************************
-------------------------------------------------------------------------------
                                 ORCA SCF
-------------------------------------------------------------------------------

------------
SCF SETTINGS
------------
Hamiltonian:
 Density Functional     Method          .... DFT(GTOs)
 Exchange Functional    Exchange        .... Slater
   X-Alpha parameter    XAlpha          ....  0.666667
 Correlation Functional Correlation     .... VWN-5
 Gradients option       PostSCFGGA      .... off
   Density functional embedding theory  .... OFF

Relativistic Settings:
 Scalar relativistic method             .... ZORA
 Speed of light used       Velit        ....       2192.57582
Orbital energies will be scaled


General Settings:
 Integral files         IntName         .... Kr_ano-rcc-tzp_2192.575824_
 Hartree-Fock type      HFTyp           .... RHF
 Total Charge           Charge          ....   34
 Multiplicity           Mult            ....    1
 Number of Electrons    NEL             ....    2
 Basis Dimension        Dim             ....   59
 Nuclear Repulsion      ENuc            ....      0.0000000000 Eh

Convergence Acceleration:
 DIIS                   CNVDIIS         .... on
   Start iteration      DIISMaxIt       ....    12
   Startup error        DIISStart       ....  0.200000
   # of expansion vecs  DIISMaxEq       ....     5
   Bias factor          DIISBfac        ....   1.050
   Max. coefficient     DIISMaxC        ....  10.000
 Newton-Raphson         CNVNR           .... off
 SOSCF                  CNVSOSCF        .... on
   Start iteration      SOSCFMaxIt      ....   150
   Startup grad/error   SOSCFStart      ....  0.003300
 Level Shifting         CNVShift        .... on
   Level shift para.    LevelShift      ....    0.2500
   Turn off err/grad.   ShiftErr        ....    0.0010
 Zerner damping         CNVZerner       .... off
 Static damping         CNVDamp         .... on
   Fraction old density DampFac         ....    0.7000
   Max. Damping (<1)    DampMax         ....    0.9800
   Min. Damping (>=0)   DampMin         ....    0.0000
   Turn off err/grad.   DampErr         ....    0.1000
 Fernandez-Rico         CNVRico         .... off

SCF Procedure:
 Maximum # iterations   MaxIter         ....   125
 SCF integral mode      SCFMode         .... Direct
   Integral package                     .... LIBINT
 Reset frequency        DirectResetFreq ....    20
 Integral Threshold     Thresh          ....  1.000e-12 Eh
 Primitive CutOff       TCut            ....  1.000e-14 Eh

Convergence Tolerance:
 Convergence Check Mode ConvCheckMode   .... Total+1el-Energy
 Convergence forced     ConvForced      .... 0
 Energy Change          TolE            ....  1.000e-09 Eh
 1-El. energy change                    ....  1.000e-06 Eh
 Orbital Gradient       TolG            ....  2.000e-06
 Orbital Rotation angle TolX            ....  2.000e-06
 DIIS Error             TolErr          ....  1.000e-08


Diagonalization of the overlap matrix:
Smallest eigenvalue                        ... 1.000e+00
Time for diagonalization                   ...    0.002 sec
Threshold for overlap eigenvalues          ... 1.000e-08
Number of eigenvalues below threshold      ... 0
Time for construction of square roots      ...    0.001 sec
Total time needed                          ...    0.003 sec

-------------------
DFT GRID GENERATION
-------------------

General Integration Accuracy     IntAcc      ...  5.010
Radial Grid Type                 RadialGrid  ... Gauss-Chebyshev
Angular Grid (max. acc.)         AngularGrid ... Lebedev-434
Angular grid pruning method      GridPruning ... 3 (G Style)
Weight generation scheme         WeightScheme... Becke
Basis function cutoff            BFCut       ...    1.0000e-12
Integration weight cutoff        WCut        ...    1.0000e-14
Grids for H and He will be reduced by one unit

# of grid points (after initial pruning)     ...  16106 (   0.0 sec)
# of grid points (after weights+screening)   ...  16106 (   0.0 sec)
Grid point division into batches done        ...    0.2 sec
Reduced shell lists constructed in    0.2 sec

Total number of grid points                  ...    16106
Total number of batches                      ...      252
Average number of points per batch           ...       63
Average number of grid points per atom       ...    16106
Average number of shells per batch           ...    11.87 (69.80%)
Average number of basis functions per batch  ...    37.47 (63.50%)
Average number of large shells per batch     ...     4.40 (37.08%)
Average number of large basis fcns per batch ...    12.40 (33.10%)
Maximum spatial batch extension              ...  17.34, 17.34, 17.34 au
Average spatial batch extension              ...   0.86,  0.87,  0.87 au

Time for grid setup =    0.267 sec

------------------------------
INITIAL GUESS: MODEL POTENTIAL
------------------------------
Loading ZORA relativistic densities                ... done
Calculating cut-offs                               ... done
Setting up the integral package                    ... done
Initializing the effective Hamiltonian             ... done
Starting the Coulomb interaction                   ... done (   0.0 sec)
Reading the grid                                   ... done
Mapping shells                                     ... done
Starting the XC term evaluation                    ... done (   0.0 sec)
  promolecular density results
     # of electrons  =     36.000000565
     EX              =    -91.042004939
     EC              =     -3.295965580
     EX+EC           =    -94.337970520
Transforming the Hamiltonian                       ... done (   0.0 sec)
Diagonalizing the Hamiltonian                      ... done (   0.0 sec)
Back transforming the eigenvectors                 ... done (   0.0 sec)
Now organizing SCF variables                       ... done
                      ------------------
                      INITIAL GUESS DONE (   0.4 sec)
                      ------------------
--------------
SCF ITERATIONS
--------------
ITER       Energy         Delta-E        Max-DP      RMS-DP      [F,P]     Damp
               ***  Starting incremental Fock matrix formation  ***
  0  -1249.4567970422   0.000000000000 0.00456768  0.00008267  6.9557179 0.7000
  1  -1249.4755810953  -0.018784053143 0.00319252  0.00005778  4.8587437 0.7000
  2  -1249.4886934090  -0.013112313703 0.00222963  0.00004035  3.3932233 0.7000
                      *** Initiating the SOSCF procedure ***
                      *** Re-Reading the Fockian *** 
                      *** Removing any level shift *** 
ITER      Energy       Delta-E        Grad      Rot      Max-DP    RMS-DP
  3  -1249.49785427  -0.0091608597  0.002789  0.002789  0.005191  0.000094
               *** Restarting incremental Fock matrix formation ***
  4  -1249.51917324  -0.0213189712  0.006462  0.000014  0.000028  0.000001
  5  -1249.51917345  -0.0000002068  0.000034  0.000000  0.000000  0.000000
                 **** Energy Check signals convergence ****
              ***Rediagonalizing the Fockian in SOSCF/NRSCF***

               *****************************************************
               *                     SUCCESS                       *
               *           SCF CONVERGED AFTER   6 CYCLES          *
               *****************************************************

Setting up the final grid:

General Integration Accuracy     IntAcc      ...  5.340
Radial Grid Type                 RadialGrid  ... Gauss-Chebyshev
Angular Grid (max. acc.)         AngularGrid ... Lebedev-590
Angular grid pruning method      GridPruning ... 3 (G Style)
Weight generation scheme         WeightScheme... Becke
Basis function cutoff            BFCut       ...    1.0000e-12
Integration weight cutoff        WCut        ...    1.0000e-14
Grids for H and He will be reduced by one unit

# of grid points (after initial pruning)     ...  24180 (   0.0 sec)
# of grid points (after weights+screening)   ...  24180 (   0.0 sec)
Grid point division into batches done        ...    0.4 sec
Reduced shell lists constructed in    0.4 sec

Total number of grid points                  ...    24180
Total number of batches                      ...      378
Average number of points per batch           ...       63
Average number of grid points per atom       ...    24180
Average number of shells per batch           ...     7.77 (45.72%)
Average number of basis functions per batch  ...    23.86 (40.45%)
Average number of large shells per batch     ...     3.55 (45.61%)
Average number of large basis fcns per batch ...     9.82 (41.14%)
Maximum spatial batch extension              ...  17.58, 17.58, 17.58 au
Average spatial batch extension              ...   0.77,  0.77,  0.77 au

Final grid set up in    0.4 sec
Final integration                            ... done (   0.0 sec)
Change in XC energy                          ...    -0.000014962
Integrated number of electrons               ...     2.000000075
Previous integrated no of electrons          ...     1.999999431

----------------
TOTAL SCF ENERGY
----------------

Total Energy       :        -1249.51918841 Eh          -34001.14570 eV

Components:
Nuclear Repulsion  :            0.00000000 Eh               0.00000 eV
Electronic Energy  :        -1249.51918841 Eh          -34001.14570 eV
One Electron Energy:        -1275.17305403 Eh          -34699.22287 eV
Two Electron Energy:           25.65386562 Eh             698.07717 eV

Virial components:
Potential Energy   :        -2673.40779154 Eh          -72747.12440 eV
Kinetic Energy     :         1423.88860313 Eh           38745.97870 eV
Virial Ratio       :            1.87753999


DFT components:
N(Alpha)           :        1.000000037427 electrons
N(Beta)            :        1.000000037427 electrons
N(Total)           :        2.000000074853 electrons
E(X)               :      -19.604135974509 Eh       
E(C)               :       -0.278869056288 Eh       
E(XC)              :      -19.883005030797 Eh       
DFET-embed. en.    :        0.000000000000 Eh       

---------------
SCF CONVERGENCE
---------------

  Last Energy change         ...   -5.9117e-12  Tolerance :   1.0000e-09
  Last MAX-Density change    ...    0.0000e+00  Tolerance :   1.0000e-08
  Last RMS-Density change    ...    0.0000e+00  Tolerance :   1.0000e-09
  Last Orbital Gradient      ...    1.3156e-11  Tolerance :   2.0000e-06
  Last Orbital Rotation      ...    0.0000e+00  Tolerance :   2.0000e-06

================================================================================
                                        WARNING
Number of found core electrons (2) does not match given number of chemical core electrons (18)
================================================================================
             **** THE GBW FILE WAS UPDATED (Kr_ano-rcc-tzp_2192.575824_.gbw) ****
             **** DENSITY FILE WAS UPDATED (Kr_ano-rcc-tzp_2192.575824_.scfp) ****
             **** ENERGY FILE WAS UPDATED (Kr_ano-rcc-tzp_2192.575824_.en.tmp) ****
             **** THE GBW FILE WAS UPDATED (Kr_ano-rcc-tzp_2192.575824_.gbw) ****
             **** DENSITY FILE WAS UPDATED (Kr_ano-rcc-tzp_2192.575824_.scfp) ****
----------------
ORBITAL ENERGIES
----------------

  NO   OCC          E(Eh)            E(eV) 
   0   2.0000    -605.268343    -16470.1889 
   1   0.0000    -147.402611     -4011.0290 
   2   0.0000    -146.624943     -3989.8675 
   3   0.0000    -146.624943     -3989.8675 
   4   0.0000    -146.624943     -3989.8675 
   5   0.0000     -62.111319     -1690.1349 
   6   0.0000     -59.731179     -1625.3680 
   7   0.0000     -59.731179     -1625.3680 
   8   0.0000     -59.731179     -1625.3680 
   9   0.0000     -55.911679     -1521.4341 
  10   0.0000     -55.911679     -1521.4341 
  11   0.0000     -55.911679     -1521.4341 
  12   0.0000     -55.911679     -1521.4341 
  13   0.0000     -55.911679     -1521.4341 
  14   0.0000     -30.252933      -823.2242 
  15   0.0000     -27.242879      -741.3164 
  16   0.0000     -27.242879      -741.3164 
  17   0.0000     -27.242879      -741.3164 
  18   0.0000     -22.380154      -608.9949 
  19   0.0000     -22.380154      -608.9949 
  20   0.0000     -22.380154      -608.9949 
  21   0.0000     -22.380154      -608.9949 
  22   0.0000     -22.380154      -608.9949 
  23   0.0000     -20.214268      -550.0582 
  24   0.0000     -20.214268      -550.0582 
  25   0.0000     -20.214268      -550.0582 
  26   0.0000     -20.214268      -550.0582 
  27   0.0000     -20.214268      -550.0582 
  28   0.0000     -20.214268      -550.0582 
  29   0.0000     -20.214268      -550.0582 
  30   0.0000     -17.060385      -464.2367 
  31   0.0000     -14.793952      -402.5639 
  32   0.0000     -14.793952      -402.5639 
  33   0.0000     -14.793952      -402.5639 
  34   0.0000     -14.749769      -401.3616 
  35   0.0000     -14.749769      -401.3616 
  36   0.0000     -14.749769      -401.3616 
  37   0.0000     -14.749769      -401.3616 
  38   0.0000     -14.749769      -401.3616 
  39   0.0000     -14.749769      -401.3616 
  40   0.0000     -14.749769      -401.3616 
  41   0.0000     -14.749769      -401.3616 
  42   0.0000     -14.749769      -401.3616 
  43   0.0000     -12.051401      -327.9353 
  44   0.0000     -12.051401      -327.9353 
  45   0.0000     -12.051401      -327.9353 
  46   0.0000     -12.051401      -327.9353 
  47   0.0000     -12.051401      -327.9353 
  48   0.0000     -11.774236      -320.3932 
  49   0.0000     -11.774236      -320.3932 
  50   0.0000     -11.774236      -320.3932 
  51   0.0000     -11.774236      -320.3932 
  52   0.0000     -11.774236      -320.3932 
  53   0.0000     -11.774236      -320.3932 
  54   0.0000     -11.774236      -320.3932 
  55   0.0000     -10.289176      -279.9827 
  56   0.0000      -8.571576      -233.2444 
  57   0.0000      -8.571576      -233.2444 
  58   0.0000      -8.571576      -233.2444 

                    ********************************
                    * MULLIKEN POPULATION ANALYSIS *
                    ********************************

-----------------------
MULLIKEN ATOMIC CHARGES
-----------------------
   0 Kr:   34.000000
Sum of atomic charges:   34.0000000

--------------------------------
MULLIKEN REDUCED ORBITAL CHARGES
--------------------------------
  0 Krs       :     2.000000  s :     2.000000
      pz      :     0.000000  p :     0.000000
      px      :     0.000000
      py      :     0.000000
      dz2     :     0.000000  d :     0.000000
      dxz     :     0.000000
      dyz     :     0.000000
      dx2y2   :     0.000000
      dxy     :     0.000000
      f0      :     0.000000  f :     0.000000
      f+1     :     0.000000
      f-1     :     0.000000
      f+2     :     0.000000
      f-2     :     0.000000
      f+3     :     0.000000
      f-3     :     0.000000
      g0      :     0.000000  g :     0.000000
      g+1     :     0.000000
      g-1     :     0.000000
      g+2     :     0.000000
      g-2     :     0.000000
      g+3     :     0.000000
      g-3     :     0.000000
      g+4     :     0.000000
      g-4     :     0.000000


                     *******************************
                     * LOEWDIN POPULATION ANALYSIS *
                     *******************************

----------------------
LOEWDIN ATOMIC CHARGES
----------------------
   0 Kr:   34.000000

-------------------------------
LOEWDIN REDUCED ORBITAL CHARGES
-------------------------------
  0 Krs       :     2.000000  s :     2.000000
      pz      :     0.000000  p :     0.000000
      px      :     0.000000
      py      :     0.000000
      dz2     :     0.000000  d :     0.000000
      dxz     :     0.000000
      dyz     :     0.000000
      dx2y2   :     0.000000
      dxy     :     0.000000
      f0      :     0.000000  f :     0.000000
      f+1     :     0.000000
      f-1     :     0.000000
      f+2     :     0.000000
      f-2     :     0.000000
      f+3     :     0.000000
      f-3     :     0.000000
      g0      :     0.000000  g :     0.000000
      g+1     :     0.000000
      g-1     :     0.000000
      g+2     :     0.000000
      g-2     :     0.000000
      g+3     :     0.000000
      g-3     :     0.000000
      g+4     :     0.000000
      g-4     :     0.000000


                      *****************************
                      * MAYER POPULATION ANALYSIS *
                      *****************************

  NA   - Mulliken gross atomic population
  ZA   - Total nuclear charge
  QA   - Mulliken gross atomic charge
  VA   - Mayer's total valence
  BVA  - Mayer's bonded valence
  FA   - Mayer's free valence

  ATOM       NA         ZA         QA         VA         BVA        FA
  0 Kr     2.0000    36.0000    34.0000     0.0000     0.0000     0.0000

  Mayer bond orders larger than 0.100000


--------------------------
ATOM BASIS FOR ELEMENT Kr
--------------------------
 NewGTO Kr
 S 119
    1   18535881.300000000745         0.000137341608
    2    2419299.990000000224         0.000443160655
    3     474949.065000000002         0.001295206556
    4     117392.346000000005         0.003458676840
    5      34065.440100000000         0.008980427409
    6      11133.885300000000         0.023266954264
    7       3988.280760000000         0.059846685781
    8       1534.678610000000         0.144114871219
    9        624.475513000000         0.287647580397
   10        265.735250000000         0.382458354050
   11        116.709586000000         0.227381660756
   12         50.306071000000         0.027101750737
   13         23.036081700000         0.000594150436
   14         10.586238100000        -0.000552216051
   15          4.798113940000         0.000380629029
   16          2.133543170000        -0.000271683618
   17          0.857316380000         0.000151509711
   18          0.378404470000        -0.000084018749
   19          0.152386050000         0.000035795207
   20          0.060954420000        -0.000009808686
   21   18535881.300000000745        -0.000000658475
   22    2419299.990000000224        -0.000002126995
   23     474949.065000000002        -0.000006228528
   24     117392.346000000005        -0.000016692858
   25      34065.440100000000        -0.000043647609
   26      11133.885300000000        -0.000114552219
   27       3988.280760000000        -0.000302743206
   28       1534.678610000000        -0.000771687903
   29        624.475513000000        -0.001749476197
   30        265.735250000000        -0.003027542961
   31        116.709586000000        -0.002422164053
   32         50.306071000000         0.004079123662
   33         23.036081700000         0.009617042553
   34         10.586238100000         0.003725566957
   35          4.798113940000         0.000152448926
   36          2.133543170000         0.000041715657
   37          0.857316380000        -0.000013678186
   38          0.378404470000         0.000006334257
   39          0.152386050000        -0.000002945172
   40   18535881.300000000745        -0.000000104435
   41    2419299.990000000224        -0.000000337360
   42     474949.065000000002        -0.000000988258
   43     117392.346000000005        -0.000002649780
   44      34065.440100000000        -0.000006935222
   45      11133.885300000000        -0.000018231139
   46       3988.280760000000        -0.000048355682
   47       1534.678610000000        -0.000124200397
   48        624.475513000000        -0.000286500190
   49        265.735250000000        -0.000515096216
   50        116.709586000000        -0.000440698329
   51         50.306071000000         0.000919433381
   52         23.036081700000         0.003106586993
   53         10.586238100000         0.001249882194
   54          4.798113940000        -0.004058583381
   55          2.133543170000        -0.003454316198
   56          0.857316380000        -0.000188094394
   57          0.378404470000        -0.000034898202
   58          0.152386050000         0.000014432342
   59          0.060954420000        -0.000004813324
   60   18535881.300000000745        -0.000000010753
   61    2419299.990000000224        -0.000000034732
   62     474949.065000000002        -0.000000101722
   63     117392.346000000005        -0.000000272742
   64      34065.440100000000        -0.000000713992
   65      11133.885300000000        -0.000001877344
   66       3988.280760000000        -0.000004982333
   67       1534.678610000000        -0.000012812074
   68        624.475513000000        -0.000029636117
   69        265.735250000000        -0.000053601472
   70        116.709586000000        -0.000046396427
   71         50.306071000000         0.000100142334
   72         23.036081700000         0.000358928281
   73         10.586238100000         0.000149226590
   74          4.798113940000        -0.000620560577
   75          2.133543170000        -0.000967613085
   76          0.857316380000         0.000396405413
   77          0.378404470000         0.001452596867
   78          0.152386050000         0.000549031984
   79          0.060954420000        -0.000001701971
   80   18535881.300000000745        -0.000000014103
   81    2419299.990000000224        -0.000000045584
   82     474949.065000000002        -0.000000133241
   83     117392.346000000005        -0.000000359096
   84      34065.440100000000        -0.000000930732
   85      11133.885300000000        -0.000002489935
   86       3988.280760000000        -0.000006438121
   87       1534.678610000000        -0.000017183141
   88        624.475513000000        -0.000037816812
   89        265.735250000000        -0.000074103583
   90        116.709586000000        -0.000051951826
   91         50.306071000000         0.000110198704
   92         23.036081700000         0.000557334728
   93         10.586238100000         0.000031080685
   94          4.798113940000        -0.000633161578
   95          2.133543170000        -0.002320112859
   96          0.857316380000         0.003891717761
   97          0.378404470000         0.000798397948
   98          0.152386050000        -0.002868896474
   99          0.060954420000        -0.000066135592
  100   18535881.300000000745        -0.000000022626
  101    2419299.990000000224        -0.000000072970
  102     474949.065000000002        -0.000000214889
  103     117392.346000000005        -0.000000569661
  104      34065.440100000000        -0.000001525002
  105      11133.885300000000        -0.000003861014
  106       3988.280760000000        -0.000010856557
  107       1534.678610000000        -0.000025807140
  108        624.475513000000        -0.000066711662
  109        265.735250000000        -0.000102914511
  110        116.709586000000        -0.000129086019
  111         50.306071000000         0.000315888634
  112         23.036081700000         0.000634894587
  113         10.586238100000         0.000675144146
  114          4.798113940000        -0.002934208866
  115          2.133543170000        -0.001555630810
  116          0.857316380000         0.010789228296
  117          0.378404470000        -0.012047797054
  118          0.152386050000         0.004060016287
  119          0.060954420000         0.001204354894
 S 118
    1   18535881.300000000745         0.000002083704
    2    2419299.990000000224         0.000006723496
    3     474949.065000000002         0.000019650472
    4     117392.346000000005         0.000052473971
    5      34065.440100000000         0.000136248256
    6      11133.885300000000         0.000352999005
    7       3988.280760000000         0.000907975334
    8       1534.678610000000         0.002186466077
    9        624.475513000000         0.004364099772
   10        265.735250000000         0.005802539390
   11        116.709586000000         0.003449763952
   12         50.306071000000         0.000411179347
   13         23.036081700000         0.000009014266
   14         10.586238100000        -0.000008378050
   15          4.798113940000         0.000005774785
   16          2.133543170000        -0.000004121899
   17          0.857316380000         0.000002298658
   18          0.378404470000        -0.000001274706
   19   18535881.300000000745         0.000044446387
   20    2419299.990000000224         0.000143569915
   21     474949.065000000002         0.000420419103
   22     117392.346000000005         0.001126750344
   23      34065.440100000000         0.002946167634
   24      11133.885300000000         0.007732154179
   25       3988.280760000000         0.020434847721
   26       1534.678610000000         0.052088121205
   27        624.475513000000         0.118087801818
   28        265.735250000000         0.204355963124
   29        116.709586000000         0.163493524032
   30         50.306071000000        -0.275336553591
   31         23.036081700000        -0.649140249618
   32         10.586238100000        -0.251471848159
   33          4.798113940000        -0.010290142062
   34          2.133543170000        -0.002815762953
   35          0.857316380000         0.000923263146
   36          0.378404470000        -0.000427555677
   37          0.152386050000         0.000198796023
   38          0.060954420000        -0.000051842473
   39   18535881.300000000745         0.000000978341
   40    2419299.990000000224         0.000003160373
   41     474949.065000000002         0.000009257951
   42     117392.346000000005         0.000024823008
   43      34065.440100000000         0.000064968808
   44      11133.885300000000         0.000170788387
   45       3988.280760000000         0.000452993576
   46       1534.678610000000         0.001163503014
   47        624.475513000000         0.002683919235
   48        265.735250000000         0.004825395197
   49        116.709586000000         0.004128439570
   50         50.306071000000        -0.008613205232
   51         23.036081700000        -0.029102349233
   52         10.586238100000        -0.011708832937
   53          4.798113940000         0.038020603063
   54          2.133543170000         0.032359858769
   55          0.857316380000         0.001762058737
   56          0.378404470000         0.000326924581
   57          0.152386050000        -0.000135201448
   58          0.060954420000         0.000045090976
   59   18535881.300000000745         0.000000074197
   60    2419299.990000000224         0.000000239665
   61     474949.065000000002         0.000000701921
   62     117392.346000000005         0.000001882015
   63      34065.440100000000         0.000004926794
   64      11133.885300000000         0.000012954336
   65       3988.280760000000         0.000034379857
   66       1534.678610000000         0.000088407841
   67        624.475513000000         0.000204499694
   68        265.735250000000         0.000369869116
   69        116.709586000000         0.000320151756
   70         50.306071000000        -0.000691017527
   71         23.036081700000        -0.002476732111
   72         10.586238100000        -0.001029716263
   73          4.798113940000         0.004282087505
   74          2.133543170000         0.006676872577
   75          0.857316380000        -0.002735337581
   76          0.378404470000        -0.010023432235
   77          0.152386050000        -0.003788514908
   78          0.060954420000         0.000011744204
   79   18535881.300000000745         0.000000088070
   80    2419299.990000000224         0.000000284667
   81     474949.065000000002         0.000000832082
   82     117392.346000000005         0.000002242530
   83      34065.440100000000         0.000005812353
   84      11133.885300000000         0.000015549467
   85       3988.280760000000         0.000040205609
   86       1534.678610000000         0.000107307499
   87        624.475513000000         0.000236163319
   88        265.735250000000         0.000462771642
   89        116.709586000000         0.000324435480
   90         50.306071000000        -0.000688183117
   91         23.036081700000        -0.003480515995
   92         10.586238100000        -0.000194096684
   93          4.798113940000         0.003954049311
   94          2.133543170000         0.014488940855
   95          0.857316380000        -0.024303502408
   96          0.378404470000        -0.004985938764
   97          0.152386050000         0.017916055754
   98          0.060954420000         0.000413012100
   99   18535881.300000000745         0.000000120306
  100    2419299.990000000224         0.000000388003
  101     474949.065000000002         0.000001142626
  102     117392.346000000005         0.000003029042
  103      34065.440100000000         0.000008108853
  104      11133.885300000000         0.000020530066
  105       3988.280760000000         0.000057727277
  106       1534.678610000000         0.000137223604
  107        624.475513000000         0.000354724101
  108        265.735250000000         0.000547224522
  109        116.709586000000         0.000686385573
  110         50.306071000000        -0.001679666025
  111         23.036081700000        -0.003375907684
  112         10.586238100000        -0.003589925566
  113          4.798113940000         0.015601988820
  114          2.133543170000         0.008271713303
  115          0.857316380000        -0.057369269517
  116          0.378404470000         0.064061422869
  117          0.152386050000        -0.021588213931
  118          0.060954420000        -0.006403883448
 S 118
    1   18535881.300000000745         0.000000787878
    2    2419299.990000000224         0.000002542250
    3     474949.065000000002         0.000007430124
    4     117392.346000000005         0.000019841159
    5      34065.440100000000         0.000051517415
    6      11133.885300000000         0.000133473974
    7       3988.280760000000         0.000343318464
    8       1534.678610000000         0.000826734105
    9        624.475513000000         0.001650128560
   10        265.735250000000         0.002194023159
   11        116.709586000000         0.001304405106
   12         50.306071000000         0.000155472794
   13         23.036081700000         0.000003408423
   14         10.586238100000        -0.000003167861
   15          4.798113940000         0.000002183529
   16          2.133543170000        -0.000001558549
   17          0.857316380000         0.000000869156
   18          0.378404470000        -0.000000481985
   19   18535881.300000000745        -0.000002619478
   20    2419299.990000000224        -0.000008461390
   21     474949.065000000002        -0.000024777683
   22     117392.346000000005        -0.000066405790
   23      34065.440100000000        -0.000173634373
   24      11133.885300000000        -0.000455699712
   25       3988.280760000000        -0.001204341507
   26       1534.678610000000        -0.003069848487
   27        624.475513000000        -0.006959584094
   28        265.735250000000        -0.012043856253
   29        116.709586000000        -0.009635600898
   30         50.306071000000         0.016227145135
   31         23.036081700000         0.038257517594
   32         10.586238100000         0.014820662655
   33          4.798113940000         0.000606456449
   34          2.133543170000         0.000165948885
   35          0.857316380000        -0.000054413135
   36          0.378404470000         0.000025198282
   37          0.152386050000        -0.000011716177
   38          0.060954420000         0.000003055371
   39   18535881.300000000745         0.000017278767
   40    2419299.990000000224         0.000055816297
   41     474949.065000000002         0.000163507444
   42     117392.346000000005         0.000438406562
   43      34065.440100000000         0.001147433507
   44      11133.885300000000         0.003016344695
   45       3988.280760000000         0.008000454786
   46       1534.678610000000         0.020548974115
   47        624.475513000000         0.047401498922
   48        265.735250000000         0.085222745256
   49        116.709586000000         0.072913603832
   50         50.306071000000        -0.152120389169
   51         23.036081700000        -0.513985278635
   52         10.586238100000        -0.206793194310
   53          4.798113940000         0.671493222177
   54          2.133543170000         0.571517127122
   55          0.857316380000         0.031120245444
   56          0.378404470000         0.005773912624
   57          0.152386050000        -0.002387833144
   58          0.060954420000         0.000796365188
   59   18535881.300000000745         0.000000926522
   60    2419299.990000000224         0.000002992762
   61     474949.065000000002         0.000008765089
   62     117392.346000000005         0.000023501274
   63      34065.440100000000         0.000061522331
   64      11133.885300000000         0.000161764619
   65       3988.280760000000         0.000429311420
   66       1534.678610000000         0.001103974796
   67        624.475513000000         0.002553648027
   68        265.735250000000         0.004618664796
   69        116.709586000000         0.003997829453
   70         50.306071000000        -0.008628939778
   71         23.036081700000        -0.030927684735
   72         10.586238100000        -0.012858370833
   73          4.798113940000         0.053471690278
   74          2.133543170000         0.083376078147
   75          0.857316380000        -0.034156967543
   76          0.378404470000        -0.125165556132
   77          0.152386050000        -0.047308303614
   78          0.060954420000         0.000146653336
   79   18535881.300000000745         0.000001002867
   80    2419299.990000000224         0.000003241545
   81     474949.065000000002         0.000009475053
   82     117392.346000000005         0.000025536055
   83      34065.440100000000         0.000066186210
   84      11133.885300000000         0.000177064298
   85       3988.280760000000         0.000457827787
   86       1534.678610000000         0.001221927891
   87        624.475513000000         0.002689230009
   88        265.735250000000         0.005269655733
   89        116.709586000000         0.003694399423
   90         50.306071000000        -0.007836452749
   91         23.036081700000        -0.039633200036
   92         10.586238100000        -0.002210210413
   93          4.798113940000         0.045025400697
   94          2.133543170000         0.164987919033
   95          0.857316380000        -0.276747922965
   96          0.378404470000        -0.056775693222
   97          0.152386050000         0.204013032128
   98          0.060954420000         0.004703035762
   99   18535881.300000000745         0.000001171111
  100    2419299.990000000224         0.000003776972
  101     474949.065000000002         0.000011122780
  102     117392.346000000005         0.000029485912
  103      34065.440100000000         0.000078934826
  104      11133.885300000000         0.000199847877
  105       3988.280760000000         0.000561940421
  106       1534.678610000000         0.001335789498
  107        624.475513000000         0.003453026418
  108        265.735250000000         0.005326902581
  109        116.709586000000         0.006681551961
  110         50.306071000000        -0.016350541552
  111         23.036081700000        -0.032862436950
  112         10.586238100000        -0.034945772703
  113          4.798113940000         0.151876005494
  114          2.133543170000         0.080520168906
  115          0.857316380000        -0.558455437492
  116          0.378404470000         0.623599537452
  117          0.152386050000        -0.210148317330
  118          0.060954420000        -0.062337965303
 S 116
    1   18535881.300000000745        -0.000000266245
    2    2419299.990000000224        -0.000000859092
    3     474949.065000000002        -0.000002510832
    4     117392.346000000005        -0.000006704844
    5      34065.440100000000        -0.000017409074
    6      11133.885300000000        -0.000045104326
    7       3988.280760000000        -0.000116016235
    8       1534.678610000000        -0.000279374947
    9        624.475513000000        -0.000557621340
   10        265.735250000000        -0.000741417466
   11        116.709586000000        -0.000440792397
   12         50.306071000000        -0.000052538299
   13         23.036081700000        -0.000001151795
   14         10.586238100000         0.000001070503
   15          4.798113940000        -0.000000737871
   16          2.133543170000         0.000000526674
   17          0.857316380000        -0.000000293710
   18   18535881.300000000745         0.000000351145
   19    2419299.990000000224         0.000001134263
   20     474949.065000000002         0.000003321490
   21     117392.346000000005         0.000008901807
   22      34065.440100000000         0.000023275978
   23      11133.885300000000         0.000061087309
   24       3988.280760000000         0.000161443995
   25       1534.678610000000         0.000411518327
   26        624.475513000000         0.000932943895
   27        265.735250000000         0.001614499087
   28        116.709586000000         0.001291668426
   29         50.306071000000        -0.002175275963
   30         23.036081700000        -0.005128484260
   31         10.586238100000        -0.001986734632
   32          4.798113940000        -0.000081296502
   33          2.133543170000        -0.000022245726
   34          0.857316380000         0.000007294172
   35          0.378404470000        -0.000003377872
   36          0.152386050000         0.000001570573
   37   18535881.300000000745         0.000004659285
   38    2419299.990000000224         0.000015051074
   39     474949.065000000002         0.000044090397
   40     117392.346000000005         0.000118217977
   41      34065.440100000000         0.000309409757
   42      11133.885300000000         0.000813368681
   43       3988.280760000000         0.002157352695
   44       1534.678610000000         0.005541108083
   45        624.475513000000         0.012781992296
   46        265.735250000000         0.022980633483
   47        116.709586000000         0.019661427246
   48         50.306071000000        -0.041019834532
   49         23.036081700000        -0.138598061685
   50         10.586238100000        -0.055762561872
   51          4.798113940000         0.181070670498
   52          2.133543170000         0.154111740806
   53          0.857316380000         0.008391691118
   54          0.378404470000         0.001556957234
   55          0.152386050000        -0.000643888180
   56          0.060954420000         0.000214742865
   57   18535881.300000000745        -0.000003788387
   58    2419299.990000000224        -0.000012236885
   59     474949.065000000002        -0.000035838932
   60     117392.346000000005        -0.000096092645
   61      34065.440100000000        -0.000251554171
   62      11133.885300000000        -0.000661427545
   63       3988.280760000000        -0.001755380137
   64       1534.678610000000        -0.004513961978
   65        624.475513000000        -0.010441425064
   66        265.735250000000        -0.018884921434
   67        116.709586000000        -0.016346433107
   68         50.306071000000         0.035282242154
   69         23.036081700000         0.126457953142
   70         10.586238100000         0.052575654149
   71          4.798113940000        -0.218636492239
   72          2.133543170000        -0.340910361502
   73          0.857316380000         0.139661931956
   74          0.378404470000         0.511780308414
   75          0.152386050000         0.193435470288
   76          0.060954420000        -0.000599640125
   77   18535881.300000000745        -0.000003753179
   78    2419299.990000000224        -0.000012131317
   79     474949.065000000002        -0.000035459901
   80     117392.346000000005        -0.000095567378
   81      34065.440100000000        -0.000247698507
   82      11133.885300000000        -0.000662654079
   83       3988.280760000000        -0.001713397079
   84       1534.678610000000        -0.004573002641
   85        624.475513000000        -0.010064305778
   86        265.735250000000        -0.019721417084
   87        116.709586000000        -0.013826100903
   88         50.306071000000         0.029327523646
   89         23.036081700000         0.148325224230
   90         10.586238100000         0.008271599436
   91          4.798113940000        -0.168505259437
   92          2.133543170000        -0.617458849239
   93          0.857316380000         1.035714948367
   94          0.378404470000         0.212480128284
   95          0.152386050000        -0.763508339187
   96          0.060954420000        -0.017600870819
   97   18535881.300000000745        -0.000003604183
   98    2419299.990000000224        -0.000011623919
   99     474949.065000000002        -0.000034231202
  100     117392.346000000005        -0.000090745139
  101      34065.440100000000        -0.000242927941
  102      11133.885300000000        -0.000615047067
  103       3988.280760000000        -0.001729414458
  104       1534.678610000000        -0.004110993948
  105        624.475513000000        -0.010626951874
  106        265.735250000000        -0.016393948531
  107        116.709586000000        -0.020562985205
  108         50.306071000000         0.050320037319
  109         23.036081700000         0.101136653391
  110         10.586238100000         0.107548277894
  111          4.798113940000        -0.467409977825
  112          2.133543170000        -0.247806954366
  113          0.857316380000         1.718689155703
  114          0.378404470000        -1.919175086438
  115          0.152386050000         0.646747457069
  116          0.060954420000         0.191849837538
 S 115
    1   18535881.300000000745        -0.000000120191
    2    2419299.990000000224        -0.000000387820
    3     474949.065000000002        -0.000001133465
    4     117392.346000000005        -0.000003026767
    5      34065.440100000000        -0.000007858976
    6      11133.885300000000        -0.000020361439
    7       3988.280760000000        -0.000052373192
    8       1534.678610000000        -0.000126118191
    9        624.475513000000        -0.000251726919
   10        265.735250000000        -0.000334697977
   11        116.709586000000        -0.000198986847
   12         50.306071000000        -0.000023717357
   13         23.036081700000        -0.000000519955
   14         10.586238100000         0.000000483257
   15          4.798113940000        -0.000000333097
   16          2.133543170000         0.000000237756
   17   18535881.300000000745         0.000000129334
   18    2419299.990000000224         0.000000417773
   19     474949.065000000002         0.000001223374
   20     117392.346000000005         0.000003278722
   21      34065.440100000000         0.000008573030
   22      11133.885300000000         0.000022499735
   23       3988.280760000000         0.000059463204
   24       1534.678610000000         0.000151570817
   25        624.475513000000         0.000343622772
   26        265.735250000000         0.000594653821
   27        116.709586000000         0.000475748528
   28         50.306071000000        -0.000801199686
   29         23.036081700000        -0.001888928141
   30         10.586238100000        -0.000731755966
   31          4.798113940000        -0.000029943204
   32          2.133543170000        -0.000008193567
   33          0.857316380000         0.000002686596
   34          0.378404470000        -0.000001244141
   35          0.152386050000         0.000000578475
   36   18535881.300000000745         0.000000448191
   37    2419299.990000000224         0.000001447810
   38     474949.065000000002         0.000004241194
   39     117392.346000000005         0.000011371759
   40      34065.440100000000         0.000029763099
   41      11133.885300000000         0.000078240494
   42       3988.280760000000         0.000207522547
   43       1534.678610000000         0.000533016630
   44        624.475513000000         0.001229540076
   45        265.735250000000         0.002210579477
   46        116.709586000000         0.001891294581
   47         50.306071000000        -0.003945827014
   48         23.036081700000        -0.013332183858
   49         10.586238100000        -0.005363976366
   50          4.798113940000         0.017417757803
   51          2.133543170000         0.014824493490
   52          0.857316380000         0.000807223186
   53          0.378404470000         0.000149768618
   54          0.152386050000        -0.000061937631
   55          0.060954420000         0.000020656792
   56   18535881.300000000745         0.000004097445
   57    2419299.990000000224         0.000013235174
   58     474949.065000000002         0.000038762685
   59     117392.346000000005         0.000103931916
   60      34065.440100000000         0.000272076049
   61      11133.885300000000         0.000715387037
   62       3988.280760000000         0.001898584666
   63       1534.678610000000         0.004882212585
   64        624.475513000000         0.011293240196
   65        265.735250000000         0.020425559972
   66        116.709586000000         0.017679980873
   67         50.306071000000        -0.038160579888
   68         23.036081700000        -0.136774437470
   69         10.586238100000        -0.056864794520
   70          4.798113940000         0.236472934233
   71          2.133543170000         0.368721948788
   72          0.857316380000        -0.151055601523
   73          0.378404470000        -0.553531526113
   74          0.152386050000        -0.209216004041
   75          0.060954420000         0.000648558978
   76   18535881.300000000745        -0.000002294139
   77    2419299.990000000224        -0.000007415292
   78     474949.065000000002        -0.000021674938
   79     117392.346000000005        -0.000058415756
   80      34065.440100000000        -0.000151406221
   81      11133.885300000000        -0.000405048665
   82       3988.280760000000        -0.001047317479
   83       1534.678610000000        -0.002795257243
   84        624.475513000000        -0.006151827546
   85        265.735250000000        -0.012054756636
   86        116.709586000000        -0.008451232530
   87         50.306071000000         0.017926508971
   88         23.036081700000         0.090664097486
   89         10.586238100000         0.005056032118
   90          4.798113940000        -0.102999185390
   91          2.133543170000        -0.377422987839
   92          0.857316380000         0.633082886162
   93          0.378404470000         0.129878914153
   94          0.152386050000        -0.466696038079
   95          0.060954420000        -0.010758568383
   96   18535881.300000000745        -0.000005182829
   97    2419299.990000000224        -0.000016715238
   98     474949.065000000002        -0.000049224595
   99     117392.346000000005        -0.000130491848
  100      34065.440100000000        -0.000349331282
  101      11133.885300000000        -0.000884439969
  102       3988.280760000000        -0.002486904421
  103       1534.678610000000        -0.005911624581
  104        624.475513000000        -0.015281596305
  105        265.735250000000        -0.023574558937
  106        116.709586000000        -0.029569649175
  107         50.306071000000         0.072360400747
  108         23.036081700000         0.145434883589
  109         10.586238100000         0.154654823462
  110          4.798113940000        -0.672137285880
  111          2.133543170000        -0.356347321691
  112          0.857316380000         2.471481395755
  113          0.378404470000        -2.759780909532
  114          0.152386050000         0.930025247785
  115          0.060954420000         0.275880779651
 S 114
    1   18535881.300000000745        -0.000000064187
    2    2419299.990000000224        -0.000000207113
    3     474949.065000000002        -0.000000605320
    4     117392.346000000005        -0.000001616426
    5      34065.440100000000        -0.000004197036
    6      11133.885300000000        -0.000010873898
    7       3988.280760000000        -0.000027969572
    8       1534.678610000000        -0.000067352623
    9        624.475513000000        -0.000134433170
   10        265.735250000000        -0.000178743339
   11        116.709586000000        -0.000106267667
   12         50.306071000000        -0.000012666104
   13         23.036081700000        -0.000000277678
   14         10.586238100000         0.000000258080
   15          4.798113940000        -0.000000177888
   16          2.133543170000         0.000000126972
   17   18535881.300000000745         0.000000065454
   18    2419299.990000000224         0.000000211428
   19     474949.065000000002         0.000000619131
   20     117392.346000000005         0.000001659310
   21      34065.440100000000         0.000004338678
   22      11133.885300000000         0.000011386767
   23       3988.280760000000         0.000030093406
   24       1534.678610000000         0.000076707641
   25        624.475513000000         0.000173902158
   26        265.735250000000         0.000300945081
   27        116.709586000000         0.000240768956
   28         50.306071000000        -0.000405474742
   29         23.036081700000        -0.000955957252
   30         10.586238100000        -0.000370330352
   31          4.798113940000        -0.000015153791
   32          2.133543170000        -0.000004146637
   33          0.857316380000         0.000001359645
   34          0.378404470000        -0.000000629640
   35   18535881.300000000745         0.000000226338
   36    2419299.990000000224         0.000000731147
   37     474949.065000000002         0.000002141812
   38     117392.346000000005         0.000005742763
   39      34065.440100000000         0.000015030430
   40      11133.885300000000         0.000039511621
   41       3988.280760000000         0.000104799340
   42       1534.678610000000         0.000269174564
   43        624.475513000000         0.000620920428
   44        265.735250000000         0.001116347471
   45        116.709586000000         0.000955107900
   46         50.306071000000        -0.001992651272
   47         23.036081700000        -0.006732782009
   48         10.586238100000        -0.002708819797
   49          4.798113940000         0.008796005788
   50          2.133543170000         0.007486401637
   51          0.857316380000         0.000407649474
   52          0.378404470000         0.000075633480
   53          0.152386050000        -0.000031278639
   54          0.060954420000         0.000010431725
   55   18535881.300000000745        -0.000001184651
   56    2419299.990000000224        -0.000003826545
   57     474949.065000000002        -0.000011207042
   58     117392.346000000005        -0.000030048728
   59      34065.440100000000        -0.000078662451
   60      11133.885300000000        -0.000206832236
   61       3988.280760000000        -0.000548917567
   62       1534.678610000000        -0.001411542134
   63        624.475513000000        -0.003265094277
   64        265.735250000000        -0.005905424644
   65        116.709586000000        -0.005111624597
   66         50.306071000000         0.011032962093
   67         23.036081700000         0.039544136602
   68         10.586238100000         0.016440712490
   69          4.798113940000        -0.068368901287
   70          2.133543170000        -0.106604650553
   71          0.857316380000         0.043673097485
   72          0.378404470000         0.160036675617
   73          0.152386050000         0.060488395318
   74          0.060954420000        -0.000187510951
   75   18535881.300000000745         0.000004857343
   76    2419299.990000000224         0.000015700279
   77     474949.065000000002         0.000045891996
   78     117392.346000000005         0.000123682740
   79      34065.440100000000         0.000320569955
   80      11133.885300000000         0.000857603020
   81       3988.280760000000         0.002217468446
   82       1534.678610000000         0.005918353184
   83        624.475513000000         0.013025165480
   84        265.735250000000         0.025523342263
   85        116.709586000000         0.017893658656
   86         50.306071000000        -0.037955509007
   87         23.036081700000        -0.191961634820
   88         10.586238100000        -0.010705055452
   89          4.798113940000         0.218078517966
   90          2.133543170000         0.799111619409
   91          0.857316380000        -1.340416208556
   92          0.378404470000        -0.274990535183
   93          0.152386050000         0.988128012276
   94          0.060954420000         0.022778943731
   95   18535881.300000000745        -0.000005476793
   96    2419299.990000000224        -0.000017663305
   97     474949.065000000002        -0.000052016551
   98     117392.346000000005        -0.000137893178
   99      34065.440100000000        -0.000369144905
  100      11133.885300000000        -0.000934604271
  101       3988.280760000000        -0.002627958455
  102       1534.678610000000        -0.006246924358
  103        624.475513000000        -0.016148348879
  104        265.735250000000        -0.024911677732
  105        116.709586000000        -0.031246801811
  106         50.306071000000         0.076464590018
  107         23.036081700000         0.153683763952
  108         10.586238100000         0.163426647008
  109          4.798113940000        -0.710260052039
  110          2.133543170000        -0.376558885462
  111          0.857316380000         2.611660655700
  112          0.378404470000        -2.916312148720
  113          0.152386050000         0.982775088908
  114          0.060954420000         0.291528384198
 P 85
    1     178109.355000000010         0.000044868820
    2      27138.037499999999         0.000233196249
    3       6512.317450000000         0.001114254002
    4       2033.629170000000         0.004942667906
    5        749.824546000000         0.019484482120
    6        308.463093000000         0.064723397971
    7        137.031449000000         0.169377673523
    8         64.114040700000         0.319657448541
    9         31.107038200000         0.372573089593
   10         15.366235600000         0.200979976944
   11          7.391254080000         0.033570679929
   12          3.530697220000         0.001268877480
   13          1.678108190000         0.000449156729
   14          0.683391650000        -0.000070787268
   15          0.276466560000         0.000014992825
   16          0.105540690000        -0.000015491257
   17          0.042216280000         0.000003827955
   18     178109.355000000010         0.000001338341
   19      27138.037499999999         0.000006961703
   20       6512.317450000000         0.000033368289
   21       2033.629170000000         0.000148545689
   22        749.824546000000         0.000592243288
   23        308.463093000000         0.002007019165
   24        137.031449000000         0.005469831927
   25         64.114040700000         0.010865837487
   26         31.107038200000         0.013218433243
   27         15.366235600000        -0.000295491772
   28          7.391254080000        -0.027464952715
   29          3.530697220000        -0.036813149811
   30          1.678108190000        -0.015551199134
   31          0.683391650000        -0.001204916111
   32          0.276466560000        -0.000010597567
   33          0.105540690000        -0.000033901006
   34          0.042216280000         0.000005321344
   35     178109.355000000010         0.000000081167
   36      27138.037499999999         0.000000421241
   37       6512.317450000000         0.000002027423
   38       2033.629170000000         0.000008982831
   39        749.824546000000         0.000036091118
   40        308.463093000000         0.000121786914
   41        137.031449000000         0.000336458525
   42         64.114040700000         0.000666180046
   43         31.107038200000         0.000832443673
   44         15.366235600000        -0.000143224165
   45          7.391254080000        -0.002050855405
   46          3.530697220000        -0.003314370789
   47          1.678108190000        -0.000580654208
   48          0.683391650000         0.006465897122
   49          0.276466560000         0.008707668788
   50          0.105540690000         0.003207571304
   51          0.042216280000         0.000017407026
   52     178109.355000000010         0.000000101812
   53      27138.037499999999         0.000000524593
   54       6512.317450000000         0.000002559806
   55       2033.629170000000         0.000011127581
   56        749.824546000000         0.000045749848
   57        308.463093000000         0.000150617345
   58        137.031449000000         0.000429410158
   59         64.114040700000         0.000816855301
   60         31.107038200000         0.001097109036
   61         15.366235600000        -0.000315148825
   62          7.391254080000        -0.002575947741
   63          3.530697220000        -0.004653259773
   64          1.678108190000        -0.000476504102
   65          0.683391650000         0.018475809567
   66          0.276466560000        -0.003825505710
   67          0.105540690000        -0.014034079446
   68          0.042216280000        -0.000624978382
   69     178109.355000000010         0.000000165011
   70      27138.037499999999         0.000000780942
   71       6512.317450000000         0.000004467542
   72       2033.629170000000         0.000015414614
   73        749.824546000000         0.000082850894
   74        308.463093000000         0.000201442126
   75        137.031449000000         0.000812583365
   76         64.114040700000         0.000944181239
   77         31.107038200000         0.002668375425
   78         15.366235600000        -0.002708861455
   79          7.391254080000        -0.000422006501
   80          3.530697220000        -0.016546558781
   81          1.678108190000         0.019182272094
   82          0.683391650000         0.017841580346
   83          0.276466560000        -0.041618711696
   84          0.105540690000         0.024736547896
   85          0.042216280000         0.002594948930
 P 84
    1     178109.355000000010        -0.000003526638
    2      27138.037499999999        -0.000018328961
    3       6512.317450000000        -0.000087579103
    4       2033.629170000000        -0.000388488101
    5        749.824546000000        -0.001531458232
    6        308.463093000000        -0.005087185793
    7        137.031449000000        -0.013312893351
    8         64.114040700000        -0.025124713503
    9         31.107038200000        -0.029283822973
   10         15.366235600000        -0.015796798616
   11          7.391254080000        -0.002638617430
   12          3.530697220000        -0.000099732333
   13          1.678108190000        -0.000035303210
   14          0.683391650000         0.000005563799
   15          0.276466560000        -0.000001178419
   16          0.105540690000         0.000001217595
   17     178109.355000000010         0.000017689849
   18      27138.037499999999         0.000092017999
   19       6512.317450000000         0.000441053447
   20       2033.629170000000         0.001963438621
   21        749.824546000000         0.007828119114
   22        308.463093000000         0.026528261957
   23        137.031449000000         0.072298828420
   24         64.114040700000         0.143621838956
   25         31.107038200000         0.174717843214
   26         15.366235600000        -0.003905734073
   27          7.391254080000        -0.363024665183
   28          3.530697220000        -0.486586724660
   29          1.678108190000        -0.205551741426
   30          0.683391650000        -0.015926270558
   31          0.276466560000        -0.000140075904
   32          0.105540690000        -0.000448094757
   33          0.042216280000         0.000070336150
   34     178109.355000000010         0.000000768163
   35      27138.037499999999         0.000003986632
   36       6512.317450000000         0.000019187548
   37       2033.629170000000         0.000085013584
   38        749.824546000000         0.000341566609
   39        308.463093000000         0.001152592258
   40        137.031449000000         0.003184245986
   41         64.114040700000         0.006304732911
   42         31.107038200000         0.007878253122
   43         15.366235600000        -0.001355474568
   44          7.391254080000        -0.019409310820
   45          3.530697220000        -0.031367229820
   46          1.678108190000        -0.005495315745
   47          0.683391650000         0.061193298497
   48          0.276466560000         0.082409442231
   49          0.105540690000         0.030356478697
   50          0.042216280000         0.000164740219
   51     178109.355000000010         0.000000889703
   52      27138.037499999999         0.000004584233
   53       6512.317450000000         0.000022369246
   54       2033.629170000000         0.000097240022
   55        749.824546000000         0.000399791846
   56        308.463093000000         0.001316192042
   57        137.031449000000         0.003752464458
   58         64.114040700000         0.007138211405
   59         31.107038200000         0.009587250306
   60         15.366235600000        -0.002753974827
   61          7.391254080000        -0.022510302041
   62          3.530697220000        -0.040663201854
   63          1.678108190000        -0.004164001892
   64          0.683391650000         0.161453606804
   65          0.276466560000        -0.033429749997
   66          0.105540690000        -0.122638888245
   67          0.042216280000        -0.005461466439
   68     178109.355000000010         0.000001231202
   69      27138.037499999999         0.000005826875
   70       6512.317450000000         0.000033333870
   71       2033.629170000000         0.000115013738
   72        749.824546000000         0.000618179031
   73        308.463093000000         0.001503029023
   74        137.031449000000         0.006062964109
   75         64.114040700000         0.007044861133
   76         31.107038200000         0.019909667285
   77         15.366235600000        -0.020211747484
   78          7.391254080000        -0.003148735726
   79          3.530697220000        -0.123459569043
   80          1.678108190000         0.143125533067
   81          0.683391650000         0.133122170576
   82          0.276466560000        -0.310531529724
   83          0.105540690000         0.184567896154
   84          0.042216280000         0.019361806934
 P 82
    1     178109.355000000010         0.000000464914
    2      27138.037499999999         0.000002416294
    3       6512.317450000000         0.000011545490
    4       2033.629170000000         0.000051214107
    5        749.824546000000         0.000201891039
    6        308.463093000000         0.000670640051
    7        137.031449000000         0.001755029173
    8         64.114040700000         0.003312172944
    9         31.107038200000         0.003860465359
   10         15.366235600000         0.002082480621
   11          7.391254080000         0.000347847041
   12          3.530697220000         0.000013147642
   13          1.678108190000         0.000004653997
   14          0.683391650000        -0.000000733472
   15     178109.355000000010         0.000004817890
   16      27138.037499999999         0.000025061412
   17       6512.317450000000         0.000120122393
   18       2033.629170000000         0.000534749127
   19        749.824546000000         0.002132014627
   20        308.463093000000         0.007225061562
   21        137.031449000000         0.019690829614
   22         64.114040700000         0.039115891938
   23         31.107038200000         0.047584993512
   24         15.366235600000        -0.001063739840
   25          7.391254080000        -0.098870991192
   26          3.530697220000        -0.132523534574
   27          1.678108190000        -0.055982709620
   28          0.683391650000        -0.004337573468
   29          0.276466560000        -0.000038150145
   30          0.105540690000        -0.000122040117
   31          0.042216280000         0.000019156287
   32     178109.355000000010        -0.000003126498
   33      27138.037499999999        -0.000016225976
   34       6512.317450000000        -0.000078095159
   35       2033.629170000000        -0.000346013440
   36        749.824546000000        -0.001390208862
   37        308.463093000000        -0.004691161047
   38        137.031449000000        -0.012960186595
   39         64.114040700000        -0.025660867700
   40         31.107038200000        -0.032065245893
   41         15.366235600000         0.005516911508
   42          7.391254080000         0.078997756788
   43          3.530697220000         0.127667634124
   44          1.678108190000         0.022366462195
   45          0.683391650000        -0.249062594567
   46          0.276466560000        -0.335414334625
   47          0.105540690000        -0.123553780101
   48          0.042216280000        -0.000670508494
   49     178109.355000000010        -0.000003386683
   50      27138.037499999999        -0.000017450029
   51       6512.317450000000        -0.000085149256
   52       2033.629170000000        -0.000370147270
   53        749.824546000000        -0.001521820514
   54        308.463093000000        -0.005010127325
   55        137.031449000000        -0.014283876604
   56         64.114040700000        -0.027171831212
   57         31.107038200000        -0.036494176526
   58         15.366235600000         0.010483093722
   59          7.391254080000         0.085686188442
   60          3.530697220000         0.154785785208
   61          1.678108190000         0.015850407078
   62          0.683391650000        -0.614578345145
   63          0.276466560000         0.127251418153
   64          0.105540690000         0.466828871030
   65          0.042216280000         0.020789247589
   66     178109.355000000010        -0.000003853221
   67      27138.037499999999        -0.000018236034
   68       6512.317450000000        -0.000104323087
   69       2033.629170000000        -0.000359951846
   70        749.824546000000        -0.001934679175
   71        308.463093000000        -0.004703943042
   72        137.031449000000        -0.018974908273
   73         64.114040700000        -0.022047894625
   74         31.107038200000        -0.062310134724
   75         15.366235600000         0.063255537659
   76          7.391254080000         0.009854416173
   77          3.530697220000         0.386384276033
   78          1.678108190000        -0.447931706750
   79          0.683391650000        -0.416624761455
   80          0.276466560000         0.971852576746
   81          0.105540690000        -0.577631474721
   82          0.042216280000        -0.060595527856
 P 81
    1     178109.355000000010        -0.000000169034
    2      27138.037499999999        -0.000000878520
    3       6512.317450000000        -0.000004197728
    4       2033.629170000000        -0.000018620510
    5        749.824546000000        -0.000073403878
    6        308.463093000000        -0.000243832417
    7        137.031449000000        -0.000638096405
    8         64.114040700000        -0.001204245309
    9         31.107038200000        -0.001403594371
   10         15.366235600000        -0.000757151744
   11          7.391254080000        -0.000126470802
   12          3.530697220000        -0.000004780241
   13          1.678108190000        -0.000001692108
   14          0.683391650000         0.000000266677
   15     178109.355000000010        -0.000000448964
   16      27138.037499999999        -0.000002335392
   17       6512.317450000000        -0.000011193815
   18       2033.629170000000        -0.000049831533
   19        749.824546000000        -0.000198675512
   20        308.463093000000        -0.000673279999
[...]
  BAS[ATNO][ 10].a[ 45] =         0.105540690000;     BAS[ATNO][ 10].d[ 45] =        -0.052172905816;
  BAS[ATNO][ 10].a[ 46] =         0.042216280000;     BAS[ATNO][ 10].d[ 46] =        -0.000283134814;
  BAS[ATNO][ 10].a[ 47] =    178109.355000000010;     BAS[ATNO][ 10].d[ 47] =         0.000004531375;
  BAS[ATNO][ 10].a[ 48] =     27138.037499999999;     BAS[ATNO][ 10].d[ 48] =         0.000023348101;
  BAS[ATNO][ 10].a[ 49] =      6512.317450000000;     BAS[ATNO][ 10].d[ 49] =         0.000113929517;
  BAS[ATNO][ 10].a[ 50] =      2033.629170000000;     BAS[ATNO][ 10].d[ 50] =         0.000495256235;
  BAS[ATNO][ 10].a[ 51] =       749.824546000000;     BAS[ATNO][ 10].d[ 51] =         0.002036192511;
  BAS[ATNO][ 10].a[ 52] =       308.463093000000;     BAS[ATNO][ 10].d[ 52] =         0.006703539378;
  BAS[ATNO][ 10].a[ 53] =       137.031449000000;     BAS[ATNO][ 10].d[ 53] =         0.019111795581;
  BAS[ATNO][ 10].a[ 54] =        64.114040700000;     BAS[ATNO][ 10].d[ 54] =         0.036355850592;
  BAS[ATNO][ 10].a[ 55] =        31.107038200000;     BAS[ATNO][ 10].d[ 55] =         0.048829128186;
  BAS[ATNO][ 10].a[ 56] =        15.366235600000;     BAS[ATNO][ 10].d[ 56] =        -0.014026356417;
  BAS[ATNO][ 10].a[ 57] =         7.391254080000;     BAS[ATNO][ 10].d[ 57] =        -0.114647932284;
  BAS[ATNO][ 10].a[ 58] =         3.530697220000;     BAS[ATNO][ 10].d[ 58] =        -0.207103041269;
  BAS[ATNO][ 10].a[ 59] =         1.678108190000;     BAS[ATNO][ 10].d[ 59] =        -0.021207809921;
  BAS[ATNO][ 10].a[ 60] =         0.683391650000;     BAS[ATNO][ 10].d[ 60] =         0.822304478455;
  BAS[ATNO][ 10].a[ 61] =         0.276466560000;     BAS[ATNO][ 10].d[ 61] =        -0.170262118514;
  BAS[ATNO][ 10].a[ 62] =         0.105540690000;     BAS[ATNO][ 10].d[ 62] =        -0.624616006002;
  BAS[ATNO][ 10].a[ 63] =         0.042216280000;     BAS[ATNO][ 10].d[ 63] =        -0.027815967697;
  BAS[ATNO][ 10].a[ 64] =    178109.355000000010;     BAS[ATNO][ 10].d[ 64] =        -0.000004733594;
  BAS[ATNO][ 10].a[ 65] =     27138.037499999999;     BAS[ATNO][ 10].d[ 65] =        -0.000022402556;
  BAS[ATNO][ 10].a[ 66] =      6512.317450000000;     BAS[ATNO][ 10].d[ 66] =        -0.000128158555;
  BAS[ATNO][ 10].a[ 67] =      2033.629170000000;     BAS[ATNO][ 10].d[ 67] =        -0.000442192710;
  BAS[ATNO][ 10].a[ 68] =       749.824546000000;     BAS[ATNO][ 10].d[ 68] =        -0.002376709657;
  BAS[ATNO][ 10].a[ 69] =       308.463093000000;     BAS[ATNO][ 10].d[ 69] =        -0.005778687754;
  BAS[ATNO][ 10].a[ 70] =       137.031449000000;     BAS[ATNO][ 10].d[ 70] =        -0.023310246122;
  BAS[ATNO][ 10].a[ 71] =        64.114040700000;     BAS[ATNO][ 10].d[ 71] =        -0.027085340428;
  BAS[ATNO][ 10].a[ 72] =        31.107038200000;     BAS[ATNO][ 10].d[ 72] =        -0.076546592763;
  BAS[ATNO][ 10].a[ 73] =        15.366235600000;     BAS[ATNO][ 10].d[ 73] =         0.077707998910;
  BAS[ATNO][ 10].a[ 74] =         7.391254080000;     BAS[ATNO][ 10].d[ 74] =         0.012105927632;
  BAS[ATNO][ 10].a[ 75] =         3.530697220000;     BAS[ATNO][ 10].d[ 75] =         0.474664353700;
  BAS[ATNO][ 10].a[ 76] =         1.678108190000;     BAS[ATNO][ 10].d[ 76] =        -0.550273981822;
  BAS[ATNO][ 10].a[ 77] =         0.683391650000;     BAS[ATNO][ 10].d[ 77] =        -0.511814106831;
  BAS[ATNO][ 10].a[ 78] =         0.276466560000;     BAS[ATNO][ 10].d[ 78] =         1.193898933902;
  BAS[ATNO][ 10].a[ 79] =         0.105540690000;     BAS[ATNO][ 10].d[ 79] =        -0.709607216526;
  BAS[ATNO][ 10].a[ 80] =         0.042216280000;     BAS[ATNO][ 10].d[ 80] =        -0.074440236964;

  // Basis function  12 L = d
  InitBFNGauss(BAS[ATNO][ 11]);
  BAS[ATNO][ 11].l  = 2;
  BAS[ATNO][ 11].ng = 33;
  BAS[ATNO][ 11].a[  0] =       624.475513000000;     BAS[ATNO][ 11].d[  0] =         0.000630514873;
  BAS[ATNO][ 11].a[  1] =       265.735250000000;     BAS[ATNO][ 11].d[  1] =         0.002198536120;
  BAS[ATNO][ 11].a[  2] =       116.709586000000;     BAS[ATNO][ 11].d[  2] =         0.013147125313;
  BAS[ATNO][ 11].a[  3] =        50.306071000000;     BAS[ATNO][ 11].d[  3] =         0.050512156366;
  BAS[ATNO][ 11].a[  4] =        23.036081700000;     BAS[ATNO][ 11].d[  4] =         0.144376376942;
  BAS[ATNO][ 11].a[  5] =        10.586238100000;     BAS[ATNO][ 11].d[  5] =         0.292903679613;
  BAS[ATNO][ 11].a[  6] =         4.798113940000;     BAS[ATNO][ 11].d[  6] =         0.374179513484;
  BAS[ATNO][ 11].a[  7] =         2.133543170000;     BAS[ATNO][ 11].d[  7] =         0.282422802534;
  BAS[ATNO][ 11].a[  8] =         0.857316380000;     BAS[ATNO][ 11].d[  8] =         0.081001983224;
  BAS[ATNO][ 11].a[  9] =         0.342926550000;     BAS[ATNO][ 11].d[  9] =         0.000339631098;
  BAS[ATNO][ 11].a[ 10] =         0.137170620000;     BAS[ATNO][ 11].d[ 10] =         0.001606675938;
  BAS[ATNO][ 11].a[ 11] =       624.475513000000;     BAS[ATNO][ 11].d[ 11] =         0.000037106906;
  BAS[ATNO][ 11].a[ 12] =       265.735250000000;     BAS[ATNO][ 11].d[ 12] =         0.000144989688;
  BAS[ATNO][ 11].a[ 13] =       116.709586000000;     BAS[ATNO][ 11].d[ 13] =         0.000786779129;
  BAS[ATNO][ 11].a[ 14] =        50.306071000000;     BAS[ATNO][ 11].d[ 14] =         0.003214788408;
  BAS[ATNO][ 11].a[ 15] =        23.036081700000;     BAS[ATNO][ 11].d[ 15] =         0.008765186562;
  BAS[ATNO][ 11].a[ 16] =        10.586238100000;     BAS[ATNO][ 11].d[ 16] =         0.019493354100;
  BAS[ATNO][ 11].a[ 17] =         4.798113940000;     BAS[ATNO][ 11].d[ 17] =         0.022832265233;
  BAS[ATNO][ 11].a[ 18] =         2.133543170000;     BAS[ATNO][ 11].d[ 18] =         0.021431665344;
  BAS[ATNO][ 11].a[ 19] =         0.857316380000;     BAS[ATNO][ 11].d[ 19] =        -0.085694733571;
  BAS[ATNO][ 11].a[ 20] =         0.342926550000;     BAS[ATNO][ 11].d[ 20] =        -0.118181079425;
  BAS[ATNO][ 11].a[ 21] =         0.137170620000;     BAS[ATNO][ 11].d[ 21] =        -0.018505310111;
  BAS[ATNO][ 11].a[ 22] =       624.475513000000;     BAS[ATNO][ 11].d[ 22] =         0.000053357806;
  BAS[ATNO][ 11].a[ 23] =       265.735250000000;     BAS[ATNO][ 11].d[ 23] =         0.000075896911;
  BAS[ATNO][ 11].a[ 24] =       116.709586000000;     BAS[ATNO][ 11].d[ 24] =         0.001011692713;
  BAS[ATNO][ 11].a[ 25] =        50.306071000000;     BAS[ATNO][ 11].d[ 25] =         0.002541863569;
  BAS[ATNO][ 11].a[ 26] =        23.036081700000;     BAS[ATNO][ 11].d[ 26] =         0.010625360635;
  BAS[ATNO][ 11].a[ 27] =        10.586238100000;     BAS[ATNO][ 11].d[ 27] =         0.017681081844;
  BAS[ATNO][ 11].a[ 28] =         4.798113940000;     BAS[ATNO][ 11].d[ 28] =         0.037929865749;
  BAS[ATNO][ 11].a[ 29] =         2.133543170000;     BAS[ATNO][ 11].d[ 29] =         0.017574043983;
  BAS[ATNO][ 11].a[ 30] =         0.857316380000;     BAS[ATNO][ 11].d[ 30] =        -0.226001189836;
  BAS[ATNO][ 11].a[ 31] =         0.342926550000;     BAS[ATNO][ 11].d[ 31] =         0.139498527821;
  BAS[ATNO][ 11].a[ 32] =         0.137170620000;     BAS[ATNO][ 11].d[ 32] =         0.075591944595;

  // Basis function  13 L = d
  InitBFNGauss(BAS[ATNO][ 12]);
  BAS[ATNO][ 12].l  = 2;
  BAS[ATNO][ 12].ng = 33;
  BAS[ATNO][ 12].a[  0] =       624.475513000000;     BAS[ATNO][ 12].d[  0] =         0.000173789715;
  BAS[ATNO][ 12].a[  1] =       265.735250000000;     BAS[ATNO][ 12].d[  1] =         0.000605985652;
  BAS[ATNO][ 12].a[  2] =       116.709586000000;     BAS[ATNO][ 12].d[  2] =         0.003623760932;
  BAS[ATNO][ 12].a[  3] =        50.306071000000;     BAS[ATNO][ 12].d[  3] =         0.013922737820;
  BAS[ATNO][ 12].a[  4] =        23.036081700000;     BAS[ATNO][ 12].d[  4] =         0.039794667030;
  BAS[ATNO][ 12].a[  5] =        10.586238100000;     BAS[ATNO][ 12].d[  5] =         0.080733459648;
  BAS[ATNO][ 12].a[  6] =         4.798113940000;     BAS[ATNO][ 12].d[  6] =         0.103135633847;
  BAS[ATNO][ 12].a[  7] =         2.133543170000;     BAS[ATNO][ 12].d[  7] =         0.077844600526;
  BAS[ATNO][ 12].a[  8] =         0.857316380000;     BAS[ATNO][ 12].d[  8] =         0.022326692354;
  BAS[ATNO][ 12].a[  9] =         0.342926550000;     BAS[ATNO][ 12].d[  9] =         0.000093613005;
  BAS[ATNO][ 12].a[ 10] =         0.137170620000;     BAS[ATNO][ 12].d[ 10] =         0.000442850384;
  BAS[ATNO][ 12].a[ 11] =       624.475513000000;     BAS[ATNO][ 12].d[ 11] =        -0.000141138836;
  BAS[ATNO][ 12].a[ 12] =       265.735250000000;     BAS[ATNO][ 12].d[ 12] =        -0.000551478911;
  BAS[ATNO][ 12].a[ 13] =       116.709586000000;     BAS[ATNO][ 12].d[ 13] =        -0.002992572107;
  BAS[ATNO][ 12].a[ 14] =        50.306071000000;     BAS[ATNO][ 12].d[ 14] =        -0.012227683432;
  BAS[ATNO][ 12].a[ 15] =        23.036081700000;     BAS[ATNO][ 12].d[ 15] =        -0.033339029784;
  BAS[ATNO][ 12].a[ 16] =        10.586238100000;     BAS[ATNO][ 12].d[ 16] =        -0.074144401644;
  BAS[ATNO][ 12].a[ 17] =         4.798113940000;     BAS[ATNO][ 12].d[ 17] =        -0.086844194959;
  BAS[ATNO][ 12].a[ 18] =         2.133543170000;     BAS[ATNO][ 12].d[ 18] =        -0.081516910585;
  BAS[ATNO][ 12].a[ 19] =         0.857316380000;     BAS[ATNO][ 12].d[ 19] =         0.325946202590;
  BAS[ATNO][ 12].a[ 20] =         0.342926550000;     BAS[ATNO][ 12].d[ 20] =         0.449510401065;
  BAS[ATNO][ 12].a[ 21] =         0.137170620000;     BAS[ATNO][ 12].d[ 21] =         0.070386303886;
  BAS[ATNO][ 12].a[ 22] =       624.475513000000;     BAS[ATNO][ 12].d[ 22] =        -0.000182068297;
  BAS[ATNO][ 12].a[ 23] =       265.735250000000;     BAS[ATNO][ 12].d[ 23] =        -0.000258976564;
  BAS[ATNO][ 12].a[ 24] =       116.709586000000;     BAS[ATNO][ 12].d[ 24] =        -0.003452112865;
  BAS[ATNO][ 12].a[ 25] =        50.306071000000;     BAS[ATNO][ 12].d[ 25] =        -0.008673384530;
  BAS[ATNO][ 12].a[ 26] =        23.036081700000;     BAS[ATNO][ 12].d[ 26] =        -0.036256012981;
  BAS[ATNO][ 12].a[ 27] =        10.586238100000;     BAS[ATNO][ 12].d[ 27] =        -0.060331649425;
  BAS[ATNO][ 12].a[ 28] =         4.798113940000;     BAS[ATNO][ 12].d[ 28] =        -0.129424849868;
  BAS[ATNO][ 12].a[ 29] =         2.133543170000;     BAS[ATNO][ 12].d[ 29] =        -0.059966413250;
  BAS[ATNO][ 12].a[ 30] =         0.857316380000;     BAS[ATNO][ 12].d[ 30] =         0.771164608333;
  BAS[ATNO][ 12].a[ 31] =         0.342926550000;     BAS[ATNO][ 12].d[ 31] =        -0.475998943404;
  BAS[ATNO][ 12].a[ 32] =         0.137170620000;     BAS[ATNO][ 12].d[ 32] =        -0.257935953298;

  // Basis function  14 L = d
  InitBFNGauss(BAS[ATNO][ 13]);
  BAS[ATNO][ 13].l  = 2;
  BAS[ATNO][ 13].ng = 33;
  BAS[ATNO][ 13].a[  0] =       624.475513000000;     BAS[ATNO][ 13].d[  0] =         0.000009047414;
  BAS[ATNO][ 13].a[  1] =       265.735250000000;     BAS[ATNO][ 13].d[  1] =         0.000031547339;
  BAS[ATNO][ 13].a[  2] =       116.709586000000;     BAS[ATNO][ 13].d[  2] =         0.000188651358;
  BAS[ATNO][ 13].a[  3] =        50.306071000000;     BAS[ATNO][ 13].d[  3] =         0.000724811444;
  BAS[ATNO][ 13].a[  4] =        23.036081700000;     BAS[ATNO][ 13].d[  4] =         0.002071692395;
  BAS[ATNO][ 13].a[  5] =        10.586238100000;     BAS[ATNO][ 13].d[  5] =         0.004202947452;
  BAS[ATNO][ 13].a[  6] =         4.798113940000;     BAS[ATNO][ 13].d[  6] =         0.005369194524;
  BAS[ATNO][ 13].a[  7] =         2.133543170000;     BAS[ATNO][ 13].d[  7] =         0.004052554751;
  BAS[ATNO][ 13].a[  8] =         0.857316380000;     BAS[ATNO][ 13].d[  8] =         0.001162317522;
  BAS[ATNO][ 13].a[  9] =         0.342926550000;     BAS[ATNO][ 13].d[  9] =         0.000004873451;
  BAS[ATNO][ 13].a[ 10] =         0.137170620000;     BAS[ATNO][ 13].d[ 10] =         0.000023054591;
  BAS[ATNO][ 13].a[ 11] =       624.475513000000;     BAS[ATNO][ 13].d[ 11] =         0.000125121060;
  BAS[ATNO][ 13].a[ 12] =       265.735250000000;     BAS[ATNO][ 13].d[ 12] =         0.000488891846;
  BAS[ATNO][ 13].a[ 13] =       116.709586000000;     BAS[ATNO][ 13].d[ 13] =         0.002652946596;
  BAS[ATNO][ 13].a[ 14] =        50.306071000000;     BAS[ATNO][ 13].d[ 14] =         0.010839969759;
  BAS[ATNO][ 13].a[ 15] =        23.036081700000;     BAS[ATNO][ 13].d[ 15] =         0.029555399981;
  BAS[ATNO][ 13].a[ 16] =        10.586238100000;     BAS[ATNO][ 13].d[ 16] =         0.065729790612;
  BAS[ATNO][ 13].a[ 17] =         4.798113940000;     BAS[ATNO][ 13].d[ 17] =         0.076988290740;
  BAS[ATNO][ 13].a[ 18] =         2.133543170000;     BAS[ATNO][ 13].d[ 18] =         0.072265597204;
  BAS[ATNO][ 13].a[ 19] =         0.857316380000;     BAS[ATNO][ 13].d[ 19] =        -0.288954731202;
  BAS[ATNO][ 13].a[ 20] =         0.342926550000;     BAS[ATNO][ 13].d[ 20] =        -0.398495690638;
  BAS[ATNO][ 13].a[ 21] =         0.137170620000;     BAS[ATNO][ 13].d[ 21] =        -0.062398197488;
  BAS[ATNO][ 13].a[ 22] =       624.475513000000;     BAS[ATNO][ 13].d[ 22] =        -0.000221200577;
  BAS[ATNO][ 13].a[ 23] =       265.735250000000;     BAS[ATNO][ 13].d[ 23] =        -0.000314638882;
  BAS[ATNO][ 13].a[ 24] =       116.709586000000;     BAS[ATNO][ 13].d[ 24] =        -0.004194081955;
  BAS[ATNO][ 13].a[ 25] =        50.306071000000;     BAS[ATNO][ 13].d[ 25] =        -0.010537571326;
  BAS[ATNO][ 13].a[ 26] =        23.036081700000;     BAS[ATNO][ 13].d[ 26] =        -0.044048585813;
  BAS[ATNO][ 13].a[ 27] =        10.586238100000;     BAS[ATNO][ 13].d[ 27] =        -0.073298843928;
  BAS[ATNO][ 13].a[ 28] =         4.798113940000;     BAS[ATNO][ 13].d[ 28] =        -0.157242375459;
  BAS[ATNO][ 13].a[ 29] =         2.133543170000;     BAS[ATNO][ 13].d[ 29] =        -0.072855106857;
  BAS[ATNO][ 13].a[ 30] =         0.857316380000;     BAS[ATNO][ 13].d[ 30] =         0.936912463159;
  BAS[ATNO][ 13].a[ 31] =         0.342926550000;     BAS[ATNO][ 13].d[ 31] =        -0.578306288575;
  BAS[ATNO][ 13].a[ 32] =         0.137170620000;     BAS[ATNO][ 13].d[ 32] =        -0.313374611244;

  // Basis function  15 L = f
  InitBFNGauss(BAS[ATNO][ 14]);
  BAS[ATNO][ 14].l  = 3;
  BAS[ATNO][ 14].ng = 8;
  BAS[ATNO][ 14].a[  0] =         1.688892000000;     BAS[ATNO][ 14].d[  0] =        -0.080616587796;
  BAS[ATNO][ 14].a[  1] =         0.675557000000;     BAS[ATNO][ 14].d[  1] =        -0.604785087521;
  BAS[ATNO][ 14].a[  2] =         0.270223000000;     BAS[ATNO][ 14].d[  2] =        -0.199745015855;
  BAS[ATNO][ 14].a[  3] =         0.108089000000;     BAS[ATNO][ 14].d[  3] =        -0.003511054006;
  BAS[ATNO][ 14].a[  4] =         1.688892000000;     BAS[ATNO][ 14].d[  4] =        -0.277149508337;
  BAS[ATNO][ 14].a[  5] =         0.675557000000;     BAS[ATNO][ 14].d[  5] =        -0.322040269939;
  BAS[ATNO][ 14].a[  6] =         0.270223000000;     BAS[ATNO][ 14].d[  6] =         0.676266986322;
  BAS[ATNO][ 14].a[  7] =         0.108089000000;     BAS[ATNO][ 14].d[  7] =        -0.059952347572;

  // Basis function  16 L = f
  InitBFNGauss(BAS[ATNO][ 15]);
  BAS[ATNO][ 15].l  = 3;
  BAS[ATNO][ 15].ng = 8;
  BAS[ATNO][ 15].a[  0] =         1.688892000000;     BAS[ATNO][ 15].d[  0] =         0.061154955451;
  BAS[ATNO][ 15].a[  1] =         0.675557000000;     BAS[ATNO][ 15].d[  1] =         0.458784055442;
  BAS[ATNO][ 15].a[  2] =         0.270223000000;     BAS[ATNO][ 15].d[  2] =         0.151524616462;
  BAS[ATNO][ 15].a[  3] =         0.108089000000;     BAS[ATNO][ 15].d[  3] =         0.002663451247;
  BAS[ATNO][ 15].a[  4] =         1.688892000000;     BAS[ATNO][ 15].d[  4] =        -0.365348116274;
  BAS[ATNO][ 15].a[  5] =         0.675557000000;     BAS[ATNO][ 15].d[  5] =        -0.424524678728;
  BAS[ATNO][ 15].a[  6] =         0.270223000000;     BAS[ATNO][ 15].d[  6] =         0.891478650036;
  BAS[ATNO][ 15].a[  7] =         0.108089000000;     BAS[ATNO][ 15].d[  7] =        -0.079031268657;

  // Basis function  17 L = g
  InitBFNGauss(BAS[ATNO][ 16]);
  BAS[ATNO][ 16].l  = 4;
  BAS[ATNO][ 16].ng = 2;
  BAS[ATNO][ 16].a[  0] =         0.844446000000;     BAS[ATNO][ 16].d[  0] =         0.778246217280;
  BAS[ATNO][ 16].a[  1] =         0.337778000000;     BAS[ATNO][ 16].d[  1] =         0.324482678866;

-------
TIMINGS
-------

Total SCF time: 0 days 0 hours 0 min 48 sec 

Total time                  ....      48.108 sec
Sum of individual times     ....      47.741 sec  ( 99.2%)

Fock matrix formation       ....      46.953 sec  ( 97.6%)
  XC integration            ....       0.056 sec  (  0.1% of F)
    Basis function eval.    ....       0.025 sec  ( 44.3% of XC)
    Density eval.           ....       0.002 sec  (  4.2% of XC)
    XC-Functional eval.     ....       0.002 sec  (  4.3% of XC)
    XC-Potential eval.      ....       0.004 sec  (  7.7% of XC)
Diagonalization             ....       0.002 sec  (  0.0%)
Density matrix formation    ....       0.001 sec  (  0.0%)
Population analysis         ....       0.001 sec  (  0.0%)
Initial guess               ....       0.105 sec  (  0.2%)
Orbital Transformation      ....       0.000 sec  (  0.0%)
Orbital Orthonormalization  ....       0.000 sec  (  0.0%)
DIIS solution               ....       0.000 sec  (  0.0%)
SOSCF solution              ....       0.001 sec  (  0.0%)
Grid generation             ....       0.678 sec  (  1.4%)

-------------------------   --------------------
FINAL SINGLE POINT ENERGY     -1249.519188408843
-------------------------   --------------------


                            ***************************************
                            *     ORCA property calculations      *
                            ***************************************

                                    ---------------------
                                    Active property flags
                                    ---------------------
   (+) Dipole Moment


------------------------------------------------------------------------------
                       ORCA ELECTRIC PROPERTIES CALCULATION
------------------------------------------------------------------------------

Dipole Moment Calculation                       ... on
Quadrupole Moment Calculation                   ... off
Polarizability Calculation                      ... off
GBWName                                         ... Kr_ano-rcc-tzp_2192.575824_.gbw
Electron density file                           ... Kr_ano-rcc-tzp_2192.575824_.scfp
The origin for moment calculation is the CENTER OF MASS  = ( 0.000000,  0.000000  0.000000)

-------------
DIPOLE MOMENT
-------------
                                X             Y             Z
Electronic contribution:      0.00000       0.00000       0.00000
Nuclear contribution   :      0.00000       0.00000       0.00000
                        -----------------------------------------
Total Dipole Moment    :      0.00000       0.00000       0.00000
                        -----------------------------------------
Magnitude (a.u.)       :      0.00000
Magnitude (Debye)      :      0.00000



--------------------
Rotational spectrum 
--------------------
 
Rotational constants in cm-1:     0.000000     0.000000     0.000000 
Rotational constants in MHz :     0.000000     0.000000     0.000000 

 Dipole components along the rotational axes: 
x,y,z [a.u.] :     0.000000     0.000000     0.000000 
x,y,z [Debye]:     0.000000     0.000000     0.000000 

 

Timings for individual modules:

Sum of individual times         ...       49.721 sec (=   0.829 min)
GTO integral calculation        ...        0.801 sec (=   0.013 min)   1.6 %
Relativistic integrals          ...        0.498 sec (=   0.008 min)   1.0 %
SCF iterations                  ...       48.423 sec (=   0.807 min)  97.4 %
                             ****ORCA TERMINATED NORMALLY****
TOTAL RUN TIME: 0 days 0 hours 0 minutes 50 seconds 126 msec
