
                                 *****************
                                 * O   R   C   A *
                                 *****************

           --- An Ab Initio, DFT and Semiempirical electronic structure package ---

                  #######################################################
                  #                        -***-                        #
                  #          Department of theory and spectroscopy      #
                  #               Directorship: Frank Neese             #
                  #        Max Planck Institute fuer Kohlenforschung    #
                  #                Kaiser Wilhelm Platz 1               #
                  #                 D-45470 Muelheim/Ruhr               #
                  #                      Germany                        #
                  #                                                     #
                  #                  All rights reserved                #
                  #                        -***-                        #
                  #######################################################


                         Program Version 4.2.1 -  RELEASE  -


 With contributions from (in alphabetic order):
   Daniel Aravena         : Magnetic Suceptibility
   Michael Atanasov       : Ab Initio Ligand Field Theory (pilot matlab implementation)
   Alexander A. Auer      : GIAO ZORA, VPT2
   Ute Becker             : Parallelization
   Giovanni Bistoni       : ED, misc. LED, open-shell LED, HFLD
   Martin Brehm           : Molecular dynamics
   Dmytro Bykov           : SCF Hessian
   Vijay G. Chilkuri      : MRCI spin determinant printing, contributions to CSF-ICE
   Dipayan Datta          : RHF DLPNO-CCSD density
   Achintya Kumar Dutta   : EOM-CC, STEOM-CC
   Dmitry Ganyushin       : Spin-Orbit,Spin-Spin,Magnetic field MRCI
   Miquel Garcia          : C-PCM Hessian, Gaussian charge scheme
   Yang Guo               : DLPNO-NEVPT2, CIM, IAO-localization
   Andreas Hansen         : Spin unrestricted coupled pair/coupled cluster methods
   Benjamin Helmich-Paris : CASSCF linear response (MC-RPA)
   Lee Huntington         : MR-EOM, pCC
   Robert Izsak           : Overlap fitted RIJCOSX, COSX-SCS-MP3, EOM
   Christian Kollmar      : KDIIS, OOCD, Brueckner-CCSD(T), CCSD density
   Simone Kossmann        : Meta GGA functionals, TD-DFT gradient, OOMP2, MP2 Hessian
   Martin Krupicka        : AUTO-CI
   Lucas Lang             : DCDCAS
   Dagmar Lenk            : GEPOL surface, SMD
   Dimitrios Liakos       : Extrapolation schemes; Compound Job, initial MDCI parallelization
   Dimitrios Manganas     : Further ROCIS development; embedding schemes
   Dimitrios Pantazis     : SARC Basis sets
   Taras Petrenko         : DFT Hessian,TD-DFT gradient, ASA, ECA, R-Raman, ABS, FL, XAS/XES, NRVS
   Peter Pinski           : DLPNO-MP2, DLPNO-MP2 Gradient
   Christoph Reimann      : Effective Core Potentials
   Marius Retegan         : Local ZFS, SOC
   Christoph Riplinger    : Optimizer, TS searches, QM/MM, DLPNO-CCSD(T), (RO)-DLPNO pert. Triples
   Tobias Risthaus        : Range-separated hybrids, TD-DFT gradient, RPA, STAB
   Michael Roemelt        : Original ROCIS implementation
   Masaaki Saitow         : Open-shell DLPNO-CCSD energy and density
   Barbara Sandhoefer     : DKH picture change effects
   Avijit Sen             : IP-ROCIS
   Kantharuban Sivalingam : CASSCF convergence, NEVPT2, FIC-MRCI
   Bernardo de Souza      : ESD, SOC TD-DFT
   Georgi Stoychev        : AutoAux, RI-MP2 NMR
   Willem Van den Heuvel  : Paramagnetic NMR
   Boris Wezisla          : Elementary symmetry handling
   Frank Wennmohs         : Technical directorship


 We gratefully acknowledge several colleagues who have allowed us to
 interface, adapt or use parts of their codes:
   Stefan Grimme, W. Hujo, H. Kruse,             : VdW corrections, initial TS optimization,
                  C. Bannwarth                     DFT functionals, gCP, sTDA/sTD-DF
   Ed Valeev, F. Pavosevic, A. Kumar             : LibInt (2-el integral package), F12 methods
   Garnet Chan, S. Sharma, J. Yang, R. Olivares  : DMRG
   Ulf Ekstrom                                   : XCFun DFT Library
   Mihaly Kallay                                 : mrcc  (arbitrary order and MRCC methods)
   Andreas Klamt, Michael Diedenhofen            : otool_cosmo (COSMO solvation model)
   Jiri Pittner, Ondrej Demel                    : Mk-CCSD
   Frank Weinhold                                : gennbo (NPA and NBO analysis)
   Christopher J. Cramer and Donald G. Truhlar   : smd solvation model
   Lars Goerigk                                  : TD-DFT with DH, B97 family of functionals
   V. Asgeirsson, H. Jonsson                     : NEB implementation
   FAccTs GmbH                                   : IRC, NEB, NEB-TS, Multilevel, MM, QM/MM, CI optimization
   S Lehtola, MJT Oliveira, MAL Marques          : LibXC Library


 Your calculation uses the libint2 library for the computation of 2-el integrals
 For citations please refer to: http://libint.valeyev.net

 Your ORCA version has been built with support for libXC version: 4.2.3
 For citations please refer to: https://tddft.org/programs/libxc/

 This ORCA versions uses:
   CBLAS   interface :  Fast vector & matrix operations
   LAPACKE interface :  Fast linear algebra routines
   SCALAPACK package :  Parallel linear algebra routines


----- Orbital basis set information -----
Your calculation utilizes the basis: ANO-RCC-DZP
   H, He:       P.-O. Widmark, P.-A. Malmqvist, and B. O. Roos, Theor. Chim. Acta 77, 291 (1990).
   s block:     B. O. Roos, V. Veryazov and P.-O. Widmark, Theor. Chem. Acc. 111, 345 (2004).
   p block:     B. O. Roos, R. Lindh, P.-A. Malmqvist, V. Veryazov, and P.-O. Widmark, J. Phys. Chem. A 108, 2851 (2004).
   d block:     B. O. Roos, R. Lindh, P.-A. Malmqvist, V. Veryazov, and P.-O. Widmark, J. Phys. Chem. A 109, 6575 (2005).
   actinides:   B. O. Roos, R. Lindh, P.-A. Malmqvist, V. Veryazov, and P.-O. Widmark, Chem. Phys. Letters 409, 295 (2005).
   lanthanides: B. O. Roos, R. Lindh, P.-A. Malmqvist, V. Veryazov, P.-O. Widmark and A. C. Borin, J. Phys. Chem. A 112, 11431 (2008).

================================================================================
                                        WARNINGS
                       Please study these warnings very carefully!
================================================================================


INFO   : the flag for use of LIBINT has been found!

================================================================================
                                       INPUT FILE
================================================================================
NAME = Kr_ano-rcc-dzp_274.071978_.inp
|  1> ! LDA ano-rcc-dzp nori grid5 finalgrid6 verytightscf
|  2> %Pal NProcs 18 End
|  3> 
|  4> % REL
|  5>   Method ZORA
|  6>   ModelPot 1, 0, 0, 0
|  7>   velit 274.071978
|  8> END
|  9> 
| 10> *xyz 34 1
| 11> Kr 0.0 0.0 0.0
| 12> **                         ****END OF INPUT****
================================================================================

                       ****************************
                       * Single Point Calculation *
                       ****************************

---------------------------------
CARTESIAN COORDINATES (ANGSTROEM)
---------------------------------
  Kr     0.000000    0.000000    0.000000

----------------------------
CARTESIAN COORDINATES (A.U.)
----------------------------
  NO LB      ZA    FRAG     MASS         X           Y           Z
   0 Kr   36.0000    0    83.800    0.000000    0.000000    0.000000

--------------------------------
INTERNAL COORDINATES (ANGSTROEM)
--------------------------------
 Kr     0   0   0     0.000000000000     0.00000000     0.00000000

---------------------------
INTERNAL COORDINATES (A.U.)
---------------------------
 Kr     0   0   0     0.000000000000     0.00000000     0.00000000

---------------------
BASIS SET INFORMATION
---------------------
There are 1 groups of distinct atoms

 Group   1 Type Kr  : 100s68p22d4f contracted to 5s4p2d1f pattern {2020202020/17171717/1111/4}

Atom   0Kr   basis set group =>   1


           ************************************************************
           *        Program running with 18 parallel MPI-processes    *
           *              working on a common directory               *
           ************************************************************


------------------------------------------------------------------------------
                       ORCA GTO INTEGRAL CALCULATION
                     -- ANO INTEGRAL GENERATION BRANCH --
------------------------------------------------------------------------------


Gathering ANO information                         ... done
Calculation Information:
Number of atoms                                   ... 1
Number of basis functions                         ... 34
Highest angular momentum                          ... 3
Number of primitive shells                        ... 52
Total number of shells                            ... 12
Maximum number of shells                          ... 12

Getting memory                                    ... done
Making prescreening integrals                     ... done
Gathering atom contracted prescreening            ... done
Making one-electron integrals                     ... done

Timings:

Total time                                        ...    0.5 sec
Prescreening matrix                               ...    0.4 sec
One-electron matrix                               ...    0.0 sec
Two-index integrals + Cholesky                    ...    0.0 sec


           ************************************************************
           *        Program running with 18 parallel MPI-processes    *
           *              working on a common directory               *
           ************************************************************
------------------------------------------------------------------------------
                          ORCA RELATIVISTIC HAMILTONIAN
------------------------------------------------------------------------------

Relativistic Method            ... ZORA(MP)
Treatment of potential         ... Van Wuellen
Nucleus model                  ... Point Nucleus
Speed of light used            ... 274.07197800000000


            *************************************************
            *         ZERO ORDER REGULAR APPROXIMATION      *
            *                     ZORA(MP)                  *
            *            Programmed by FN according to      *
            *                   C. van Wuellen              *
            *       J. Chem. Phys. (1998) vol 109, 392-399  *
            *************************************************

Terms included in model potential: +V(e,N)
Basis function cutoff value   ... 1.000000e-12
Loading the fitted atomic densities  (DKH4)  ... done
Calculating the cutoffs                      ... done
Number of fit functions                      ... 27
Setting up the integration grid ... done


           ************************************************************
           *        Program running with 18 parallel MPI-processes    *
           *              working on a common directory               *
           ************************************************************
-------------------------------------------------------------------------------
                                 ORCA SCF
-------------------------------------------------------------------------------

------------
SCF SETTINGS
------------
Hamiltonian:
 Density Functional     Method          .... DFT(GTOs)
 Exchange Functional    Exchange        .... Slater
   X-Alpha parameter    XAlpha          ....  0.666667
 Correlation Functional Correlation     .... VWN-5
 Gradients option       PostSCFGGA      .... off
   Density functional embedding theory  .... OFF

Relativistic Settings:
 Scalar relativistic method             .... ZORA
 Speed of light used       Velit        ....       274.071978
Orbital energies will be scaled


General Settings:
 Integral files         IntName         .... Kr_ano-rcc-dzp_274.071978_
 Hartree-Fock type      HFTyp           .... RHF
 Total Charge           Charge          ....   34
 Multiplicity           Mult            ....    1
 Number of Electrons    NEL             ....    2
 Basis Dimension        Dim             ....   34
 Nuclear Repulsion      ENuc            ....      0.0000000000 Eh

Convergence Acceleration:
 DIIS                   CNVDIIS         .... on
   Start iteration      DIISMaxIt       ....    12
   Startup error        DIISStart       ....  0.200000
   # of expansion vecs  DIISMaxEq       ....     5
   Bias factor          DIISBfac        ....   1.050
   Max. coefficient     DIISMaxC        ....  10.000
 Newton-Raphson         CNVNR           .... off
 SOSCF                  CNVSOSCF        .... on
   Start iteration      SOSCFMaxIt      ....   150
   Startup grad/error   SOSCFStart      ....  0.003300
 Level Shifting         CNVShift        .... on
   Level shift para.    LevelShift      ....    0.2500
   Turn off err/grad.   ShiftErr        ....    0.0010
 Zerner damping         CNVZerner       .... off
 Static damping         CNVDamp         .... on
   Fraction old density DampFac         ....    0.7000
   Max. Damping (<1)    DampMax         ....    0.9800
   Min. Damping (>=0)   DampMin         ....    0.0000
   Turn off err/grad.   DampErr         ....    0.1000
 Fernandez-Rico         CNVRico         .... off

SCF Procedure:
 Maximum # iterations   MaxIter         ....   125
 SCF integral mode      SCFMode         .... Direct
   Integral package                     .... LIBINT
 Reset frequency        DirectResetFreq ....    20
 Integral Threshold     Thresh          ....  1.000e-12 Eh
 Primitive CutOff       TCut            ....  1.000e-14 Eh

Convergence Tolerance:
 Convergence Check Mode ConvCheckMode   .... Total+1el-Energy
 Convergence forced     ConvForced      .... 0
 Energy Change          TolE            ....  1.000e-09 Eh
 1-El. energy change                    ....  1.000e-06 Eh
 Orbital Gradient       TolG            ....  2.000e-06
 Orbital Rotation angle TolX            ....  2.000e-06
 DIIS Error             TolErr          ....  1.000e-08


Diagonalization of the overlap matrix:
Smallest eigenvalue                        ... 1.000e+00
Time for diagonalization                   ...    0.001 sec
Threshold for overlap eigenvalues          ... 1.000e-08
Number of eigenvalues below threshold      ... 0
Time for construction of square roots      ...    0.001 sec
Total time needed                          ...    0.002 sec

-------------------
DFT GRID GENERATION
-------------------

General Integration Accuracy     IntAcc      ...  5.010
Radial Grid Type                 RadialGrid  ... Gauss-Chebyshev
Angular Grid (max. acc.)         AngularGrid ... Lebedev-434
Angular grid pruning method      GridPruning ... 3 (G Style)
Weight generation scheme         WeightScheme... Becke
Basis function cutoff            BFCut       ...    1.0000e-12
Integration weight cutoff        WCut        ...    1.0000e-14
Grids for H and He will be reduced by one unit

# of grid points (after initial pruning)     ...  16106 (   0.0 sec)
# of grid points (after weights+screening)   ...  16106 (   0.0 sec)
Grid point division into batches done        ...    0.2 sec
Reduced shell lists constructed in    0.2 sec

Total number of grid points                  ...    16106
Total number of batches                      ...      252
Average number of points per batch           ...       63
Average number of grid points per atom       ...    16106
Average number of shells per batch           ...     5.87 (48.89%)
Average number of basis functions per batch  ...    16.80 (49.41%)
Average number of large shells per batch     ...     2.00 (34.09%)
Average number of large basis fcns per batch ...     4.93 (29.37%)
Maximum spatial batch extension              ...  17.34, 17.34, 17.34 au
Average spatial batch extension              ...   0.86,  0.87,  0.87 au

Time for grid setup =    0.242 sec

------------------------------
INITIAL GUESS: MODEL POTENTIAL
------------------------------
Loading ZORA relativistic densities                ... done
Calculating cut-offs                               ... done
Setting up the integral package                    ... done
Initializing the effective Hamiltonian             ... done
Starting the Coulomb interaction                   ... done (   0.0 sec)
Reading the grid                                   ... done
Mapping shells                                     ... done
Starting the XC term evaluation                    ... done (   0.0 sec)
  promolecular density results
     # of electrons  =     36.000000565
     EX              =    -91.042004939
     EC              =     -3.295965580
     EX+EC           =    -94.337970520
Transforming the Hamiltonian                       ... done (   0.0 sec)
Diagonalizing the Hamiltonian                      ... done (   0.0 sec)
Back transforming the eigenvectors                 ... done (   0.0 sec)
Now organizing SCF variables                       ... done
                      ------------------
                      INITIAL GUESS DONE (   0.3 sec)
                      ------------------
--------------
SCF ITERATIONS
--------------
ITER       Energy         Delta-E        Max-DP      RMS-DP      [F,P]     Damp
               ***  Starting incremental Fock matrix formation  ***
  0  -1266.7711456893   0.000000000000 0.00425680  0.00013116  6.5831291 0.7000
                      *** Initiating the SOSCF procedure ***
                      *** Re-Reading the Fockian *** 
                      *** Removing any level shift *** 
ITER      Energy       Delta-E        Grad      Rot      Max-DP    RMS-DP
  1  -1266.78724021  -0.0160945171  0.003084  0.003084  0.009920  0.000306
               *** Restarting incremental Fock matrix formation ***
  2  -1266.82461012  -0.0373699114  0.011312  0.000024  0.000048  0.000001
  3  -1266.82461073  -0.0000006104  0.000053  0.000000  0.000000  0.000000
                 **** Energy Check signals convergence ****
              ***Rediagonalizing the Fockian in SOSCF/NRSCF***

               *****************************************************
               *                     SUCCESS                       *
               *           SCF CONVERGED AFTER   4 CYCLES          *
               *****************************************************

Setting up the final grid:

General Integration Accuracy     IntAcc      ...  5.340
Radial Grid Type                 RadialGrid  ... Gauss-Chebyshev
Angular Grid (max. acc.)         AngularGrid ... Lebedev-590
Angular grid pruning method      GridPruning ... 3 (G Style)
Weight generation scheme         WeightScheme... Becke
Basis function cutoff            BFCut       ...    1.0000e-12
Integration weight cutoff        WCut        ...    1.0000e-14
Grids for H and He will be reduced by one unit

# of grid points (after initial pruning)     ...  24180 (   0.0 sec)
# of grid points (after weights+screening)   ...  24180 (   0.0 sec)
Grid point division into batches done        ...    0.4 sec
Reduced shell lists constructed in    0.4 sec

Total number of grid points                  ...    24180
Total number of batches                      ...      378
Average number of points per batch           ...       63
Average number of grid points per atom       ...    24180
Average number of shells per batch           ...     3.95 (32.95%)
Average number of basis functions per batch  ...    10.23 (30.08%)
Average number of large shells per batch     ...     1.36 (34.48%)
Average number of large basis fcns per batch ...     4.36 (42.67%)
Maximum spatial batch extension              ...  17.58, 17.58, 17.58 au
Average spatial batch extension              ...   0.77,  0.77,  0.77 au

Final grid set up in    0.4 sec
Final integration                            ... done (   0.0 sec)
Change in XC energy                          ...    -0.000015081
Integrated number of electrons               ...     2.000000075
Previous integrated no of electrons          ...     1.999999427

----------------
TOTAL SCF ENERGY
----------------

Total Energy       :        -1266.82462581 Eh          -34472.05059 eV

Components:
Nuclear Repulsion  :            0.00000000 Eh               0.00000 eV
Electronic Energy  :        -1266.82462581 Eh          -34472.05059 eV
One Electron Energy:        -1292.61425545 Eh          -35173.82209 eV
Two Electron Energy:           25.78962964 Eh             701.77150 eV

Virial components:
Potential Energy   :        -2683.10621228 Eh          -73011.03185 eV
Kinetic Energy     :         1416.28158647 Eh           38538.98125 eV
Virial Ratio       :            1.89447228


DFT components:
N(Alpha)           :        1.000000037669 electrons
N(Beta)            :        1.000000037669 electrons
N(Total)           :        2.000000075337 electrons
E(X)               :      -19.695751850507 Eh       
E(C)               :       -0.279246416360 Eh       
E(XC)              :      -19.974998266867 Eh       
DFET-embed. en.    :        0.000000000000 Eh       

---------------
SCF CONVERGENCE
---------------

  Last Energy change         ...   -1.3415e-11  Tolerance :   1.0000e-09
  Last MAX-Density change    ...    0.0000e+00  Tolerance :   1.0000e-08
  Last RMS-Density change    ...    0.0000e+00  Tolerance :   1.0000e-09
  Last Orbital Gradient      ...    3.5488e-11  Tolerance :   2.0000e-06
  Last Orbital Rotation      ...    0.0000e+00  Tolerance :   2.0000e-06

================================================================================
                                        WARNING
Number of found core electrons (2) does not match given number of chemical core electrons (18)
================================================================================
             **** THE GBW FILE WAS UPDATED (Kr_ano-rcc-dzp_274.071978_.gbw) ****
             **** DENSITY FILE WAS UPDATED (Kr_ano-rcc-dzp_274.071978_.scfp) ****
             **** ENERGY FILE WAS UPDATED (Kr_ano-rcc-dzp_274.071978_.en.tmp) ****
             **** THE GBW FILE WAS UPDATED (Kr_ano-rcc-dzp_274.071978_.gbw) ****
             **** DENSITY FILE WAS UPDATED (Kr_ano-rcc-dzp_274.071978_.scfp) ****
----------------
ORBITAL ENERGIES
----------------

  NO   OCC          E(Eh)            E(eV) 
   0   2.0000    -613.822456    -16702.9582 
   1   0.0000    -148.685307     -4045.9329 
   2   0.0000    -146.991878     -3999.8524 
   3   0.0000    -146.991878     -3999.8524 
   4   0.0000    -146.991878     -3999.8524 
   5   0.0000     -61.441932     -1671.9200 
   6   0.0000     -58.781176     -1599.5171 
   7   0.0000     -58.781176     -1599.5171 
   8   0.0000     -58.781176     -1599.5171 
   9   0.0000     -54.614768     -1486.1434 
  10   0.0000     -54.614768     -1486.1434 
  11   0.0000     -54.614768     -1486.1434 
  12   0.0000     -54.614768     -1486.1434 
  13   0.0000     -54.614768     -1486.1434 
  14   0.0000     -27.282378      -742.3913 
  15   0.0000     -23.834226      -648.5622 
  16   0.0000     -23.834226      -648.5622 
  17   0.0000     -23.834226      -648.5622 
  18   0.0000     -18.183236      -494.7910 
  19   0.0000     -18.183236      -494.7910 
  20   0.0000     -18.183236      -494.7910 
  21   0.0000     -18.183236      -494.7910 
  22   0.0000     -18.183236      -494.7910 
  23   0.0000     -17.129436      -466.1156 
  24   0.0000     -17.129436      -466.1156 
  25   0.0000     -17.129436      -466.1156 
  26   0.0000     -17.129436      -466.1156 
  27   0.0000     -17.129436      -466.1156 
  28   0.0000     -17.129436      -466.1156 
  29   0.0000     -17.129436      -466.1156 
  30   0.0000     -13.697647      -372.7319 
  31   0.0000     -11.236193      -305.7523 
  32   0.0000     -11.236193      -305.7523 
  33   0.0000     -11.236193      -305.7523 

                    ********************************
                    * MULLIKEN POPULATION ANALYSIS *
                    ********************************

-----------------------
MULLIKEN ATOMIC CHARGES
-----------------------
   0 Kr:   34.000000
Sum of atomic charges:   34.0000000

--------------------------------
MULLIKEN REDUCED ORBITAL CHARGES
--------------------------------
  0 Krs       :     2.000000  s :     2.000000
      pz      :     0.000000  p :     0.000000
      px      :     0.000000
      py      :     0.000000
      dz2     :     0.000000  d :     0.000000
      dxz     :     0.000000
      dyz     :     0.000000
      dx2y2   :     0.000000
      dxy     :     0.000000
      f0      :     0.000000  f :     0.000000
      f+1     :     0.000000
      f-1     :     0.000000
      f+2     :     0.000000
      f-2     :     0.000000
      f+3     :     0.000000
      f-3     :     0.000000


                     *******************************
                     * LOEWDIN POPULATION ANALYSIS *
                     *******************************

----------------------
LOEWDIN ATOMIC CHARGES
----------------------
   0 Kr:   34.000000

-------------------------------
LOEWDIN REDUCED ORBITAL CHARGES
-------------------------------
  0 Krs       :     2.000000  s :     2.000000
      pz      :     0.000000  p :     0.000000
      px      :     0.000000
      py      :     0.000000
      dz2     :     0.000000  d :     0.000000
      dxz     :     0.000000
      dyz     :     0.000000
      dx2y2   :     0.000000
      dxy     :     0.000000
      f0      :     0.000000  f :     0.000000
      f+1     :     0.000000
      f-1     :     0.000000
      f+2     :     0.000000
      f-2     :     0.000000
      f+3     :     0.000000
      f-3     :     0.000000


                      *****************************
                      * MAYER POPULATION ANALYSIS *
                      *****************************

  NA   - Mulliken gross atomic population
  ZA   - Total nuclear charge
  QA   - Mulliken gross atomic charge
  VA   - Mayer's total valence
  BVA  - Mayer's bonded valence
  FA   - Mayer's free valence

  ATOM       NA         ZA         QA         VA         BVA        FA
  0 Kr     2.0000    36.0000    34.0000     0.0000     0.0000     0.0000

  Mayer bond orders larger than 0.100000


--------------------------
ATOM BASIS FOR ELEMENT Kr
--------------------------
 NewGTO Kr
 S 98
    1   18535881.300000000745         0.000137354958
    2    2419299.990000000224         0.000443203732
    3     474949.065000000002         0.001295332453
    4     117392.346000000005         0.003459013033
    5      34065.440100000000         0.008981300332
    6      11133.885300000000         0.023269215879
    7       3988.280760000000         0.059852503051
    8       1534.678610000000         0.144128879599
    9        624.475513000000         0.287675540568
   10        265.735250000000         0.382495530101
   11        116.709586000000         0.227403762907
   12         50.306071000000         0.027104385105
   13         23.036081700000         0.000594208189
   14         10.586238100000        -0.000552269728
   15          4.798113940000         0.000380666027
   16          2.133543170000        -0.000271710027
   17          0.857316380000         0.000151524438
   18          0.378404470000        -0.000084026916
   19          0.152386050000         0.000035798686
   20          0.060954420000        -0.000009809640
   21   18535881.300000000745        -0.000000343744
   22    2419299.990000000224        -0.000001110355
   23     474949.065000000002        -0.000003251479
   24     117392.346000000005        -0.000008714174
   25      34065.440100000000        -0.000022785363
   26      11133.885300000000        -0.000059799701
   27       3988.280760000000        -0.000158041052
   28       1534.678610000000        -0.000402844277
   29        624.475513000000        -0.000913279152
   30        265.735250000000        -0.001580468412
   31        116.709586000000        -0.001264442428
   32         50.306071000000         0.002129425141
   33         23.036081700000         0.005020385232
   34         10.586238100000         0.001944857916
   35          4.798113940000         0.000079582921
   36          2.133543170000         0.000021776827
   37          0.857316380000        -0.000007140424
   38          0.378404470000         0.000003306672
   39          0.152386050000        -0.000001537468
   40   18535881.300000000745        -0.000000059856
   41    2419299.990000000224        -0.000000193355
   42     474949.065000000002        -0.000000566412
   43     117392.346000000005        -0.000001518700
   44      34065.440100000000        -0.000003974866
   45      11133.885300000000        -0.000010449029
   46       3988.280760000000        -0.000027714665
   47       1534.678610000000        -0.000071184444
   48        624.475513000000        -0.000164205246
   49        265.735250000000        -0.000295223193
   50        116.709586000000        -0.000252582651
   51         50.306071000000         0.000526965740
   52         23.036081700000         0.001780514985
   53         10.586238100000         0.000716359780
   54          4.798113940000        -0.002326143947
   55          2.133543170000        -0.001979813142
   56          0.857316380000        -0.000107804767
   57          0.378404470000        -0.000020001619
   58          0.152386050000         0.000008271779
   59          0.060954420000        -0.000002758717
   60   18535881.300000000745        -0.000000006214
   61    2419299.990000000224        -0.000000020073
   62     474949.065000000002        -0.000000058790
   63     117392.346000000005        -0.000000157629
   64      34065.440100000000        -0.000000412646
   65      11133.885300000000        -0.000001084997
   66       3988.280760000000        -0.000002879503
   67       1534.678610000000        -0.000007404645
   68        624.475513000000        -0.000017127979
   69        265.735250000000        -0.000030978582
   70        116.709586000000        -0.000026814479
   71         50.306071000000         0.000057876536
   72         23.036081700000         0.000207439999
   73         10.586238100000         0.000086244426
   74          4.798113940000        -0.000358648488
   75          2.133543170000        -0.000559224970
   76          0.857316380000         0.000229099636
   77          0.378404470000         0.000839517832
   78          0.152386050000         0.000317309056
   79   18535881.300000000745        -0.000000008140
   80    2419299.990000000224        -0.000000026312
   81     474949.065000000002        -0.000000076909
   82     117392.346000000005        -0.000000207276
   83      34065.440100000000        -0.000000537232
   84      11133.885300000000        -0.000001437228
   85       3988.280760000000        -0.000003716181
   86       1534.678610000000        -0.000009918369
   87        624.475513000000        -0.000021828437
   88        265.735250000000        -0.000042773712
   89        116.709586000000        -0.000029987382
   90         50.306071000000         0.000063608363
   91         23.036081700000         0.000321702057
   92         10.586238100000         0.000017940243
   93          4.798113940000        -0.000365470465
   94          2.133543170000        -0.001339204328
   95          0.857316380000         0.002246358511
   96          0.378404470000         0.000460847403
   97          0.152386050000        -0.001655970553
   98          0.060954420000        -0.000038174467
 S 98
    1   18535881.300000000745         0.000001089831
    2    2419299.990000000224         0.000003516561
    3     474949.065000000002         0.000010277703
    4     117392.346000000005         0.000027445238
    5      34065.440100000000         0.000071261346
    6      11133.885300000000         0.000184627568
    7       3988.280760000000         0.000474894475
    8       1534.678610000000         0.001143578049
    9        624.475513000000         0.002282536534
   10        265.735250000000         0.003034877487
   11        116.709586000000         0.001804315361
   12         50.306071000000         0.000215057384
   13         23.036081700000         0.000004714693
   14         10.586238100000        -0.000004381936
   15          4.798113940000         0.000003020361
   16          2.133543170000        -0.000002155860
   17          0.857316380000         0.000001202257
   18          0.378404470000        -0.000000666704
   19   18535881.300000000745         0.000044441865
   20    2419299.990000000224         0.000143555308
   21     474949.065000000002         0.000420376330
   22     117392.346000000005         0.001126635711
   23      34065.440100000000         0.002945867898
   24      11133.885300000000         0.007731367529
   25       3988.280760000000         0.020432768729
   26       1534.678610000000         0.052082821886
   27        624.475513000000         0.118075787853
   28        265.735250000000         0.204335172447
   29        116.709586000000         0.163476890599
   30         50.306071000000        -0.275308541521
   31         23.036081700000        -0.649074207671
   32         10.586238100000        -0.251446264026
   33          4.798113940000        -0.010289095168
   34          2.133543170000        -0.002815476484
   35          0.857316380000         0.000923169216
   36          0.378404470000        -0.000427512179
   37          0.152386050000         0.000198775798
   38          0.060954420000        -0.000051837199
   39   18535881.300000000745         0.000001060821
   40    2419299.990000000224         0.000003426812
   41     474949.065000000002         0.000010038454
   42     117392.346000000005         0.000026915742
   43      34065.440100000000         0.000070446081
   44      11133.885300000000         0.000185186907
   45       3988.280760000000         0.000491183744
   46       1534.678610000000         0.001261593535
   47        624.475513000000         0.002910190274
   48        265.735250000000         0.005232205943
   49        116.709586000000         0.004476492633
   50         50.306071000000        -0.009339351858
   51         23.036081700000        -0.031555857786
   52         10.586238100000        -0.012695960180
   53          4.798113940000         0.041225975731
   54          2.133543170000         0.035087995581
   55          0.857316380000         0.001910611218
   56          0.378404470000         0.000354486350
   57          0.152386050000        -0.000146599769
   58          0.060954420000         0.000048892425
   59   18535881.300000000745         0.000000080203
   60    2419299.990000000224         0.000000259063
   61     474949.065000000002         0.000000758734
   62     117392.346000000005         0.000002034344
   63      34065.440100000000         0.000005325566
   64      11133.885300000000         0.000014002852
   65       3988.280760000000         0.000037162541
   66       1534.678610000000         0.000095563517
   67        624.475513000000         0.000221051773
   68        265.735250000000         0.000399806093
   69        116.709586000000         0.000346064641
   70         50.306071000000        -0.000746948058
   71         23.036081700000        -0.002677197273
   72         10.586238100000        -0.001113060859
   73          4.798113940000         0.004628677013
   74          2.133543170000         0.007217294504
   75          0.857316380000        -0.002956734109
   76          0.378404470000        -0.010834722626
   77          0.152386050000        -0.004095154957
   78          0.060954420000         0.000012694772
   79   18535881.300000000745         0.000000093430
   80    2419299.990000000224         0.000000301993
   81     474949.065000000002         0.000000882726
   82     117392.346000000005         0.000002379020
   83      34065.440100000000         0.000006166119
   84      11133.885300000000         0.000016495875
   85       3988.280760000000         0.000042652698
   86       1534.678610000000         0.000113838703
   87        624.475513000000         0.000250537251
   88        265.735250000000         0.000490937948
   89        116.709586000000         0.000344182042
   90         50.306071000000        -0.000730068951
   91         23.036081700000        -0.003692355421
   92         10.586238100000        -0.000205910257
   93          4.798113940000         0.004194710046
   94          2.133543170000         0.015370801165
   95          0.857316380000        -0.025782719860
   96          0.378404470000        -0.005289404804
   97          0.152386050000         0.019006505265
   98          0.060954420000         0.000438149823
 S 97
    1   18535881.300000000745         0.000000426962
    2    2419299.990000000224         0.000001377681
    3     474949.065000000002         0.000004026489
    4     117392.346000000005         0.000010752204
    5      34065.440100000000         0.000027918015
    6      11133.885300000000         0.000072331432
    7       3988.280760000000         0.000186049125
    8       1534.678610000000         0.000448018889
    9        624.475513000000         0.000894227975
   10        265.735250000000         0.001188972141
   11        116.709586000000         0.000706875551
   12         50.306071000000         0.000084252903
   13         23.036081700000         0.000001847073
   14         10.586238100000        -0.000001716708
   15          4.798113940000         0.000001183285
   16          2.133543170000        -0.000000844600
   17          0.857316380000         0.000000471008
   18   18535881.300000000745        -0.000002757835
   19    2419299.990000000224        -0.000008908309
   20     474949.065000000002        -0.000026086406
   21     117392.346000000005        -0.000069913253
   22      34065.440100000000        -0.000182805503
   23      11133.885300000000        -0.000479769148
   24       3988.280760000000        -0.001267953181
   25       1534.678610000000        -0.003231993693
   26        624.475513000000        -0.007327179823
   27        265.735250000000        -0.012679996297
   28        116.709586000000        -0.010144540182
   29         50.306071000000         0.017084240785
   30         23.036081700000         0.040278227439
   31         10.586238100000         0.015603469821
   32          4.798113940000         0.000638488651
   33          2.133543170000         0.000174714079
   34          0.857316380000        -0.000057287163
   35          0.378404470000         0.000026529220
   36          0.152386050000        -0.000012335010
   37          0.060954420000         0.000003216752
   38   18535881.300000000745         0.000017538942
   39    2419299.990000000224         0.000056656749
   40     474949.065000000002         0.000165969450
   41     117392.346000000005         0.000445007850
   42      34065.440100000000         0.001164710938
   43      11133.885300000000         0.003061763175
   44       3988.280760000000         0.008120921288
   45       1534.678610000000         0.020858389404
   46        624.475513000000         0.048115244942
   47        265.735250000000         0.086505983058
   48        116.709586000000         0.074011497269
   49         50.306071000000        -0.154410935351
   50         23.036081700000        -0.521724589745
   51         10.586238100000        -0.209906973892
   52          4.798113940000         0.681604202337
   53          2.133543170000         0.580122721553
   54          0.857316380000         0.031588837194
   55          0.378404470000         0.005860853063
   56          0.152386050000        -0.002423787838
   57          0.060954420000         0.000808356422
   58   18535881.300000000745         0.000000860055
   59    2419299.990000000224         0.000002778068
   60     474949.065000000002         0.000008136301
   61     117392.346000000005         0.000021815345
   62      34065.440100000000         0.000057108857
   63      11133.885300000000         0.000150159988
   64       3988.280760000000         0.000398513581
   65       1534.678610000000         0.001024778117
   66        624.475513000000         0.002370455040
   67        265.735250000000         0.004287332133
   68        116.709586000000         0.003711034126
   69         50.306071000000        -0.008009918973
   70         23.036081700000        -0.028709001932
   71         10.586238100000        -0.011935940121
   72          4.798113940000         0.049635751032
   73          2.133543170000         0.077394865122
   74          0.857316380000        -0.031706623227
   75          0.378404470000        -0.116186459594
   76          0.152386050000        -0.043914511917
   77          0.060954420000         0.000136132755
   78   18535881.300000000745         0.000000868470
   79    2419299.990000000224         0.000002807136
   80     474949.065000000002         0.000008205274
   81     117392.346000000005         0.000022113895
   82      34065.440100000000         0.000057316409
   83      11133.885300000000         0.000153335409
   84       3988.280760000000         0.000396472987
   85       1534.678610000000         0.001058173869
   86        624.475513000000         0.002328838668
   87        265.735250000000         0.004563454222
   88        116.709586000000         0.003199302478
   89         50.306071000000        -0.006786267489
   90         23.036081700000        -0.034321842486
   91         10.586238100000        -0.001914013846
   92          4.798113940000         0.038991419042
   93          2.133543170000         0.142877420041
   94          0.857316380000        -0.239660148855
   95          0.378404470000        -0.049167021538
   96          0.152386050000         0.176672667040
   97          0.060954420000         0.004072768600
 S 95
    1   18535881.300000000745        -0.000000114499
    2    2419299.990000000224        -0.000000369454
    3     474949.065000000002        -0.000001079787
    4     117392.346000000005        -0.000002883429
    5      34065.440100000000        -0.000007486800
    6      11133.885300000000        -0.000019397188
    7       3988.280760000000        -0.000049892969
    8       1534.678610000000        -0.000120145646
    9        624.475513000000        -0.000239805956
   10        265.735250000000        -0.000318847776
   11        116.709586000000        -0.000189563480
   12         50.306071000000        -0.000022594180
   13         23.036081700000        -0.000000495331
   14         10.586238100000         0.000000460371
   15          4.798113940000        -0.000000317323
   16          2.133543170000         0.000000226497
   17   18535881.300000000745         0.000000327669
   18    2419299.990000000224         0.000001058431
   19     474949.065000000002         0.000003099427
   20     117392.346000000005         0.000008306665
   21      34065.440100000000         0.000021719831
   22      11133.885300000000         0.000057003234
   23       3988.280760000000         0.000150650437
   24       1534.678610000000         0.000384005711
   25        624.475513000000         0.000870570666
   26        265.735250000000         0.001506559561
   27        116.709586000000         0.001205312182
   28         50.306071000000        -0.002029844938
   29         23.036081700000        -0.004785612489
   30         10.586238100000        -0.001853908794
   31          4.798113940000        -0.000075861314
   32          2.133543170000        -0.000020758458
   33          0.857316380000         0.000006806510
   34          0.378404470000        -0.000003152040
   35          0.152386050000         0.000001465570
   36   18535881.300000000745         0.000003544936
   37    2419299.990000000224         0.000011451349
   38     474949.065000000002         0.000033545415
   39     117392.346000000005         0.000089944102
   40      34065.440100000000         0.000235409059
   41      11133.885300000000         0.000618837486
   42       3988.280760000000         0.001641384465
   43       1534.678610000000         0.004215856197
   44        624.475513000000         0.009724957647
   45        265.735250000000         0.017484417308
   46        116.709586000000         0.014959056682
   47         50.306071000000        -0.031209231260
   48         23.036081700000        -0.105449936809
   49         10.586238100000        -0.042425980235
   50          4.798113940000         0.137764486240
   51          2.133543170000         0.117253251105
   52          0.857316380000         0.006384672970
   53          0.378404470000         0.001184583969
   54          0.152386050000        -0.000489891179
   55          0.060954420000         0.000163383393
   56   18535881.300000000745        -0.000004668291
   57    2419299.990000000224        -0.000015079065
   58     474949.065000000002        -0.000044163003
   59     117392.346000000005        -0.000118411447
   60      34065.440100000000        -0.000309980993
   61      11133.885300000000        -0.000815052943
   62       3988.280760000000        -0.002163090663
   63       1534.678610000000        -0.005562390051
   64        624.475513000000        -0.012866585756
   65        265.735250000000        -0.023271197143
   66        116.709586000000        -0.020143110933
   67         50.306071000000         0.043477015019
   68         23.036081700000         0.155829504939
   69         10.586238100000         0.064787053359
   70          4.798113940000        -0.269417743216
   71          2.133543170000        -0.420091354806
   72          0.857316380000         0.172100284519
   73          0.378404470000         0.630648133362
   74          0.152386050000         0.238363446693
   75          0.060954420000        -0.000738914568
   76   18535881.300000000745        -0.000003682705
   77    2419299.990000000224        -0.000011903526
   78     474949.065000000002        -0.000034794067
   79     117392.346000000005        -0.000093772900
   80      34065.440100000000        -0.000243047447
   81      11133.885300000000        -0.000650211356
   82       3988.280760000000        -0.001681224449
   83       1534.678610000000        -0.004487134908
   84        624.475513000000        -0.009875327290
   85        265.735250000000        -0.019351106040
   86        116.709586000000        -0.013566486808
   87         50.306071000000         0.028776837768
   88         23.036081700000         0.145540106492
   89         10.586238100000         0.008116282777
   90          4.798113940000        -0.165341219136
   91          2.133543170000        -0.605864761971
   92          0.857316380000         1.016267224020
   93          0.378404470000         0.208490367423
   94          0.152386050000        -0.749171865874
   95          0.060954420000        -0.017270377487
 S 94
    1   18535881.300000000745        -0.000000041113
    2    2419299.990000000224        -0.000000132661
    3     474949.065000000002        -0.000000387723
    4     117392.346000000005        -0.000001035362
    5      34065.440100000000        -0.000002688309
    6      11133.885300000000        -0.000006965010
    7       3988.280760000000        -0.000017915226
    8       1534.678610000000        -0.000043141077
    9        624.475513000000        -0.000086107883
   10        265.735250000000        -0.000114489679
   11        116.709586000000        -0.000068067159
   12         50.306071000000        -0.000008112964
   13         23.036081700000        -0.000000177860
   14         10.586238100000         0.000000165307
   15          4.798113940000        -0.000000113942
   16          2.133543170000         0.000000081329
   17   18535881.300000000745         0.000000101628
   18    2419299.990000000224         0.000000328276
   19     474949.065000000002         0.000000961297
   20     117392.346000000005         0.000002576338
   21      34065.440100000000         0.000006736472
   22      11133.885300000000         0.000017679728
   23       3988.280760000000         0.000046724695
   24       1534.678610000000         0.000119100548
   25        624.475513000000         0.000270010160
   26        265.735250000000         0.000467264066
   27        116.709586000000         0.000373831268
   28         50.306071000000        -0.000629562629
   29         23.036081700000        -0.001484272382
   30         10.586238100000        -0.000574995495
   31          4.798113940000        -0.000023528619
   32          2.133543170000        -0.000006438299
   33          0.857316380000         0.000002111060
   34          0.378404470000        -0.000000977615
   35   18535881.300000000745         0.000000418241
   36    2419299.990000000224         0.000001351062
   37     474949.065000000002         0.000003957781
   38     117392.346000000005         0.000010611854
   39      34065.440100000000         0.000027774213
   40      11133.885300000000         0.000073012160
   41       3988.280760000000         0.000193655085
   42       1534.678610000000         0.000497398389
   43        624.475513000000         0.001147377436
   44        265.735250000000         0.002062859975
   45        116.709586000000         0.001764910935
   46         50.306071000000        -0.003682151535
   47         23.036081700000        -0.012441275578
   48         10.586238100000        -0.005005534643
   49          4.798113940000         0.016253835612
   50          2.133543170000         0.013833863287
   51          0.857316380000         0.000753281399
   52          0.378404470000         0.000139760497
   53          0.152386050000        -0.000057798718
   54          0.060954420000         0.000019276425
   55   18535881.300000000745         0.000003296861
   56    2419299.990000000224         0.000010649203
   57     474949.065000000002         0.000031188988
   58     117392.346000000005         0.000083625046
   59      34065.440100000000         0.000218916123
   60      11133.885300000000         0.000575610229
   61       3988.280760000000         0.001527627282
   62       1534.678610000000         0.003928295257
   63        624.475513000000         0.009086696069
   64        265.735250000000         0.016434685907
   65        116.709586000000         0.014225555280
   66         50.306071000000        -0.030704526356
   67         23.036081700000        -0.110050589704
   68         10.586238100000        -0.045754194176
   69          4.798113940000         0.190269368624
   70          2.133543170000         0.296678740937
   71          0.857316380000        -0.121541410319
   72          0.378404470000        -0.445379063481
   73          0.152386050000        -0.168338068473
   74          0.060954420000         0.000521839455
   75   18535881.300000000745        -0.000005443486
   76    2419299.990000000224        -0.000017594859
   77     474949.065000000002        -0.000051429863
   78     117392.346000000005        -0.000138607751
   79      34065.440100000000        -0.000359253688
   80      11133.885300000000        -0.000961091466
   81       3988.280760000000        -0.002485054213
   82       1534.678610000000        -0.006632531139
   83        624.475513000000        -0.014596934814
   84        265.735250000000        -0.028603288290
   85        116.709586000000        -0.020052917515
   86         50.306071000000         0.042535666181
   87         23.036081700000         0.215125978597
   88         10.586238100000         0.011996853081
   89          4.798113940000        -0.244394431379
   90          2.133543170000        -0.895541806021
   91          0.857316380000         1.502166559808
   92          0.378404470000         0.308174120529
   93          0.152386050000        -1.107367135205
   94          0.060954420000        -0.025527718422
 P 68
    1     178109.355000000010         0.000044877929
    2      27138.037499999999         0.000233243590
    3       6512.317450000000         0.001114480208
    4       2033.629170000000         0.004943671322
    5        749.824546000000         0.019488437682
    6        308.463093000000         0.064736537525
    7        137.031449000000         0.169412059034
    8         64.114040700000         0.319722342482
    9         31.107038200000         0.372648725984
   10         15.366235600000         0.201020778067
   11          7.391254080000         0.033577495143
   12          3.530697220000         0.001269135076
   13          1.678108190000         0.000449247913
   14          0.683391650000        -0.000070801639
   15          0.276466560000         0.000014995869
   16          0.105540690000        -0.000015494402
   17          0.042216280000         0.000003828732
   18     178109.355000000010         0.000001344598
   19      27138.037499999999         0.000006994248
   20       6512.317450000000         0.000033524279
   21       2033.629170000000         0.000149240108
   22        749.824546000000         0.000595011898
   23        308.463093000000         0.002016401548
   24        137.031449000000         0.005495402216
   25         64.114040700000         0.010916632943
   26         31.107038200000         0.013280226578
   27         15.366235600000        -0.000296873133
   28          7.391254080000        -0.027593345467
   29          3.530697220000        -0.036985243375
   30          1.678108190000        -0.015623897648
   31          0.683391650000        -0.001210548835
   32          0.276466560000        -0.000010647108
   33          0.105540690000        -0.000034059486
   34          0.042216280000         0.000005346220
   35     178109.355000000010         0.000000079575
   36      27138.037499999999         0.000000412980
   37       6512.317450000000         0.000001987662
   38       2033.629170000000         0.000008806664
   39        749.824546000000         0.000035383314
   40        308.463093000000         0.000119398481
   41        137.031449000000         0.000329860043
   42         64.114040700000         0.000653115206
   43         31.107038200000         0.000816118142
   44         15.366235600000        -0.000140415314
   45          7.391254080000        -0.002010634901
   46          3.530697220000        -0.003249370758
   47          1.678108190000        -0.000569266664
   48          0.683391650000         0.006339090697
   49          0.276466560000         0.008536897690
   50          0.105540690000         0.003144665779
   51          0.042216280000         0.000017065646
   52     178109.355000000010         0.000000097214
   53      27138.037499999999         0.000000500899
   54       6512.317450000000         0.000002444189
   55       2033.629170000000         0.000010624990
   56        749.824546000000         0.000043683500
   57        308.463093000000         0.000143814526
   58        137.031449000000         0.000410015317
   59         64.114040700000         0.000779961021
   60         31.107038200000         0.001047556749
   61         15.366235600000        -0.000300914738
   62          7.391254080000        -0.002459601876
   63          3.530697220000        -0.004443089541
   64          1.678108190000        -0.000454982205
   65          0.683391650000         0.017641326776
   66          0.276466560000        -0.003652722014
   67          0.105540690000        -0.013400212890
   68          0.042216280000        -0.000596750460
 P 67
    1     178109.355000000010        -0.000003424266
    2      27138.037499999999        -0.000017796901
    3       6512.317450000000        -0.000085036822
    4       2033.629170000000        -0.000377210914
    5        749.824546000000        -0.001487002455
    6        308.463093000000        -0.004939512946
    7        137.031449000000        -0.012926441401
    8         64.114040700000        -0.024395383352
    9         31.107038200000        -0.028433760542
   10         15.366235600000        -0.015338242878
   11          7.391254080000        -0.002562022596
   12          3.530697220000        -0.000096837263
   13          1.678108190000        -0.000034278415
   14          0.683391650000         0.000005402291
   15          0.276466560000        -0.000001144211
   16          0.105540690000         0.000001182250
   17     178109.355000000010         0.000018005837
   18      27138.037499999999         0.000093661685
   19       6512.317450000000         0.000448931833
   20       2033.629170000000         0.001998510852
   21        749.824546000000         0.007967950121
   22        308.463093000000         0.027002127202
   23        137.031449000000         0.073590277595
   24         64.114040700000         0.146187306605
   25         31.107038200000         0.177838768121
   26         15.366235600000        -0.003975500861
   27          7.391254080000        -0.369509250265
   28          3.530697220000        -0.495278456430
   29          1.678108190000        -0.209223441682
   30          0.683391650000        -0.016210756066
   31          0.276466560000        -0.000142578032
   32          0.105540690000        -0.000456098920
   33          0.042216280000         0.000071592540
   34     178109.355000000010         0.000000704919
   35      27138.037499999999         0.000003658403
   36       6512.317450000000         0.000017607791
   37       2033.629170000000         0.000078014212
   38        749.824546000000         0.000313444615
   39        308.463093000000         0.001057696586
   40        137.031449000000         0.002922079412
   41         64.114040700000         0.005785649199
   42         31.107038200000         0.007229617736
   43         15.366235600000        -0.001243875111
   44          7.391254080000        -0.017811295926
   45          3.530697220000        -0.028784690908
   46          1.678108190000        -0.005042873281
   47          0.683391650000         0.056155108149
   48          0.276466560000         0.075624476121
   49          0.105540690000         0.027857157337
   50          0.042216280000         0.000151176764
   51     178109.355000000010         0.000000758452
   52      27138.037499999999         0.000003907958
   53       6512.317450000000         0.000019069293
   54       2033.629170000000         0.000082894990
   55        749.824546000000         0.000340813796
   56        308.463093000000         0.001122024900
   57        137.031449000000         0.003198893796
   58         64.114040700000         0.006085168942
   59         31.107038200000         0.008172920987
   60         15.366235600000        -0.002347703246
   61          7.391254080000        -0.019189539660
   62          3.530697220000        -0.034664489320
   63          1.678108190000        -0.003549720448
   64          0.683391650000         0.137635665012
   65          0.276466560000        -0.028498129977
   66          0.105540690000        -0.104546967231
   67          0.042216280000        -0.004655780568
 P 65
    1     178109.355000000010        -0.000000366500
    2      27138.037499999999        -0.000001904808
    3       6512.317450000000        -0.000009101518
    4       2033.629170000000        -0.000040373005
    5        749.824546000000        -0.000159154350
    6        308.463093000000        -0.000528677656
    7        137.031449000000        -0.001383521171
    8         64.114040700000        -0.002611045709
    9         31.107038200000        -0.003043274515
   10         15.366235600000        -0.001641657057
   11          7.391254080000        -0.000274214101
   12          3.530697220000        -0.000010364523
   13          1.678108190000        -0.000003668830
   14          0.683391650000         0.000000578209
   15     178109.355000000010        -0.000003465198
   16      27138.037499999999        -0.000018025061
   17       6512.317450000000        -0.000086396305
   18       2033.629170000000        -0.000384610625
   19        749.824546000000        -0.001533420884
   20        308.463093000000        -0.005196521706
   21        137.031449000000        -0.014162346249
   22         64.114040700000        -0.028133543195
   23         31.107038200000        -0.034224822803
   24         15.366235600000         0.000765079594
   25          7.391254080000         0.071111539672
   26          3.530697220000         0.095315647924
   27          1.678108190000         0.040264759442
   28          0.683391650000         0.003119737388
   29          0.276466560000         0.000027438943
   30          0.105540690000         0.000087775601
   31          0.042216280000        -0.000013777884
   32     178109.355000000010         0.000004050812
   33      27138.037499999999         0.000021023000
   34       6512.317450000000         0.000101183094
   35       2033.629170000000         0.000448308331
   36        749.824546000000         0.001801208114
   37        308.463093000000         0.006078048827
   38        137.031449000000         0.016791716624
   39         64.114040700000         0.033247207945
   40         31.107038200000         0.041544966853
   41         15.366235600000        -0.007147922910
   42          7.391254080000        -0.102352534522
   43          3.530697220000        -0.165411101027
   44          1.678108190000        -0.028978849362
   45          0.683391650000         0.322695084583
   46          0.276466560000         0.434575722903
   47          0.105540690000         0.160081033402
   48          0.042216280000         0.000868736614
   49     178109.355000000010         0.000003420064
   50      27138.037499999999         0.000017622026
   51       6512.317450000000         0.000085988532
   52       2033.629170000000         0.000373795638
   53        749.824546000000         0.001536820386
   54        308.463093000000         0.005059509803
   55        137.031449000000         0.014424666082
   56         64.114040700000         0.027439651220
   57         31.107038200000         0.036853882523
   58         15.366235600000        -0.010586420664
   59          7.391254080000        -0.086530757049
   60          3.530697220000        -0.156311436161
   61          1.678108190000        -0.016006637113
   62          0.683391650000         0.620635955906
   63          0.276466560000        -0.128505675753
   64          0.105540690000        -0.471430184459
   65          0.042216280000        -0.020994157461
 P 64
    1     178109.355000000010        -0.000000107906
    2      27138.037499999999        -0.000000560817
    3       6512.317450000000        -0.000002679684
    4       2033.629170000000        -0.000011886686
    5        749.824546000000        -0.000046858482
    6        308.463093000000        -0.000155654135
    7        137.031449000000        -0.000407338553
    8         64.114040700000        -0.000768748323
    9         31.107038200000        -0.000896005831
   10         15.366235600000        -0.000483339340
   11          7.391254080000        -0.000080734561
   12          3.530697220000        -0.000003051540
   13          1.678108190000        -0.000001080183
   14          0.683391650000         0.000000170237
   15     178109.355000000010        -0.000000407904
   16      27138.037499999999        -0.000002121812
   17       6512.317450000000        -0.000010170101
   18       2033.629170000000        -0.000045274259
   19        749.824546000000        -0.000180505920
   20        308.463093000000        -0.000611706115
   21        137.031449000000        -0.001667113946
   22         64.114040700000        -0.003311726840
   23         31.107038200000        -0.004028758962
   24         15.366235600000         0.000090060986
   25          7.391254080000         0.008370861536
   26          3.530697220000         0.011220036785
   27          1.678108190000         0.004739747270
   28          0.683391650000         0.000367238423
   29          0.276466560000         0.000003229962
   30          0.105540690000         0.000010332464
   31     178109.355000000010        -0.000003033114
   32      27138.037499999999        -0.000015741328
   33       6512.317450000000        -0.000075762561
   34       2033.629170000000        -0.000335678479
   35        749.824546000000        -0.001348685175
   36        308.463093000000        -0.004551042316
   37        137.031449000000        -0.012573083088
   38         64.114040700000        -0.024894411768
   39         31.107038200000        -0.031107499716
   40         15.366235600000         0.005352128711
   41          7.391254080000         0.076638199035
   42          3.530697220000         0.123854371974
   43          1.678108190000         0.021698405766
   44          0.683391650000        -0.241623426674
   45          0.276466560000        -0.325395955296
   46          0.105540690000        -0.119863393290
   47          0.042216280000        -0.000650481298
   48     178109.355000000010         0.000004746415
   49      27138.037499999999         0.000024456107
   50       6512.317450000000         0.000119336147
   51       2033.629170000000         0.000518759073
   52        749.824546000000         0.002132821891
   53        308.463093000000         0.007021661974
   54        137.031449000000         0.020018763333
   55         64.114040700000         0.038081150757
   56         31.107038200000         0.051146359155
   57         15.366235600000        -0.014691989999
   58          7.391254080000        -0.120088654843
   59          3.530697220000        -0.216931305645
   60          1.678108190000        -0.022214245952
   61          0.683391650000         0.861327690102
   62          0.276466560000        -0.178342063182
   63          0.105540690000        -0.654257730253
   64          0.042216280000        -0.029135999903
 D 22
    1        624.475513000000         0.000644415558
    2        265.735250000000         0.002247006284
    3        116.709586000000         0.013436974231
    4         50.306071000000         0.051625775771
    5         23.036081700000         0.147559379741
    6         10.586238100000         0.299361198853
    7          4.798113940000         0.382428885464
    8          2.133543170000         0.288649254464
    9          0.857316380000         0.082787798499
   10          0.342926550000         0.000347118797
   11          0.137170620000         0.001642097619
   12        624.475513000000         0.000032939612
   13        265.735250000000         0.000128706610
   14        116.709586000000         0.000698419838
   15         50.306071000000         0.002853751348
   16         23.036081700000         0.007780811609
   17         10.586238100000         0.017304151465
   18          4.798113940000         0.020268085925
   19          2.133543170000         0.019024780515
   20          0.857316380000        -0.076070779910
   21          0.342926550000        -0.104908744187
   22          0.137170620000        -0.016427069832
 D 22
    1        624.475513000000        -0.000112081729
    2        265.735250000000        -0.000390816679
    3        116.709586000000        -0.002337062287
    4         50.306071000000        -0.008979153454
    5         23.036081700000        -0.025664666428
    6         10.586238100000        -0.052067210662
    7          4.798113940000        -0.066514983969
    8          2.133543170000        -0.050204106601
    9          0.857316380000        -0.014399093006
   10          0.342926550000        -0.000060373581
   11          0.137170620000        -0.000285606294
   12        624.475513000000         0.000189386787
   13        265.735250000000         0.000740000571
   14        116.709586000000         0.004015575249
   15         50.306071000000         0.016407685828
   16         23.036081700000         0.044735892091
   17         10.586238100000         0.099490476254
   18          4.798113940000         0.116531661525
   19          2.133543170000         0.109383258575
   20          0.857316380000        -0.437370080678
   21          0.342926550000        -0.603174385273
   22          0.137170620000        -0.094447682361
 F 4
    1          1.688892000000         0.101187760149
    2          0.675557000000         0.759109881121
    3          0.270223000000         0.250714540370
    4          0.108089000000         0.004406980007
 end
  // -----------------------------------------------
  // The basis set
  // -----------------------------------------------
  BAS[ATNO] = new BFNGauss[NSH];
  // Basis function   1 L = s
  InitBFNGauss(BAS[ATNO][  0]);
  BAS[ATNO][  0].l  = 0;
  BAS[ATNO][  0].ng = 98;
  BAS[ATNO][  0].a[  0] =  18535881.300000000745;     BAS[ATNO][  0].d[  0] =         0.000137354958;
  BAS[ATNO][  0].a[  1] =   2419299.990000000224;     BAS[ATNO][  0].d[  1] =         0.000443203732;
  BAS[ATNO][  0].a[  2] =    474949.065000000002;     BAS[ATNO][  0].d[  2] =         0.001295332453;
  BAS[ATNO][  0].a[  3] =    117392.346000000005;     BAS[ATNO][  0].d[  3] =         0.003459013033;
  BAS[ATNO][  0].a[  4] =     34065.440100000000;     BAS[ATNO][  0].d[  4] =         0.008981300332;
  BAS[ATNO][  0].a[  5] =     11133.885300000000;     BAS[ATNO][  0].d[  5] =         0.023269215879;
  BAS[ATNO][  0].a[  6] =      3988.280760000000;     BAS[ATNO][  0].d[  6] =         0.059852503051;
  BAS[ATNO][  0].a[  7] =      1534.678610000000;     BAS[ATNO][  0].d[  7] =         0.144128879599;
  BAS[ATNO][  0].a[  8] =       624.475513000000;     BAS[ATNO][  0].d[  8] =         0.287675540568;
  BAS[ATNO][  0].a[  9] =       265.735250000000;     BAS[ATNO][  0].d[  9] =         0.382495530101;
  BAS[ATNO][  0].a[ 10] =       116.709586000000;     BAS[ATNO][  0].d[ 10] =         0.227403762907;
  BAS[ATNO][  0].a[ 11] =        50.306071000000;     BAS[ATNO][  0].d[ 11] =         0.027104385105;
  BAS[ATNO][  0].a[ 12] =        23.036081700000;     BAS[ATNO][  0].d[ 12] =         0.000594208189;
  BAS[ATNO][  0].a[ 13] =        10.586238100000;     BAS[ATNO][  0].d[ 13] =        -0.000552269728;
  BAS[ATNO][  0].a[ 14] =         4.798113940000;     BAS[ATNO][  0].d[ 14] =         0.000380666027;
  BAS[ATNO][  0].a[ 15] =         2.133543170000;     BAS[ATNO][  0].d[ 15] =        -0.000271710027;
  BAS[ATNO][  0].a[ 16] =         0.857316380000;     BAS[ATNO][  0].d[ 16] =         0.000151524438;
  BAS[ATNO][  0].a[ 17] =         0.378404470000;     BAS[ATNO][  0].d[ 17] =        -0.000084026916;
  BAS[ATNO][  0].a[ 18] =         0.152386050000;     BAS[ATNO][  0].d[ 18] =         0.000035798686;
  BAS[ATNO][  0].a[ 19] =         0.060954420000;     BAS[ATNO][  0].d[ 19] =        -0.000009809640;
  BAS[ATNO][  0].a[ 20] =  18535881.300000000745;     BAS[ATNO][  0].d[ 20] =        -0.000000343744;
  BAS[ATNO][  0].a[ 21] =   2419299.990000000224;     BAS[ATNO][  0].d[ 21] =        -0.000001110355;
  BAS[ATNO][  0].a[ 22] =    474949.065000000002;     BAS[ATNO][  0].d[ 22] =        -0.000003251479;
  BAS[ATNO][  0].a[ 23] =    117392.346000000005;     BAS[ATNO][  0].d[ 23] =        -0.000008714174;
  BAS[ATNO][  0].a[ 24] =     34065.440100000000;     BAS[ATNO][  0].d[ 24] =        -0.000022785363;
  BAS[ATNO][  0].a[ 25] =     11133.885300000000;     BAS[ATNO][  0].d[ 25] =        -0.000059799701;
  BAS[ATNO][  0].a[ 26] =      3988.280760000000;     BAS[ATNO][  0].d[ 26] =        -0.000158041052;
  BAS[ATNO][  0].a[ 27] =      1534.678610000000;     BAS[ATNO][  0].d[ 27] =        -0.000402844277;
  BAS[ATNO][  0].a[ 28] =       624.475513000000;     BAS[ATNO][  0].d[ 28] =        -0.000913279152;
  BAS[ATNO][  0].a[ 29] =       265.735250000000;     BAS[ATNO][  0].d[ 29] =        -0.001580468412;
  BAS[ATNO][  0].a[ 30] =       116.709586000000;     BAS[ATNO][  0].d[ 30] =        -0.001264442428;
  BAS[ATNO][  0].a[ 31] =        50.306071000000;     BAS[ATNO][  0].d[ 31] =         0.002129425141;
  BAS[ATNO][  0].a[ 32] =        23.036081700000;     BAS[ATNO][  0].d[ 32] =         0.005020385232;
  BAS[ATNO][  0].a[ 33] =        10.586238100000;     BAS[ATNO][  0].d[ 33] =         0.001944857916;
  BAS[ATNO][  0].a[ 34] =         4.798113940000;     BAS[ATNO][  0].d[ 34] =         0.000079582921;
  BAS[ATNO][  0].a[ 35] =         2.133543170000;     BAS[ATNO][  0].d[ 35] =         0.000021776827;
  BAS[ATNO][  0].a[ 36] =         0.857316380000;     BAS[ATNO][  0].d[ 36] =        -0.000007140424;
  BAS[ATNO][  0].a[ 37] =         0.378404470000;     BAS[ATNO][  0].d[ 37] =         0.000003306672;
  BAS[ATNO][  0].a[ 38] =         0.152386050000;     BAS[ATNO][  0].d[ 38] =        -0.000001537468;
  BAS[ATNO][  0].a[ 39] =  18535881.300000000745;     BAS[ATNO][  0].d[ 39] =        -0.000000059856;
  BAS[ATNO][  0].a[ 40] =   2419299.990000000224;     BAS[ATNO][  0].d[ 40] =        -0.000000193355;
  BAS[ATNO][  0].a[ 41] =    474949.065000000002;     BAS[ATNO][  0].d[ 41] =        -0.000000566412;
  BAS[ATNO][  0].a[ 42] =    117392.346000000005;     BAS[ATNO][  0].d[ 42] =        -0.000001518700;
  BAS[ATNO][  0].a[ 43] =     34065.440100000000;     BAS[ATNO][  0].d[ 43] =        -0.000003974866;
  BAS[ATNO][  0].a[ 44] =     11133.885300000000;     BAS[ATNO][  0].d[ 44] =        -0.000010449029;
  BAS[ATNO][  0].a[ 45] =      3988.280760000000;     BAS[ATNO][  0].d[ 45] =        -0.000027714665;
  BAS[ATNO][  0].a[ 46] =      1534.678610000000;     BAS[ATNO][  0].d[ 46] =        -0.000071184444;
  BAS[ATNO][  0].a[ 47] =       624.475513000000;     BAS[ATNO][  0].d[ 47] =        -0.000164205246;
  BAS[ATNO][  0].a[ 48] =       265.735250000000;     BAS[ATNO][  0].d[ 48] =        -0.000295223193;
  BAS[ATNO][  0].a[ 49] =       116.709586000000;     BAS[ATNO][  0].d[ 49] =        -0.000252582651;
  BAS[ATNO][  0].a[ 50] =        50.306071000000;     BAS[ATNO][  0].d[ 50] =         0.000526965740;
  BAS[ATNO][  0].a[ 51] =        23.036081700000;     BAS[ATNO][  0].d[ 51] =         0.001780514985;
  BAS[ATNO][  0].a[ 52] =        10.586238100000;     BAS[ATNO][  0].d[ 52] =         0.000716359780;
  BAS[ATNO][  0].a[ 53] =         4.798113940000;     BAS[ATNO][  0].d[ 53] =        -0.002326143947;
  BAS[ATNO][  0].a[ 54] =         2.133543170000;     BAS[ATNO][  0].d[ 54] =        -0.001979813142;
  BAS[ATNO][  0].a[ 55] =         0.857316380000;     BAS[ATNO][  0].d[ 55] =        -0.000107804767;
  BAS[ATNO][  0].a[ 56] =         0.378404470000;     BAS[ATNO][  0].d[ 56] =        -0.000020001619;
  BAS[ATNO][  0].a[ 57] =         0.152386050000;     BAS[ATNO][  0].d[ 57] =         0.000008271779;
  BAS[ATNO][  0].a[ 58] =         0.060954420000;     BAS[ATNO][  0].d[ 58] =        -0.000002758717;
  BAS[ATNO][  0].a[ 59] =  18535881.300000000745;     BAS[ATNO][  0].d[ 59] =        -0.000000006214;
  BAS[ATNO][  0].a[ 60] =   2419299.990000000224;     BAS[ATNO][  0].d[ 60] =        -0.000000020073;
  BAS[ATNO][  0].a[ 61] =    474949.065000000002;     BAS[ATNO][  0].d[ 61] =        -0.000000058790;
  BAS[ATNO][  0].a[ 62] =    117392.346000000005;     BAS[ATNO][  0].d[ 62] =        -0.000000157629;
  BAS[ATNO][  0].a[ 63] =     34065.440100000000;     BAS[ATNO][  0].d[ 63] =        -0.000000412646;
  BAS[ATNO][  0].a[ 64] =     11133.885300000000;     BAS[ATNO][  0].d[ 64] =        -0.000001084997;
  BAS[ATNO][  0].a[ 65] =      3988.280760000000;     BAS[ATNO][  0].d[ 65] =        -0.000002879503;
  BAS[ATNO][  0].a[ 66] =      1534.678610000000;     BAS[ATNO][  0].d[ 66] =        -0.000007404645;
  BAS[ATNO][  0].a[ 67] =       624.475513000000;     BAS[ATNO][  0].d[ 67] =        -0.000017127979;
  BAS[ATNO][  0].a[ 68] =       265.735250000000;     BAS[ATNO][  0].d[ 68] =        -0.000030978582;
  BAS[ATNO][  0].a[ 69] =       116.709586000000;     BAS[ATNO][  0].d[ 69] =        -0.000026814479;
  BAS[ATNO][  0].a[ 70] =        50.306071000000;     BAS[ATNO][  0].d[ 70] =         0.000057876536;
  BAS[ATNO][  0].a[ 71] =        23.036081700000;     BAS[ATNO][  0].d[ 71] =         0.000207439999;
  BAS[ATNO][  0].a[ 72] =        10.586238100000;     BAS[ATNO][  0].d[ 72] =         0.000086244426;
  BAS[ATNO][  0].a[ 73] =         4.798113940000;     BAS[ATNO][  0].d[ 73] =        -0.000358648488;
  BAS[ATNO][  0].a[ 74] =         2.133543170000;     BAS[ATNO][  0].d[ 74] =        -0.000559224970;
  BAS[ATNO][  0].a[ 75] =         0.857316380000;     BAS[ATNO][  0].d[ 75] =         0.000229099636;
  BAS[ATNO][  0].a[ 76] =         0.378404470000;     BAS[ATNO][  0].d[ 76] =         0.000839517832;
  BAS[ATNO][  0].a[ 77] =         0.152386050000;     BAS[ATNO][  0].d[ 77] =         0.000317309056;
  BAS[ATNO][  0].a[ 78] =  18535881.300000000745;     BAS[ATNO][  0].d[ 78] =        -0.000000008140;
  BAS[ATNO][  0].a[ 79] =   2419299.990000000224;     BAS[ATNO][  0].d[ 79] =        -0.000000026312;
  BAS[ATNO][  0].a[ 80] =    474949.065000000002;     BAS[ATNO][  0].d[ 80] =        -0.000000076909;
  BAS[ATNO][  0].a[ 81] =    117392.346000000005;     BAS[ATNO][  0].d[ 81] =        -0.000000207276;
  BAS[ATNO][  0].a[ 82] =     34065.440100000000;     BAS[ATNO][  0].d[ 82] =        -0.000000537232;
  BAS[ATNO][  0].a[ 83] =     11133.885300000000;     BAS[ATNO][  0].d[ 83] =        -0.000001437228;
  BAS[ATNO][  0].a[ 84] =      3988.280760000000;     BAS[ATNO][  0].d[ 84] =        -0.000003716181;
  BAS[ATNO][  0].a[ 85] =      1534.678610000000;     BAS[ATNO][  0].d[ 85] =        -0.000009918369;
  BAS[ATNO][  0].a[ 86] =       624.475513000000;     BAS[ATNO][  0].d[ 86] =        -0.000021828437;
  BAS[ATNO][  0].a[ 87] =       265.735250000000;     BAS[ATNO][  0].d[ 87] =        -0.000042773712;
  BAS[ATNO][  0].a[ 88] =       116.709586000000;     BAS[ATNO][  0].d[ 88] =        -0.000029987382;
  BAS[ATNO][  0].a[ 89] =        50.306071000000;     BAS[ATNO][  0].d[ 89] =         0.000063608363;
  BAS[ATNO][  0].a[ 90] =        23.036081700000;     BAS[ATNO][  0].d[ 90] =         0.000321702057;
  BAS[ATNO][  0].a[ 91] =        10.586238100000;     BAS[ATNO][  0].d[ 91] =         0.000017940243;
  BAS[ATNO][  0].a[ 92] =         4.798113940000;     BAS[ATNO][  0].d[ 92] =        -0.000365470465;
  BAS[ATNO][  0].a[ 93] =         2.133543170000;     BAS[ATNO][  0].d[ 93] =        -0.001339204328;
  BAS[ATNO][  0].a[ 94] =         0.857316380000;     BAS[ATNO][  0].d[ 94] =         0.002246358511;
  BAS[ATNO][  0].a[ 95] =         0.378404470000;     BAS[ATNO][  0].d[ 95] =         0.000460847403;
  BAS[ATNO][  0].a[ 96] =         0.152386050000;     BAS[ATNO][  0].d[ 96] =        -0.001655970553;
  BAS[ATNO][  0].a[ 97] =         0.060954420000;     BAS[ATNO][  0].d[ 97] =        -0.000038174467;

  // Basis function   2 L = s
  InitBFNGauss(BAS[ATNO][  1]);
  BAS[ATNO][  1].l  = 0;
  BAS[ATNO][  1].ng = 98;
  BAS[ATNO][  1].a[  0] =  18535881.300000000745;     BAS[ATNO][  1].d[  0] =        -0.000001089831;
  BAS[ATNO][  1].a[  1] =   2419299.990000000224;     BAS[ATNO][  1].d[  1] =        -0.000003516561;
  BAS[ATNO][  1].a[  2] =    474949.065000000002;     BAS[ATNO][  1].d[  2] =        -0.000010277703;
  BAS[ATNO][  1].a[  3] =    117392.346000000005;     BAS[ATNO][  1].d[  3] =        -0.000027445238;
  BAS[ATNO][  1].a[  4] =     34065.440100000000;     BAS[ATNO][  1].d[  4] =        -0.000071261346;
  BAS[ATNO][  1].a[  5] =     11133.885300000000;     BAS[ATNO][  1].d[  5] =        -0.000184627568;
  BAS[ATNO][  1].a[  6] =      3988.280760000000;     BAS[ATNO][  1].d[  6] =        -0.000474894475;
  BAS[ATNO][  1].a[  7] =      1534.678610000000;     BAS[ATNO][  1].d[  7] =        -0.001143578049;
[...]
  BAS[ATNO][  7].a[ 21] =        64.114040700000;     BAS[ATNO][  7].d[ 21] =        -0.028133543195;
  BAS[ATNO][  7].a[ 22] =        31.107038200000;     BAS[ATNO][  7].d[ 22] =        -0.034224822803;
  BAS[ATNO][  7].a[ 23] =        15.366235600000;     BAS[ATNO][  7].d[ 23] =         0.000765079594;
  BAS[ATNO][  7].a[ 24] =         7.391254080000;     BAS[ATNO][  7].d[ 24] =         0.071111539672;
  BAS[ATNO][  7].a[ 25] =         3.530697220000;     BAS[ATNO][  7].d[ 25] =         0.095315647924;
  BAS[ATNO][  7].a[ 26] =         1.678108190000;     BAS[ATNO][  7].d[ 26] =         0.040264759442;
  BAS[ATNO][  7].a[ 27] =         0.683391650000;     BAS[ATNO][  7].d[ 27] =         0.003119737388;
  BAS[ATNO][  7].a[ 28] =         0.276466560000;     BAS[ATNO][  7].d[ 28] =         0.000027438943;
  BAS[ATNO][  7].a[ 29] =         0.105540690000;     BAS[ATNO][  7].d[ 29] =         0.000087775601;
  BAS[ATNO][  7].a[ 30] =         0.042216280000;     BAS[ATNO][  7].d[ 30] =        -0.000013777884;
  BAS[ATNO][  7].a[ 31] =    178109.355000000010;     BAS[ATNO][  7].d[ 31] =         0.000004050812;
  BAS[ATNO][  7].a[ 32] =     27138.037499999999;     BAS[ATNO][  7].d[ 32] =         0.000021023000;
  BAS[ATNO][  7].a[ 33] =      6512.317450000000;     BAS[ATNO][  7].d[ 33] =         0.000101183094;
  BAS[ATNO][  7].a[ 34] =      2033.629170000000;     BAS[ATNO][  7].d[ 34] =         0.000448308331;
  BAS[ATNO][  7].a[ 35] =       749.824546000000;     BAS[ATNO][  7].d[ 35] =         0.001801208114;
  BAS[ATNO][  7].a[ 36] =       308.463093000000;     BAS[ATNO][  7].d[ 36] =         0.006078048827;
  BAS[ATNO][  7].a[ 37] =       137.031449000000;     BAS[ATNO][  7].d[ 37] =         0.016791716624;
  BAS[ATNO][  7].a[ 38] =        64.114040700000;     BAS[ATNO][  7].d[ 38] =         0.033247207945;
  BAS[ATNO][  7].a[ 39] =        31.107038200000;     BAS[ATNO][  7].d[ 39] =         0.041544966853;
  BAS[ATNO][  7].a[ 40] =        15.366235600000;     BAS[ATNO][  7].d[ 40] =        -0.007147922910;
  BAS[ATNO][  7].a[ 41] =         7.391254080000;     BAS[ATNO][  7].d[ 41] =        -0.102352534522;
  BAS[ATNO][  7].a[ 42] =         3.530697220000;     BAS[ATNO][  7].d[ 42] =        -0.165411101027;
  BAS[ATNO][  7].a[ 43] =         1.678108190000;     BAS[ATNO][  7].d[ 43] =        -0.028978849362;
  BAS[ATNO][  7].a[ 44] =         0.683391650000;     BAS[ATNO][  7].d[ 44] =         0.322695084583;
  BAS[ATNO][  7].a[ 45] =         0.276466560000;     BAS[ATNO][  7].d[ 45] =         0.434575722903;
  BAS[ATNO][  7].a[ 46] =         0.105540690000;     BAS[ATNO][  7].d[ 46] =         0.160081033402;
  BAS[ATNO][  7].a[ 47] =         0.042216280000;     BAS[ATNO][  7].d[ 47] =         0.000868736614;
  BAS[ATNO][  7].a[ 48] =    178109.355000000010;     BAS[ATNO][  7].d[ 48] =         0.000003420064;
  BAS[ATNO][  7].a[ 49] =     27138.037499999999;     BAS[ATNO][  7].d[ 49] =         0.000017622026;
  BAS[ATNO][  7].a[ 50] =      6512.317450000000;     BAS[ATNO][  7].d[ 50] =         0.000085988532;
  BAS[ATNO][  7].a[ 51] =      2033.629170000000;     BAS[ATNO][  7].d[ 51] =         0.000373795638;
  BAS[ATNO][  7].a[ 52] =       749.824546000000;     BAS[ATNO][  7].d[ 52] =         0.001536820386;
  BAS[ATNO][  7].a[ 53] =       308.463093000000;     BAS[ATNO][  7].d[ 53] =         0.005059509803;
  BAS[ATNO][  7].a[ 54] =       137.031449000000;     BAS[ATNO][  7].d[ 54] =         0.014424666082;
  BAS[ATNO][  7].a[ 55] =        64.114040700000;     BAS[ATNO][  7].d[ 55] =         0.027439651220;
  BAS[ATNO][  7].a[ 56] =        31.107038200000;     BAS[ATNO][  7].d[ 56] =         0.036853882523;
  BAS[ATNO][  7].a[ 57] =        15.366235600000;     BAS[ATNO][  7].d[ 57] =        -0.010586420664;
  BAS[ATNO][  7].a[ 58] =         7.391254080000;     BAS[ATNO][  7].d[ 58] =        -0.086530757049;
  BAS[ATNO][  7].a[ 59] =         3.530697220000;     BAS[ATNO][  7].d[ 59] =        -0.156311436161;
  BAS[ATNO][  7].a[ 60] =         1.678108190000;     BAS[ATNO][  7].d[ 60] =        -0.016006637113;
  BAS[ATNO][  7].a[ 61] =         0.683391650000;     BAS[ATNO][  7].d[ 61] =         0.620635955906;
  BAS[ATNO][  7].a[ 62] =         0.276466560000;     BAS[ATNO][  7].d[ 62] =        -0.128505675753;
  BAS[ATNO][  7].a[ 63] =         0.105540690000;     BAS[ATNO][  7].d[ 63] =        -0.471430184459;
  BAS[ATNO][  7].a[ 64] =         0.042216280000;     BAS[ATNO][  7].d[ 64] =        -0.020994157461;

  // Basis function   9 L = p
  InitBFNGauss(BAS[ATNO][  8]);
  BAS[ATNO][  8].l  = 1;
  BAS[ATNO][  8].ng = 64;
  BAS[ATNO][  8].a[  0] =    178109.355000000010;     BAS[ATNO][  8].d[  0] =        -0.000000107906;
  BAS[ATNO][  8].a[  1] =     27138.037499999999;     BAS[ATNO][  8].d[  1] =        -0.000000560817;
  BAS[ATNO][  8].a[  2] =      6512.317450000000;     BAS[ATNO][  8].d[  2] =        -0.000002679684;
  BAS[ATNO][  8].a[  3] =      2033.629170000000;     BAS[ATNO][  8].d[  3] =        -0.000011886686;
  BAS[ATNO][  8].a[  4] =       749.824546000000;     BAS[ATNO][  8].d[  4] =        -0.000046858482;
  BAS[ATNO][  8].a[  5] =       308.463093000000;     BAS[ATNO][  8].d[  5] =        -0.000155654135;
  BAS[ATNO][  8].a[  6] =       137.031449000000;     BAS[ATNO][  8].d[  6] =        -0.000407338553;
  BAS[ATNO][  8].a[  7] =        64.114040700000;     BAS[ATNO][  8].d[  7] =        -0.000768748323;
  BAS[ATNO][  8].a[  8] =        31.107038200000;     BAS[ATNO][  8].d[  8] =        -0.000896005831;
  BAS[ATNO][  8].a[  9] =        15.366235600000;     BAS[ATNO][  8].d[  9] =        -0.000483339340;
  BAS[ATNO][  8].a[ 10] =         7.391254080000;     BAS[ATNO][  8].d[ 10] =        -0.000080734561;
  BAS[ATNO][  8].a[ 11] =         3.530697220000;     BAS[ATNO][  8].d[ 11] =        -0.000003051540;
  BAS[ATNO][  8].a[ 12] =         1.678108190000;     BAS[ATNO][  8].d[ 12] =        -0.000001080183;
  BAS[ATNO][  8].a[ 13] =         0.683391650000;     BAS[ATNO][  8].d[ 13] =         0.000000170237;
  BAS[ATNO][  8].a[ 14] =    178109.355000000010;     BAS[ATNO][  8].d[ 14] =        -0.000000407904;
  BAS[ATNO][  8].a[ 15] =     27138.037499999999;     BAS[ATNO][  8].d[ 15] =        -0.000002121812;
  BAS[ATNO][  8].a[ 16] =      6512.317450000000;     BAS[ATNO][  8].d[ 16] =        -0.000010170101;
  BAS[ATNO][  8].a[ 17] =      2033.629170000000;     BAS[ATNO][  8].d[ 17] =        -0.000045274259;
  BAS[ATNO][  8].a[ 18] =       749.824546000000;     BAS[ATNO][  8].d[ 18] =        -0.000180505920;
  BAS[ATNO][  8].a[ 19] =       308.463093000000;     BAS[ATNO][  8].d[ 19] =        -0.000611706115;
  BAS[ATNO][  8].a[ 20] =       137.031449000000;     BAS[ATNO][  8].d[ 20] =        -0.001667113946;
  BAS[ATNO][  8].a[ 21] =        64.114040700000;     BAS[ATNO][  8].d[ 21] =        -0.003311726840;
  BAS[ATNO][  8].a[ 22] =        31.107038200000;     BAS[ATNO][  8].d[ 22] =        -0.004028758962;
  BAS[ATNO][  8].a[ 23] =        15.366235600000;     BAS[ATNO][  8].d[ 23] =         0.000090060986;
  BAS[ATNO][  8].a[ 24] =         7.391254080000;     BAS[ATNO][  8].d[ 24] =         0.008370861536;
  BAS[ATNO][  8].a[ 25] =         3.530697220000;     BAS[ATNO][  8].d[ 25] =         0.011220036785;
  BAS[ATNO][  8].a[ 26] =         1.678108190000;     BAS[ATNO][  8].d[ 26] =         0.004739747270;
  BAS[ATNO][  8].a[ 27] =         0.683391650000;     BAS[ATNO][  8].d[ 27] =         0.000367238423;
  BAS[ATNO][  8].a[ 28] =         0.276466560000;     BAS[ATNO][  8].d[ 28] =         0.000003229962;
  BAS[ATNO][  8].a[ 29] =         0.105540690000;     BAS[ATNO][  8].d[ 29] =         0.000010332464;
  BAS[ATNO][  8].a[ 30] =    178109.355000000010;     BAS[ATNO][  8].d[ 30] =        -0.000003033114;
  BAS[ATNO][  8].a[ 31] =     27138.037499999999;     BAS[ATNO][  8].d[ 31] =        -0.000015741328;
  BAS[ATNO][  8].a[ 32] =      6512.317450000000;     BAS[ATNO][  8].d[ 32] =        -0.000075762561;
  BAS[ATNO][  8].a[ 33] =      2033.629170000000;     BAS[ATNO][  8].d[ 33] =        -0.000335678479;
  BAS[ATNO][  8].a[ 34] =       749.824546000000;     BAS[ATNO][  8].d[ 34] =        -0.001348685175;
  BAS[ATNO][  8].a[ 35] =       308.463093000000;     BAS[ATNO][  8].d[ 35] =        -0.004551042316;
  BAS[ATNO][  8].a[ 36] =       137.031449000000;     BAS[ATNO][  8].d[ 36] =        -0.012573083088;
  BAS[ATNO][  8].a[ 37] =        64.114040700000;     BAS[ATNO][  8].d[ 37] =        -0.024894411768;
  BAS[ATNO][  8].a[ 38] =        31.107038200000;     BAS[ATNO][  8].d[ 38] =        -0.031107499716;
  BAS[ATNO][  8].a[ 39] =        15.366235600000;     BAS[ATNO][  8].d[ 39] =         0.005352128711;
  BAS[ATNO][  8].a[ 40] =         7.391254080000;     BAS[ATNO][  8].d[ 40] =         0.076638199035;
  BAS[ATNO][  8].a[ 41] =         3.530697220000;     BAS[ATNO][  8].d[ 41] =         0.123854371974;
  BAS[ATNO][  8].a[ 42] =         1.678108190000;     BAS[ATNO][  8].d[ 42] =         0.021698405766;
  BAS[ATNO][  8].a[ 43] =         0.683391650000;     BAS[ATNO][  8].d[ 43] =        -0.241623426674;
  BAS[ATNO][  8].a[ 44] =         0.276466560000;     BAS[ATNO][  8].d[ 44] =        -0.325395955296;
  BAS[ATNO][  8].a[ 45] =         0.105540690000;     BAS[ATNO][  8].d[ 45] =        -0.119863393290;
  BAS[ATNO][  8].a[ 46] =         0.042216280000;     BAS[ATNO][  8].d[ 46] =        -0.000650481298;
  BAS[ATNO][  8].a[ 47] =    178109.355000000010;     BAS[ATNO][  8].d[ 47] =         0.000004746415;
  BAS[ATNO][  8].a[ 48] =     27138.037499999999;     BAS[ATNO][  8].d[ 48] =         0.000024456107;
  BAS[ATNO][  8].a[ 49] =      6512.317450000000;     BAS[ATNO][  8].d[ 49] =         0.000119336147;
  BAS[ATNO][  8].a[ 50] =      2033.629170000000;     BAS[ATNO][  8].d[ 50] =         0.000518759073;
  BAS[ATNO][  8].a[ 51] =       749.824546000000;     BAS[ATNO][  8].d[ 51] =         0.002132821891;
  BAS[ATNO][  8].a[ 52] =       308.463093000000;     BAS[ATNO][  8].d[ 52] =         0.007021661974;
  BAS[ATNO][  8].a[ 53] =       137.031449000000;     BAS[ATNO][  8].d[ 53] =         0.020018763333;
  BAS[ATNO][  8].a[ 54] =        64.114040700000;     BAS[ATNO][  8].d[ 54] =         0.038081150757;
  BAS[ATNO][  8].a[ 55] =        31.107038200000;     BAS[ATNO][  8].d[ 55] =         0.051146359155;
  BAS[ATNO][  8].a[ 56] =        15.366235600000;     BAS[ATNO][  8].d[ 56] =        -0.014691989999;
  BAS[ATNO][  8].a[ 57] =         7.391254080000;     BAS[ATNO][  8].d[ 57] =        -0.120088654843;
  BAS[ATNO][  8].a[ 58] =         3.530697220000;     BAS[ATNO][  8].d[ 58] =        -0.216931305645;
  BAS[ATNO][  8].a[ 59] =         1.678108190000;     BAS[ATNO][  8].d[ 59] =        -0.022214245952;
  BAS[ATNO][  8].a[ 60] =         0.683391650000;     BAS[ATNO][  8].d[ 60] =         0.861327690102;
  BAS[ATNO][  8].a[ 61] =         0.276466560000;     BAS[ATNO][  8].d[ 61] =        -0.178342063182;
  BAS[ATNO][  8].a[ 62] =         0.105540690000;     BAS[ATNO][  8].d[ 62] =        -0.654257730253;
  BAS[ATNO][  8].a[ 63] =         0.042216280000;     BAS[ATNO][  8].d[ 63] =        -0.029135999903;

  // Basis function  10 L = d
  InitBFNGauss(BAS[ATNO][  9]);
  BAS[ATNO][  9].l  = 2;
  BAS[ATNO][  9].ng = 22;
  BAS[ATNO][  9].a[  0] =       624.475513000000;     BAS[ATNO][  9].d[  0] =         0.000644415558;
  BAS[ATNO][  9].a[  1] =       265.735250000000;     BAS[ATNO][  9].d[  1] =         0.002247006284;
  BAS[ATNO][  9].a[  2] =       116.709586000000;     BAS[ATNO][  9].d[  2] =         0.013436974231;
  BAS[ATNO][  9].a[  3] =        50.306071000000;     BAS[ATNO][  9].d[  3] =         0.051625775771;
  BAS[ATNO][  9].a[  4] =        23.036081700000;     BAS[ATNO][  9].d[  4] =         0.147559379741;
  BAS[ATNO][  9].a[  5] =        10.586238100000;     BAS[ATNO][  9].d[  5] =         0.299361198853;
  BAS[ATNO][  9].a[  6] =         4.798113940000;     BAS[ATNO][  9].d[  6] =         0.382428885464;
  BAS[ATNO][  9].a[  7] =         2.133543170000;     BAS[ATNO][  9].d[  7] =         0.288649254464;
  BAS[ATNO][  9].a[  8] =         0.857316380000;     BAS[ATNO][  9].d[  8] =         0.082787798499;
  BAS[ATNO][  9].a[  9] =         0.342926550000;     BAS[ATNO][  9].d[  9] =         0.000347118797;
  BAS[ATNO][  9].a[ 10] =         0.137170620000;     BAS[ATNO][  9].d[ 10] =         0.001642097619;
  BAS[ATNO][  9].a[ 11] =       624.475513000000;     BAS[ATNO][  9].d[ 11] =         0.000032939612;
  BAS[ATNO][  9].a[ 12] =       265.735250000000;     BAS[ATNO][  9].d[ 12] =         0.000128706610;
  BAS[ATNO][  9].a[ 13] =       116.709586000000;     BAS[ATNO][  9].d[ 13] =         0.000698419838;
  BAS[ATNO][  9].a[ 14] =        50.306071000000;     BAS[ATNO][  9].d[ 14] =         0.002853751348;
  BAS[ATNO][  9].a[ 15] =        23.036081700000;     BAS[ATNO][  9].d[ 15] =         0.007780811609;
  BAS[ATNO][  9].a[ 16] =        10.586238100000;     BAS[ATNO][  9].d[ 16] =         0.017304151465;
  BAS[ATNO][  9].a[ 17] =         4.798113940000;     BAS[ATNO][  9].d[ 17] =         0.020268085925;
  BAS[ATNO][  9].a[ 18] =         2.133543170000;     BAS[ATNO][  9].d[ 18] =         0.019024780515;
  BAS[ATNO][  9].a[ 19] =         0.857316380000;     BAS[ATNO][  9].d[ 19] =        -0.076070779910;
  BAS[ATNO][  9].a[ 20] =         0.342926550000;     BAS[ATNO][  9].d[ 20] =        -0.104908744187;
  BAS[ATNO][  9].a[ 21] =         0.137170620000;     BAS[ATNO][  9].d[ 21] =        -0.016427069832;

  // Basis function  11 L = d
  InitBFNGauss(BAS[ATNO][ 10]);
  BAS[ATNO][ 10].l  = 2;
  BAS[ATNO][ 10].ng = 22;
  BAS[ATNO][ 10].a[  0] =       624.475513000000;     BAS[ATNO][ 10].d[  0] =         0.000112081729;
  BAS[ATNO][ 10].a[  1] =       265.735250000000;     BAS[ATNO][ 10].d[  1] =         0.000390816679;
  BAS[ATNO][ 10].a[  2] =       116.709586000000;     BAS[ATNO][ 10].d[  2] =         0.002337062287;
  BAS[ATNO][ 10].a[  3] =        50.306071000000;     BAS[ATNO][ 10].d[  3] =         0.008979153454;
  BAS[ATNO][ 10].a[  4] =        23.036081700000;     BAS[ATNO][ 10].d[  4] =         0.025664666428;
  BAS[ATNO][ 10].a[  5] =        10.586238100000;     BAS[ATNO][ 10].d[  5] =         0.052067210662;
  BAS[ATNO][ 10].a[  6] =         4.798113940000;     BAS[ATNO][ 10].d[  6] =         0.066514983969;
  BAS[ATNO][ 10].a[  7] =         2.133543170000;     BAS[ATNO][ 10].d[  7] =         0.050204106601;
  BAS[ATNO][ 10].a[  8] =         0.857316380000;     BAS[ATNO][ 10].d[  8] =         0.014399093006;
  BAS[ATNO][ 10].a[  9] =         0.342926550000;     BAS[ATNO][ 10].d[  9] =         0.000060373581;
  BAS[ATNO][ 10].a[ 10] =         0.137170620000;     BAS[ATNO][ 10].d[ 10] =         0.000285606294;
  BAS[ATNO][ 10].a[ 11] =       624.475513000000;     BAS[ATNO][ 10].d[ 11] =        -0.000189386787;
  BAS[ATNO][ 10].a[ 12] =       265.735250000000;     BAS[ATNO][ 10].d[ 12] =        -0.000740000571;
  BAS[ATNO][ 10].a[ 13] =       116.709586000000;     BAS[ATNO][ 10].d[ 13] =        -0.004015575249;
  BAS[ATNO][ 10].a[ 14] =        50.306071000000;     BAS[ATNO][ 10].d[ 14] =        -0.016407685828;
  BAS[ATNO][ 10].a[ 15] =        23.036081700000;     BAS[ATNO][ 10].d[ 15] =        -0.044735892091;
  BAS[ATNO][ 10].a[ 16] =        10.586238100000;     BAS[ATNO][ 10].d[ 16] =        -0.099490476254;
  BAS[ATNO][ 10].a[ 17] =         4.798113940000;     BAS[ATNO][ 10].d[ 17] =        -0.116531661525;
  BAS[ATNO][ 10].a[ 18] =         2.133543170000;     BAS[ATNO][ 10].d[ 18] =        -0.109383258575;
  BAS[ATNO][ 10].a[ 19] =         0.857316380000;     BAS[ATNO][ 10].d[ 19] =         0.437370080678;
  BAS[ATNO][ 10].a[ 20] =         0.342926550000;     BAS[ATNO][ 10].d[ 20] =         0.603174385273;
  BAS[ATNO][ 10].a[ 21] =         0.137170620000;     BAS[ATNO][ 10].d[ 21] =         0.094447682361;

  // Basis function  12 L = f
  InitBFNGauss(BAS[ATNO][ 11]);
  BAS[ATNO][ 11].l  = 3;
  BAS[ATNO][ 11].ng = 4;
  BAS[ATNO][ 11].a[  0] =         1.688892000000;     BAS[ATNO][ 11].d[  0] =         0.101187760149;
  BAS[ATNO][ 11].a[  1] =         0.675557000000;     BAS[ATNO][ 11].d[  1] =         0.759109881121;
  BAS[ATNO][ 11].a[  2] =         0.270223000000;     BAS[ATNO][ 11].d[  2] =         0.250714540370;
  BAS[ATNO][ 11].a[  3] =         0.108089000000;     BAS[ATNO][ 11].d[  3] =         0.004406980007;

-------
TIMINGS
-------

Total SCF time: 0 days 0 hours 0 min 15 sec 

Total time                  ....      15.731 sec
Sum of individual times     ....      15.374 sec  ( 97.7%)

Fock matrix formation       ....      14.643 sec  ( 93.1%)
  XC integration            ....       0.030 sec  (  0.2% of F)
    Basis function eval.    ....       0.014 sec  ( 47.3% of XC)
    Density eval.           ....       0.001 sec  (  3.4% of XC)
    XC-Functional eval.     ....       0.002 sec  (  5.7% of XC)
    XC-Potential eval.      ....       0.001 sec  (  3.4% of XC)
Diagonalization             ....       0.000 sec  (  0.0%)
Density matrix formation    ....       0.000 sec  (  0.0%)
Population analysis         ....       0.001 sec  (  0.0%)
Initial guess               ....       0.079 sec  (  0.5%)
Orbital Transformation      ....       0.000 sec  (  0.0%)
Orbital Orthonormalization  ....       0.000 sec  (  0.0%)
DIIS solution               ....       0.000 sec  (  0.0%)
SOSCF solution              ....       0.001 sec  (  0.0%)
Grid generation             ....       0.651 sec  (  4.1%)

-------------------------   --------------------
FINAL SINGLE POINT ENERGY     -1266.824625809059
-------------------------   --------------------


                            ***************************************
                            *     ORCA property calculations      *
                            ***************************************

                                    ---------------------
                                    Active property flags
                                    ---------------------
   (+) Dipole Moment


------------------------------------------------------------------------------
                       ORCA ELECTRIC PROPERTIES CALCULATION
------------------------------------------------------------------------------

Dipole Moment Calculation                       ... on
Quadrupole Moment Calculation                   ... off
Polarizability Calculation                      ... off
GBWName                                         ... Kr_ano-rcc-dzp_274.071978_.gbw
Electron density file                           ... Kr_ano-rcc-dzp_274.071978_.scfp
The origin for moment calculation is the CENTER OF MASS  = ( 0.000000,  0.000000  0.000000)

-------------
DIPOLE MOMENT
-------------
                                X             Y             Z
Electronic contribution:      0.00000       0.00000      -0.00000
Nuclear contribution   :      0.00000       0.00000       0.00000
                        -----------------------------------------
Total Dipole Moment    :      0.00000       0.00000      -0.00000
                        -----------------------------------------
Magnitude (a.u.)       :      0.00000
Magnitude (Debye)      :      0.00000



--------------------
Rotational spectrum 
--------------------
 
Rotational constants in cm-1:     0.000000     0.000000     0.000000 
Rotational constants in MHz :     0.000000     0.000000     0.000000 

 Dipole components along the rotational axes: 
x,y,z [a.u.] :     0.000000     0.000000    -0.000000 
x,y,z [Debye]:     0.000000     0.000000    -0.000000 

 

Timings for individual modules:

Sum of individual times         ...       17.259 sec (=   0.288 min)
GTO integral calculation        ...        0.735 sec (=   0.012 min)   4.3 %
Relativistic integrals          ...        0.464 sec (=   0.008 min)   2.7 %
SCF iterations                  ...       16.060 sec (=   0.268 min)  93.1 %
                             ****ORCA TERMINATED NORMALLY****
TOTAL RUN TIME: 0 days 0 hours 0 minutes 17 seconds 663 msec
