
                                 *****************
                                 * O   R   C   A *
                                 *****************

           --- An Ab Initio, DFT and Semiempirical electronic structure package ---

                  #######################################################
                  #                        -***-                        #
                  #          Department of theory and spectroscopy      #
                  #               Directorship: Frank Neese             #
                  #        Max Planck Institute fuer Kohlenforschung    #
                  #                Kaiser Wilhelm Platz 1               #
                  #                 D-45470 Muelheim/Ruhr               #
                  #                      Germany                        #
                  #                                                     #
                  #                  All rights reserved                #
                  #                        -***-                        #
                  #######################################################


                         Program Version 4.2.1 -  RELEASE  -


 With contributions from (in alphabetic order):
   Daniel Aravena         : Magnetic Suceptibility
   Michael Atanasov       : Ab Initio Ligand Field Theory (pilot matlab implementation)
   Alexander A. Auer      : GIAO ZORA, VPT2
   Ute Becker             : Parallelization
   Giovanni Bistoni       : ED, misc. LED, open-shell LED, HFLD
   Martin Brehm           : Molecular dynamics
   Dmytro Bykov           : SCF Hessian
   Vijay G. Chilkuri      : MRCI spin determinant printing, contributions to CSF-ICE
   Dipayan Datta          : RHF DLPNO-CCSD density
   Achintya Kumar Dutta   : EOM-CC, STEOM-CC
   Dmitry Ganyushin       : Spin-Orbit,Spin-Spin,Magnetic field MRCI
   Miquel Garcia          : C-PCM Hessian, Gaussian charge scheme
   Yang Guo               : DLPNO-NEVPT2, CIM, IAO-localization
   Andreas Hansen         : Spin unrestricted coupled pair/coupled cluster methods
   Benjamin Helmich-Paris : CASSCF linear response (MC-RPA)
   Lee Huntington         : MR-EOM, pCC
   Robert Izsak           : Overlap fitted RIJCOSX, COSX-SCS-MP3, EOM
   Christian Kollmar      : KDIIS, OOCD, Brueckner-CCSD(T), CCSD density
   Simone Kossmann        : Meta GGA functionals, TD-DFT gradient, OOMP2, MP2 Hessian
   Martin Krupicka        : AUTO-CI
   Lucas Lang             : DCDCAS
   Dagmar Lenk            : GEPOL surface, SMD
   Dimitrios Liakos       : Extrapolation schemes; Compound Job, initial MDCI parallelization
   Dimitrios Manganas     : Further ROCIS development; embedding schemes
   Dimitrios Pantazis     : SARC Basis sets
   Taras Petrenko         : DFT Hessian,TD-DFT gradient, ASA, ECA, R-Raman, ABS, FL, XAS/XES, NRVS
   Peter Pinski           : DLPNO-MP2, DLPNO-MP2 Gradient
   Christoph Reimann      : Effective Core Potentials
   Marius Retegan         : Local ZFS, SOC
   Christoph Riplinger    : Optimizer, TS searches, QM/MM, DLPNO-CCSD(T), (RO)-DLPNO pert. Triples
   Tobias Risthaus        : Range-separated hybrids, TD-DFT gradient, RPA, STAB
   Michael Roemelt        : Original ROCIS implementation
   Masaaki Saitow         : Open-shell DLPNO-CCSD energy and density
   Barbara Sandhoefer     : DKH picture change effects
   Avijit Sen             : IP-ROCIS
   Kantharuban Sivalingam : CASSCF convergence, NEVPT2, FIC-MRCI
   Bernardo de Souza      : ESD, SOC TD-DFT
   Georgi Stoychev        : AutoAux, RI-MP2 NMR
   Willem Van den Heuvel  : Paramagnetic NMR
   Boris Wezisla          : Elementary symmetry handling
   Frank Wennmohs         : Technical directorship


 We gratefully acknowledge several colleagues who have allowed us to
 interface, adapt or use parts of their codes:
   Stefan Grimme, W. Hujo, H. Kruse,             : VdW corrections, initial TS optimization,
                  C. Bannwarth                     DFT functionals, gCP, sTDA/sTD-DF
   Ed Valeev, F. Pavosevic, A. Kumar             : LibInt (2-el integral package), F12 methods
   Garnet Chan, S. Sharma, J. Yang, R. Olivares  : DMRG
   Ulf Ekstrom                                   : XCFun DFT Library
   Mihaly Kallay                                 : mrcc  (arbitrary order and MRCC methods)
   Andreas Klamt, Michael Diedenhofen            : otool_cosmo (COSMO solvation model)
   Jiri Pittner, Ondrej Demel                    : Mk-CCSD
   Frank Weinhold                                : gennbo (NPA and NBO analysis)
   Christopher J. Cramer and Donald G. Truhlar   : smd solvation model
   Lars Goerigk                                  : TD-DFT with DH, B97 family of functionals
   V. Asgeirsson, H. Jonsson                     : NEB implementation
   FAccTs GmbH                                   : IRC, NEB, NEB-TS, Multilevel, MM, QM/MM, CI optimization
   S Lehtola, MJT Oliveira, MAL Marques          : LibXC Library


 Your calculation uses the libint2 library for the computation of 2-el integrals
 For citations please refer to: http://libint.valeyev.net

 Your ORCA version has been built with support for libXC version: 4.2.3
 For citations please refer to: https://tddft.org/programs/libxc/

 This ORCA versions uses:
   CBLAS   interface :  Fast vector & matrix operations
   LAPACKE interface :  Fast linear algebra routines
   SCALAPACK package :  Parallel linear algebra routines


----- Orbital basis set information -----
Your calculation utilizes the basis: ANO-RCC-QZP
   H, He:       P.-O. Widmark, P.-A. Malmqvist, and B. O. Roos, Theor. Chim. Acta 77, 291 (1990).
   s block:     B. O. Roos, V. Veryazov and P.-O. Widmark, Theor. Chem. Acc. 111, 345 (2004).
   p block:     B. O. Roos, R. Lindh, P.-A. Malmqvist, V. Veryazov, and P.-O. Widmark, J. Phys. Chem. A 108, 2851 (2004).
   d block:     B. O. Roos, R. Lindh, P.-A. Malmqvist, V. Veryazov, and P.-O. Widmark, J. Phys. Chem. A 109, 6575 (2005).
   actinides:   B. O. Roos, R. Lindh, P.-A. Malmqvist, V. Veryazov, and P.-O. Widmark, Chem. Phys. Letters 409, 295 (2005).
   lanthanides: B. O. Roos, R. Lindh, P.-A. Malmqvist, V. Veryazov, P.-O. Widmark and A. C. Borin, J. Phys. Chem. A 112, 11431 (2008).

================================================================================
                                        WARNINGS
                       Please study these warnings very carefully!
================================================================================


INFO   : the flag for use of LIBINT has been found!

================================================================================
                                       INPUT FILE
================================================================================
NAME = Kr_ano-rcc-qzp_4385.151648_.inp
|  1> ! LDA ano-rcc-qzp nori grid5 finalgrid6 verytightscf
|  2> %Pal NProcs 18 End
|  3> 
|  4> % REL
|  5>   Method ZORA
|  6>   ModelPot 1, 0, 0, 0
|  7>   velit 4385.151648
|  8> END
|  9> 
| 10> *xyz 34 1
| 11> Kr 0.0 0.0 0.0
| 12> **                         ****END OF INPUT****
================================================================================

                       ****************************
                       * Single Point Calculation *
                       ****************************

---------------------------------
CARTESIAN COORDINATES (ANGSTROEM)
---------------------------------
  Kr     0.000000    0.000000    0.000000

----------------------------
CARTESIAN COORDINATES (A.U.)
----------------------------
  NO LB      ZA    FRAG     MASS         X           Y           Z
   0 Kr   36.0000    0    83.800    0.000000    0.000000    0.000000

--------------------------------
INTERNAL COORDINATES (ANGSTROEM)
--------------------------------
 Kr     0   0   0     0.000000000000     0.00000000     0.00000000

---------------------------
INTERNAL COORDINATES (A.U.)
---------------------------
 Kr     0   0   0     0.000000000000     0.00000000     0.00000000

---------------------
BASIS SET INFORMATION
---------------------
There are 1 groups of distinct atoms

 Group   1 Type Kr  : 140s102p44d12f4g contracted to 7s6p4d3f2g pattern {20202020202020/171717171717/11111111/444/22}

Atom   0Kr   basis set group =>   1


           ************************************************************
           *        Program running with 18 parallel MPI-processes    *
           *              working on a common directory               *
           ************************************************************


------------------------------------------------------------------------------
                       ORCA GTO INTEGRAL CALCULATION
                     -- ANO INTEGRAL GENERATION BRANCH --
------------------------------------------------------------------------------


Gathering ANO information                         ... done
Calculation Information:
Number of atoms                                   ... 1
Number of basis functions                         ... 84
Highest angular momentum                          ... 4
Number of primitive shells                        ... 54
Total number of shells                            ... 22
Maximum number of shells                          ... 22

Getting memory                                    ... done
Making prescreening integrals                     ... done
Gathering atom contracted prescreening            ... done
Making one-electron integrals                     ... done

Timings:

Total time                                        ...    0.6 sec
Prescreening matrix                               ...    0.5 sec
One-electron matrix                               ...    0.0 sec
Two-index integrals + Cholesky                    ...    0.0 sec


           ************************************************************
           *        Program running with 18 parallel MPI-processes    *
           *              working on a common directory               *
           ************************************************************
------------------------------------------------------------------------------
                          ORCA RELATIVISTIC HAMILTONIAN
------------------------------------------------------------------------------

Relativistic Method            ... ZORA(MP)
Treatment of potential         ... Van Wuellen
Nucleus model                  ... Point Nucleus
Speed of light used            ... 4385.15164800000002


            *************************************************
            *         ZERO ORDER REGULAR APPROXIMATION      *
            *                     ZORA(MP)                  *
            *            Programmed by FN according to      *
            *                   C. van Wuellen              *
            *       J. Chem. Phys. (1998) vol 109, 392-399  *
            *************************************************

Terms included in model potential: +V(e,N)
Basis function cutoff value   ... 1.000000e-12
Loading the fitted atomic densities  (DKH4)  ... done
Calculating the cutoffs                      ... done
Number of fit functions                      ... 27
Setting up the integration grid ... done


           ************************************************************
           *        Program running with 18 parallel MPI-processes    *
           *              working on a common directory               *
           ************************************************************
-------------------------------------------------------------------------------
                                 ORCA SCF
-------------------------------------------------------------------------------

------------
SCF SETTINGS
------------
Hamiltonian:
 Density Functional     Method          .... DFT(GTOs)
 Exchange Functional    Exchange        .... Slater
   X-Alpha parameter    XAlpha          ....  0.666667
 Correlation Functional Correlation     .... VWN-5
 Gradients option       PostSCFGGA      .... off
   Density functional embedding theory  .... OFF

Relativistic Settings:
 Scalar relativistic method             .... ZORA
 Speed of light used       Velit        ....       4385.15165
Orbital energies will be scaled


General Settings:
 Integral files         IntName         .... Kr_ano-rcc-qzp_4385.151648_
 Hartree-Fock type      HFTyp           .... RHF
 Total Charge           Charge          ....   34
 Multiplicity           Mult            ....    1
 Number of Electrons    NEL             ....    2
 Basis Dimension        Dim             ....   84
 Nuclear Repulsion      ENuc            ....      0.0000000000 Eh

Convergence Acceleration:
 DIIS                   CNVDIIS         .... on
   Start iteration      DIISMaxIt       ....    12
   Startup error        DIISStart       ....  0.200000
   # of expansion vecs  DIISMaxEq       ....     5
   Bias factor          DIISBfac        ....   1.050
   Max. coefficient     DIISMaxC        ....  10.000
 Newton-Raphson         CNVNR           .... off
 SOSCF                  CNVSOSCF        .... on
   Start iteration      SOSCFMaxIt      ....   150
   Startup grad/error   SOSCFStart      ....  0.003300
 Level Shifting         CNVShift        .... on
   Level shift para.    LevelShift      ....    0.2500
   Turn off err/grad.   ShiftErr        ....    0.0010
 Zerner damping         CNVZerner       .... off
 Static damping         CNVDamp         .... on
   Fraction old density DampFac         ....    0.7000
   Max. Damping (<1)    DampMax         ....    0.9800
   Min. Damping (>=0)   DampMin         ....    0.0000
   Turn off err/grad.   DampErr         ....    0.1000
 Fernandez-Rico         CNVRico         .... off

SCF Procedure:
 Maximum # iterations   MaxIter         ....   125
 SCF integral mode      SCFMode         .... Direct
   Integral package                     .... LIBINT
 Reset frequency        DirectResetFreq ....    20
 Integral Threshold     Thresh          ....  1.000e-12 Eh
 Primitive CutOff       TCut            ....  1.000e-14 Eh

Convergence Tolerance:
 Convergence Check Mode ConvCheckMode   .... Total+1el-Energy
 Convergence forced     ConvForced      .... 0
 Energy Change          TolE            ....  1.000e-09 Eh
 1-El. energy change                    ....  1.000e-06 Eh
 Orbital Gradient       TolG            ....  2.000e-06
 Orbital Rotation angle TolX            ....  2.000e-06
 DIIS Error             TolErr          ....  1.000e-08


Diagonalization of the overlap matrix:
Smallest eigenvalue                        ... 1.000e+00
Time for diagonalization                   ...    0.001 sec
Threshold for overlap eigenvalues          ... 1.000e-08
Number of eigenvalues below threshold      ... 0
Time for construction of square roots      ...    0.001 sec
Total time needed                          ...    0.003 sec

-------------------
DFT GRID GENERATION
-------------------

General Integration Accuracy     IntAcc      ...  5.010
Radial Grid Type                 RadialGrid  ... Gauss-Chebyshev
Angular Grid (max. acc.)         AngularGrid ... Lebedev-434
Angular grid pruning method      GridPruning ... 3 (G Style)
Weight generation scheme         WeightScheme... Becke
Basis function cutoff            BFCut       ...    1.0000e-12
Integration weight cutoff        WCut        ...    1.0000e-14
Grids for H and He will be reduced by one unit

# of grid points (after initial pruning)     ...  16106 (   0.0 sec)
# of grid points (after weights+screening)   ...  16106 (   0.0 sec)
Grid point division into batches done        ...    0.2 sec
Reduced shell lists constructed in    0.2 sec

Total number of grid points                  ...    16106
Total number of batches                      ...      252
Average number of points per batch           ...       63
Average number of grid points per atom       ...    16106
Average number of shells per batch           ...    16.53 (75.15%)
Average number of basis functions per batch  ...    57.07 (67.94%)
Average number of large shells per batch     ...     7.73 (46.77%)
Average number of large basis fcns per batch ...    25.33 (44.39%)
Maximum spatial batch extension              ...  17.34, 17.34, 17.34 au
Average spatial batch extension              ...   0.86,  0.87,  0.87 au

Time for grid setup =    0.255 sec

------------------------------
INITIAL GUESS: MODEL POTENTIAL
------------------------------
Loading ZORA relativistic densities                ... done
Calculating cut-offs                               ... done
Setting up the integral package                    ... done
Initializing the effective Hamiltonian             ... done
Starting the Coulomb interaction                   ... done (   0.0 sec)
Reading the grid                                   ... done
Mapping shells                                     ... done
Starting the XC term evaluation                    ... done (   0.0 sec)
  promolecular density results
     # of electrons  =     36.000000565
     EX              =    -91.042004939
     EC              =     -3.295965580
     EX+EC           =    -94.337970520
Transforming the Hamiltonian                       ... done (   0.0 sec)
Diagonalizing the Hamiltonian                      ... done (   0.0 sec)
Back transforming the eigenvectors                 ... done (   0.0 sec)
Now organizing SCF variables                       ... done
                      ------------------
                      INITIAL GUESS DONE (   0.3 sec)
                      ------------------
--------------
SCF ITERATIONS
--------------
ITER       Energy         Delta-E        Max-DP      RMS-DP      [F,P]     Damp
               ***  Starting incremental Fock matrix formation  ***
  0  -1249.2408040304   0.000000000000 0.00456116  0.00005879  6.9413576 0.7000
  1  -1249.2600279458  -0.019223915456 0.00318775  0.00004109  4.8483797 0.7000
  2  -1249.2734461651  -0.013418219306 0.00222615  0.00002869  3.3857534 0.7000
                      *** Initiating the SOSCF procedure ***
                      *** Re-Reading the Fockian *** 
                      *** Removing any level shift *** 
ITER      Energy       Delta-E        Grad      Rot      Max-DP    RMS-DP
  3  -1249.28282019  -0.0093740229  0.002874  0.002874  0.005182  0.000067
               *** Restarting incremental Fock matrix formation ***
  4  -1249.30463346  -0.0218132730  0.006659  0.000015  0.000028  0.000000
  5  -1249.30463369  -0.0000002249  0.000036  0.000000  0.000000  0.000000
                 **** Energy Check signals convergence ****
              ***Rediagonalizing the Fockian in SOSCF/NRSCF***

               *****************************************************
               *                     SUCCESS                       *
               *           SCF CONVERGED AFTER   6 CYCLES          *
               *****************************************************

Setting up the final grid:

General Integration Accuracy     IntAcc      ...  5.340
Radial Grid Type                 RadialGrid  ... Gauss-Chebyshev
Angular Grid (max. acc.)         AngularGrid ... Lebedev-590
Angular grid pruning method      GridPruning ... 3 (G Style)
Weight generation scheme         WeightScheme... Becke
Basis function cutoff            BFCut       ...    1.0000e-12
Integration weight cutoff        WCut        ...    1.0000e-14
Grids for H and He will be reduced by one unit

# of grid points (after initial pruning)     ...  24180 (   0.0 sec)
# of grid points (after weights+screening)   ...  24180 (   0.0 sec)
Grid point division into batches done        ...    0.4 sec
Reduced shell lists constructed in    0.4 sec

Total number of grid points                  ...    24180
Total number of batches                      ...      378
Average number of points per batch           ...       63
Average number of grid points per atom       ...    24180
Average number of shells per batch           ...    14.18 (64.46%)
Average number of basis functions per batch  ...    46.64 (55.52%)
Average number of large shells per batch     ...     5.73 (40.38%)
Average number of large basis fcns per batch ...    15.27 (32.75%)
Maximum spatial batch extension              ...  17.58, 17.58, 17.58 au
Average spatial batch extension              ...   0.77,  0.77,  0.77 au

Final grid set up in    0.4 sec
Final integration                            ... done (   0.0 sec)
Change in XC energy                          ...    -0.000014951
Integrated number of electrons               ...     2.000000075
Previous integrated no of electrons          ...     1.999999431

----------------
TOTAL SCF ENERGY
----------------

Total Energy       :        -1249.30464864 Eh          -33995.30778 eV

Components:
Nuclear Repulsion  :            0.00000000 Eh               0.00000 eV
Electronic Energy  :        -1249.30464864 Eh          -33995.30778 eV
One Electron Energy:        -1274.94739399 Eh          -34693.08235 eV
Two Electron Energy:           25.64274535 Eh             697.77458 eV

Virial components:
Potential Energy   :        -2672.57151969 Eh          -72724.36829 eV
Kinetic Energy     :         1423.26687105 Eh           38729.06051 eV
Virial Ratio       :            1.87777259


DFT components:
N(Alpha)           :        1.000000037452 electrons
N(Beta)            :        1.000000037452 electrons
N(Total)           :        2.000000074905 electrons
E(X)               :      -19.596452632371 Eh       
E(C)               :       -0.278840248634 Eh       
E(XC)              :      -19.875292881005 Eh       
DFET-embed. en.    :        0.000000000000 Eh       

---------------
SCF CONVERGENCE
---------------

  Last Energy change         ...   -5.2296e-12  Tolerance :   1.0000e-09
  Last MAX-Density change    ...    0.0000e+00  Tolerance :   1.0000e-08
  Last RMS-Density change    ...    0.0000e+00  Tolerance :   1.0000e-09
  Last Orbital Gradient      ...    1.4458e-11  Tolerance :   2.0000e-06
  Last Orbital Rotation      ...    0.0000e+00  Tolerance :   2.0000e-06

================================================================================
                                        WARNING
Number of found core electrons (2) does not match given number of chemical core electrons (18)
================================================================================
             **** THE GBW FILE WAS UPDATED (Kr_ano-rcc-qzp_4385.151648_.gbw) ****
             **** DENSITY FILE WAS UPDATED (Kr_ano-rcc-qzp_4385.151648_.scfp) ****
             **** ENERGY FILE WAS UPDATED (Kr_ano-rcc-qzp_4385.151648_.en.tmp) ****
             **** THE GBW FILE WAS UPDATED (Kr_ano-rcc-qzp_4385.151648_.gbw) ****
             **** DENSITY FILE WAS UPDATED (Kr_ano-rcc-qzp_4385.151648_.scfp) ****
----------------
ORBITAL ENERGIES
----------------

  NO   OCC          E(Eh)            E(eV) 
   0   2.0000    -605.169209    -16467.4914 
   1   0.0000    -147.411383     -4011.2677 
   2   0.0000    -146.729832     -3992.7217 
   3   0.0000    -146.729832     -3992.7217 
   4   0.0000    -146.729832     -3992.7217 
   5   0.0000     -62.824384     -1709.5384 
   6   0.0000     -61.392066     -1670.5630 
   7   0.0000     -61.392066     -1670.5630 
   8   0.0000     -61.392066     -1670.5630 
   9   0.0000     -56.941106     -1549.4463 
  10   0.0000     -56.941106     -1549.4463 
  11   0.0000     -56.941106     -1549.4463 
  12   0.0000     -56.941106     -1549.4463 
  13   0.0000     -56.941106     -1549.4463 
  14   0.0000     -32.054763      -872.2544 
  15   0.0000     -31.052505      -844.9816 
  16   0.0000     -31.052505      -844.9816 
  17   0.0000     -31.052505      -844.9816 
  18   0.0000     -24.548261      -667.9921 
  19   0.0000     -24.548261      -667.9921 
  20   0.0000     -24.548261      -667.9921 
  21   0.0000     -24.548261      -667.9921 
  22   0.0000     -24.548261      -667.9921 
  23   0.0000     -24.450601      -665.3347 
  24   0.0000     -24.450601      -665.3347 
  25   0.0000     -24.450601      -665.3347 
  26   0.0000     -24.450601      -665.3347 
  27   0.0000     -24.450601      -665.3347 
  28   0.0000     -24.450601      -665.3347 
  29   0.0000     -24.450601      -665.3347 
  30   0.0000     -18.898058      -514.2423 
  31   0.0000     -18.469642      -502.5845 
  32   0.0000     -18.469642      -502.5845 
  33   0.0000     -18.469642      -502.5845 
  34   0.0000     -15.768467      -429.0818 
  35   0.0000     -15.768467      -429.0818 
  36   0.0000     -15.768467      -429.0818 
  37   0.0000     -15.768467      -429.0818 
  38   0.0000     -15.768467      -429.0818 
  39   0.0000     -15.768467      -429.0818 
  40   0.0000     -15.768467      -429.0818 
  41   0.0000     -15.768467      -429.0818 
  42   0.0000     -15.768467      -429.0818 
  43   0.0000     -14.820542      -403.2874 
  44   0.0000     -14.820542      -403.2874 
  45   0.0000     -14.820542      -403.2874 
  46   0.0000     -14.820542      -403.2874 
  47   0.0000     -14.820542      -403.2874 
  48   0.0000     -14.820542      -403.2874 
  49   0.0000     -14.820542      -403.2874 
  50   0.0000     -14.345122      -390.3506 
  51   0.0000     -14.345122      -390.3506 
  52   0.0000     -14.345122      -390.3506 
  53   0.0000     -14.345122      -390.3506 
  54   0.0000     -14.345122      -390.3506 
  55   0.0000     -12.127597      -330.0087 
  56   0.0000     -11.869549      -322.9869 
  57   0.0000     -11.869549      -322.9869 
  58   0.0000     -11.869549      -322.9869 
  59   0.0000      -9.828235      -267.4399 
  60   0.0000      -9.828235      -267.4399 
  61   0.0000      -9.828235      -267.4399 
  62   0.0000      -9.828235      -267.4399 
  63   0.0000      -9.828235      -267.4399 
  64   0.0000      -9.828235      -267.4399 
  65   0.0000      -9.828235      -267.4399 
  66   0.0000      -9.828235      -267.4399 
  67   0.0000      -9.828235      -267.4399 
  68   0.0000      -9.657037      -262.7813 
  69   0.0000      -9.657037      -262.7813 
  70   0.0000      -9.657037      -262.7813 
  71   0.0000      -9.657037      -262.7813 
  72   0.0000      -9.657037      -262.7813 
  73   0.0000      -9.657037      -262.7813 
  74   0.0000      -9.657037      -262.7813 
  75   0.0000      -9.273143      -252.3350 
  76   0.0000      -9.273143      -252.3350 
  77   0.0000      -9.273143      -252.3350 
  78   0.0000      -9.273143      -252.3350 
  79   0.0000      -9.273143      -252.3350 
  80   0.0000      -7.946883      -216.2457 
  81   0.0000      -7.493637      -203.9122 
  82   0.0000      -7.493637      -203.9122 
  83   0.0000      -7.493637      -203.9122 

                    ********************************
                    * MULLIKEN POPULATION ANALYSIS *
                    ********************************

-----------------------
MULLIKEN ATOMIC CHARGES
-----------------------
   0 Kr:   34.000000
Sum of atomic charges:   34.0000000

--------------------------------
MULLIKEN REDUCED ORBITAL CHARGES
--------------------------------
  0 Krs       :     2.000000  s :     2.000000
      pz      :     0.000000  p :     0.000000
      px      :     0.000000
      py      :     0.000000
      dz2     :     0.000000  d :     0.000000
      dxz     :     0.000000
      dyz     :     0.000000
      dx2y2   :     0.000000
      dxy     :     0.000000
      f0      :     0.000000  f :     0.000000
      f+1     :     0.000000
      f-1     :     0.000000
      f+2     :     0.000000
      f-2     :     0.000000
      f+3     :     0.000000
      f-3     :     0.000000
      g0      :     0.000000  g :     0.000000
      g+1     :     0.000000
      g-1     :     0.000000
      g+2     :     0.000000
      g-2     :     0.000000
      g+3     :     0.000000
      g-3     :     0.000000
      g+4     :     0.000000
      g-4     :     0.000000


                     *******************************
                     * LOEWDIN POPULATION ANALYSIS *
                     *******************************

----------------------
LOEWDIN ATOMIC CHARGES
----------------------
   0 Kr:   34.000000

-------------------------------
LOEWDIN REDUCED ORBITAL CHARGES
-------------------------------
  0 Krs       :     2.000000  s :     2.000000
      pz      :     0.000000  p :     0.000000
      px      :     0.000000
      py      :     0.000000
      dz2     :     0.000000  d :     0.000000
      dxz     :     0.000000
      dyz     :     0.000000
      dx2y2   :     0.000000
      dxy     :     0.000000
      f0      :     0.000000  f :     0.000000
      f+1     :     0.000000
      f-1     :     0.000000
      f+2     :     0.000000
      f-2     :     0.000000
      f+3     :     0.000000
      f-3     :     0.000000
      g0      :     0.000000  g :     0.000000
      g+1     :     0.000000
      g-1     :     0.000000
      g+2     :     0.000000
      g-2     :     0.000000
      g+3     :     0.000000
      g-3     :     0.000000
      g+4     :     0.000000
      g-4     :     0.000000


                      *****************************
                      * MAYER POPULATION ANALYSIS *
                      *****************************

  NA   - Mulliken gross atomic population
  ZA   - Total nuclear charge
  QA   - Mulliken gross atomic charge
  VA   - Mayer's total valence
  BVA  - Mayer's bonded valence
  FA   - Mayer's free valence

  ATOM       NA         ZA         QA         VA         BVA        FA
  0 Kr     2.0000    36.0000    34.0000    -0.0000     0.0000    -0.0000

  Mayer bond orders larger than 0.100000


--------------------------
ATOM BASIS FOR ELEMENT Kr
--------------------------
 NewGTO Kr
 S 139
    1   18535881.300000000745         0.000137340680
    2    2419299.990000000224         0.000443157659
    3     474949.065000000002         0.001295197798
    4     117392.346000000005         0.003458653453
    5      34065.440100000000         0.008980366685
    6      11133.885300000000         0.023266796938
    7       3988.280760000000         0.059846281110
    8       1534.678610000000         0.144113896742
    9        624.475513000000         0.287645635380
   10        265.735250000000         0.382455767941
   11        116.709586000000         0.227380123245
   12         50.306071000000         0.027101567480
   13         23.036081700000         0.000594146418
   14         10.586238100000        -0.000552212317
   15          4.798113940000         0.000380626455
   16          2.133543170000        -0.000271681781
   17          0.857316380000         0.000151508686
   18          0.378404470000        -0.000084018181
   19          0.152386050000         0.000035794965
   20          0.060954420000        -0.000009808620
   21   18535881.300000000745        -0.000000662935
   22    2419299.990000000224        -0.000002141401
   23     474949.065000000002        -0.000006270714
   24     117392.346000000005        -0.000016805919
   25      34065.440100000000        -0.000043943235
   26      11133.885300000000        -0.000115328084
   27       3988.280760000000        -0.000304793694
   28       1534.678610000000        -0.000776914568
   29        624.475513000000        -0.001761325450
   30        265.735250000000        -0.003048048597
   31        116.709586000000        -0.002438569440
   32         50.306071000000         0.004106751685
   33         23.036081700000         0.009682179061
   34         10.586238100000         0.003750800330
   35          4.798113940000         0.000153481467
   36          2.133543170000         0.000041998199
   37          0.857316380000        -0.000013770829
   38          0.378404470000         0.000006377159
   39          0.152386050000        -0.000002965120
   40   18535881.300000000745        -0.000000105428
   41    2419299.990000000224        -0.000000340568
   42     474949.065000000002        -0.000000997656
   43     117392.346000000005        -0.000002674978
   44      34065.440100000000        -0.000007001171
   45      11133.885300000000        -0.000018404504
   46       3988.280760000000        -0.000048815509
   47       1534.678610000000        -0.000125381452
   48        624.475513000000        -0.000289224597
   49        265.735250000000        -0.000519994404
   50        116.709586000000        -0.000444889047
   51         50.306071000000         0.000928176519
   52         23.036081700000         0.003136128362
   53         10.586238100000         0.001261767659
   54          4.798113940000        -0.004097177539
   55          2.133543170000        -0.003487164217
   56          0.857316380000        -0.000189883034
   57          0.378404470000        -0.000035230058
   58          0.152386050000         0.000014569583
   59          0.060954420000        -0.000004859095
   60   18535881.300000000745        -0.000000010890
   61    2419299.990000000224        -0.000000035177
   62     474949.065000000002        -0.000000103026
   63     117392.346000000005        -0.000000276237
   64      34065.440100000000        -0.000000723142
   65      11133.885300000000        -0.000001901403
   66       3988.280760000000        -0.000005046184
   67       1534.678610000000        -0.000012976267
   68        624.475513000000        -0.000030015919
   69        265.735250000000        -0.000054288402
   70        116.709586000000        -0.000046991020
   71         50.306071000000         0.000101425708
   72         23.036081700000         0.000363528129
   73         10.586238100000         0.000151139005
   74          4.798113940000        -0.000628513375
   75          2.133543170000        -0.000980013536
   76          0.857316380000         0.000401485549
   77          0.378404470000         0.001471212630
   78          0.152386050000         0.000556068106
   79          0.060954420000        -0.000001723783
   80   18535881.300000000745        -0.000000014308
   81    2419299.990000000224        -0.000000046247
   82     474949.065000000002        -0.000000135179
   83     117392.346000000005        -0.000000364320
   84      34065.440100000000        -0.000000944270
   85      11133.885300000000        -0.000002526154
   86       3988.280760000000        -0.000006531772
   87       1534.678610000000        -0.000017433094
   88        624.475513000000        -0.000038366912
   89        265.735250000000        -0.000075181527
   90        116.709586000000        -0.000052707540
   91         50.306071000000         0.000111801703
   92         23.036081700000         0.000565441966
   93         10.586238100000         0.000031532799
   94          4.798113940000        -0.000642371826
   95          2.133543170000        -0.002353862247
   96          0.857316380000         0.003948328408
   97          0.378404470000         0.000810011797
   98          0.152386050000        -0.002910628711
   99          0.060954420000        -0.000067097630
  100   18535881.300000000745        -0.000000023063
  101    2419299.990000000224        -0.000000074382
  102     474949.065000000002        -0.000000219048
  103     117392.346000000005        -0.000000580685
  104      34065.440100000000        -0.000001554514
  105      11133.885300000000        -0.000003935732
  106       3988.280760000000        -0.000011066651
  107       1534.678610000000        -0.000026306553
  108        624.475513000000        -0.000068002649
  109        265.735250000000        -0.000104906086
  110        116.709586000000        -0.000131584059
  111         50.306071000000         0.000322001629
  112         23.036081700000         0.000647180903
  113         10.586238100000         0.000688209361
  114          4.798113940000        -0.002990990915
  115          2.133543170000        -0.001585734974
  116          0.857316380000         0.010998018642
  117          0.378404470000        -0.012280942897
  118          0.152386050000         0.004138584669
  119          0.060954420000         0.001227661257
  120   18535881.300000000745        -0.000000029367
  121    2419299.990000000224        -0.000000093833
  122     474949.065000000002        -0.000000282296
  123     117392.346000000005        -0.000000713603
  124      34065.440100000000        -0.000002090873
  125      11133.885300000000        -0.000004499478
  126       3988.280760000000        -0.000015995047
  127       1534.678610000000        -0.000026771679
  128        624.475513000000        -0.000108390601
  129        265.735250000000        -0.000071800299
  130        116.709586000000        -0.000335676010
  131         50.306071000000         0.000905885774
  132         23.036081700000        -0.000283231058
  133         10.586238100000         0.003380434061
  134          4.798113940000        -0.010541449647
  135          2.133543170000         0.011292644290
  136          0.857316380000        -0.002982850374
  137          0.378404470000        -0.006817262428
  138          0.152386050000         0.011389926701
  139          0.060954420000        -0.006885010772
 S 138
    1   18535881.300000000745         0.000002104662
    2    2419299.990000000224         0.000006791120
    3     474949.065000000002         0.000019848113
    4     117392.346000000005         0.000053001746
    5      34065.440100000000         0.000137618618
    6      11133.885300000000         0.000356549411
    7       3988.280760000000         0.000917107599
    8       1534.678610000000         0.002208457190
    9        624.475513000000         0.004407993164
   10        265.735250000000         0.005860900369
   11        116.709586000000         0.003484461106
   12         50.306071000000         0.000415314920
   13         23.036081700000         0.000009104930
   14         10.586238100000        -0.000008462316
   15          4.798113940000         0.000005832867
   16          2.133543170000        -0.000004163357
   17          0.857316380000         0.000002321778
   18          0.378404470000        -0.000001287527
   19   18535881.300000000745         0.000044439336
   20    2419299.990000000224         0.000143547140
   21     474949.065000000002         0.000420352412
   22     117392.346000000005         0.001126571609
   23      34065.440100000000         0.002945700288
   24      11133.885300000000         0.007730927639
   25       3988.280760000000         0.020431606170
   26       1534.678610000000         0.052079858541
   27        624.475513000000         0.118069069720
   28        265.735250000000         0.204323546431
   29        116.709586000000         0.163467589289
   30         50.306071000000        -0.275292877349
   31         23.036081700000        -0.649037277433
   32         10.586238100000        -0.251431957541
   33          4.798113940000        -0.010288509752
   34          2.133543170000        -0.002815316293
   35          0.857316380000         0.000923116690
   36          0.378404470000        -0.000427487855
   37          0.152386050000         0.000198764488
   38          0.060954420000        -0.000051834250
   39   18535881.300000000745         0.000000990318
   40    2419299.990000000224         0.000003199064
   41     474949.065000000002         0.000009371291
   42     117392.346000000005         0.000025126902
   43      34065.440100000000         0.000065764184
   44      11133.885300000000         0.000172879252
   45       3988.280760000000         0.000458539318
   46       1534.678610000000         0.001177747119
   47        624.475513000000         0.002716776929
   48        265.735250000000         0.004884469762
   49        116.709586000000         0.004178981704
   50         50.306071000000        -0.008718651797
   51         23.036081700000        -0.029458632718
   52         10.586238100000        -0.011852177510
   53          4.798113940000         0.038486067650
   54          2.133543170000         0.032756022088
   55          0.857316380000         0.001783630619
   56          0.378404470000         0.000330926932
   57          0.152386050000        -0.000136856643
   58          0.060954420000         0.000045642999
   59   18535881.300000000745         0.000000076181
   60    2419299.990000000224         0.000000246073
   61     474949.065000000002         0.000000720690
   62     117392.346000000005         0.000001932339
   63      34065.440100000000         0.000005058535
   64      11133.885300000000         0.000013300732
   65       3988.280760000000         0.000035299166
   66       1534.678610000000         0.000090771846
   67        624.475513000000         0.000209967968
   68        265.735250000000         0.000379759329
   69        116.709586000000         0.000328712539
   70         50.306071000000        -0.000709495174
   71         23.036081700000        -0.002542959345
   72         10.586238100000        -0.001057250633
   73          4.798113940000         0.004396589517
   74          2.133543170000         0.006855410579
   75          0.857316380000        -0.002808479864
   76          0.378404470000        -0.010291456454
   77          0.152386050000        -0.003889818906
   78          0.060954420000         0.000012058241
   79   18535881.300000000745         0.000000091129
   80    2419299.990000000224         0.000000294553
   81     474949.065000000002         0.000000860980
   82     117392.346000000005         0.000002320412
   83      34065.440100000000         0.000006014213
   84      11133.885300000000         0.000016089490
   85       3988.280760000000         0.000041601924
   86       1534.678610000000         0.000111034221
   87        624.475513000000         0.000244365123
   88        265.735250000000         0.000478843412
   89        116.709586000000         0.000335702921
   90         50.306071000000        -0.000712083286
   91         23.036081700000        -0.003601392137
   92         10.586238100000        -0.000200837540
   93          4.798113940000         0.004091370969
   94          2.133543170000         0.014992132702
   95          0.857316380000        -0.025147547835
   96          0.378404470000        -0.005159097296
   97          0.152386050000         0.018538269156
   98          0.060954420000         0.000427355752
   99   18535881.300000000745         0.000000127095
  100    2419299.990000000224         0.000000409898
  101     474949.065000000002         0.000001207106
  102     117392.346000000005         0.000003199975
  103      34065.440100000000         0.000008566447
  104      11133.885300000000         0.000021688604
  105       3988.280760000000         0.000060984902
  106       1534.678610000000         0.000144967312
  107        624.475513000000         0.000374741648
  108        265.735250000000         0.000578105120
  109        116.709586000000         0.000725119211
  110         50.306071000000        -0.001774451783
  111         23.036081700000        -0.003566414583
  112         10.586238100000        -0.003792509775
  113          4.798113940000         0.016482429516
  114          2.133543170000         0.008738496936
  115          0.857316380000        -0.060606692654
  116          0.378404470000         0.067676492999
  117          0.152386050000        -0.022806465163
  118          0.060954420000        -0.006765262992
  119   18535881.300000000745         0.000000133113
  120    2419299.990000000224         0.000000425321
  121     474949.065000000002         0.000001279576
  122     117392.346000000005         0.000003234579
  123      34065.440100000000         0.000009477391
  124      11133.885300000000         0.000020394982
  125       3988.280760000000         0.000072501457
  126       1534.678610000000         0.000121349176
  127        624.475513000000         0.000491306873
  128        265.735250000000         0.000325452393
  129        116.709586000000         0.001521533503
  130         50.306071000000        -0.004106148536
  131         23.036081700000         0.001283813949
  132         10.586238100000        -0.015322643054
  133          4.798113940000         0.047781695281
  134          2.133543170000        -0.051186668481
  135          0.857316380000         0.013520497884
  136          0.378404470000         0.030900907077
  137          0.152386050000        -0.051627624769
  138          0.060954420000         0.031207992995
 S 138
    1   18535881.300000000745         0.000000843744
    2    2419299.990000000224         0.000002722512
    3     474949.065000000002         0.000007956970
    4     117392.346000000005         0.000021248029
    5      34065.440100000000         0.000055170341
    6      11133.885300000000         0.000142938164
    7       3988.280760000000         0.000367662020
    8       1534.678610000000         0.000885355036
    9        624.475513000000         0.001767133619
   10        265.735250000000         0.002349593952
   11        116.709586000000         0.001396896078
   12         50.306071000000         0.000166496846
   13         23.036081700000         0.000003650103
   14         10.586238100000        -0.000003392483
   15          4.798113940000         0.000002338356
   16          2.133543170000        -0.000001669061
   17          0.857316380000         0.000000930784
   18          0.378404470000        -0.000000516161
   19   18535881.300000000745        -0.000002724098
   20    2419299.990000000224        -0.000008799332
   21     474949.065000000002        -0.000025767288
   22     117392.346000000005        -0.000069057996
   23      34065.440100000000        -0.000180569222
   24      11133.885300000000        -0.000473900077
   25       3988.280760000000        -0.001252442163
   26       1534.678610000000        -0.003192456342
   27        624.475513000000        -0.007237545587
   28        265.735250000000        -0.012524880440
   29        116.709586000000        -0.010020440851
   30         50.306071000000         0.016875247297
   31         23.036081700000         0.039785499237
   32         10.586238100000         0.015412590775
   33          4.798113940000         0.000630677946
   34          2.133543170000         0.000172576781
   35          0.857316380000        -0.000056586362
   36          0.378404470000         0.000026204685
   37          0.152386050000        -0.000012184114
   38          0.060954420000         0.000003177401
   39   18535881.300000000745         0.000017036724
   40    2419299.990000000224         0.000055034414
   41     474949.065000000002         0.000161217008
   42     117392.346000000005         0.000432265300
   43      34065.440100000000         0.001131360094
   44      11133.885300000000         0.002974091305
   45       3988.280760000000         0.007888383266
   46       1534.678610000000         0.020261121133
   47        624.475513000000         0.046737491915
   48        265.735250000000         0.084028932797
   49        116.709586000000         0.071892219594
   50         50.306071000000        -0.149989464902
   51         23.036081700000        -0.506785299007
   52         10.586238100000        -0.203896405534
   53          4.798113940000         0.662086848647
   54          2.133543170000         0.563511233094
   55          0.857316380000         0.030684308575
   56          0.378404470000         0.005693030826
   57          0.152386050000        -0.002354384034
   58          0.060954420000         0.000785209590
   59   18535881.300000000745         0.000000965277
   60    2419299.990000000224         0.000003117943
   61     474949.065000000002         0.000009131716
   62     117392.346000000005         0.000024484289
   63      34065.440100000000         0.000064095698
   64      11133.885300000000         0.000168530936
   65       3988.280760000000         0.000447268729
   66       1534.678610000000         0.001150152035
   67        624.475513000000         0.002660462437
   68        265.735250000000         0.004811855068
   69        116.709586000000         0.004165051322
   70         50.306071000000        -0.008989872492
   71         23.036081700000        -0.032221333025
   72         10.586238100000        -0.013396212885
   73          4.798113940000         0.055708312944
   74          2.133543170000         0.086863546473
   75          0.857316380000        -0.035585690806
   76          0.378404470000        -0.130401001624
   77          0.152386050000        -0.049287123128
   78          0.060954420000         0.000152787576
   79   18535881.300000000745         0.000001069705
   80    2419299.990000000224         0.000003457583
   81     474949.065000000002         0.000010106534
   82     117392.346000000005         0.000027237947
   83      34065.440100000000         0.000070597300
   84      11133.885300000000         0.000188865041
   85       3988.280760000000         0.000488340478
   86       1534.678610000000         0.001303365300
   87        624.475513000000         0.002868458198
   88        265.735250000000         0.005620860670
   89        116.709586000000         0.003940618793
   90         50.306071000000        -0.008358726125
   91         23.036081700000        -0.042274620310
   92         10.586238100000        -0.002357513547
   93          4.798113940000         0.048026193116
   94          2.133543170000         0.175983812219
   95          0.857316380000        -0.295192246756
   96          0.378404470000        -0.060559603352
   97          0.152386050000         0.217609818626
   98          0.060954420000         0.005016477372
   99   18535881.300000000745         0.000001321451
  100    2419299.990000000224         0.000004261837
  101     474949.065000000002         0.000012550655
  102     117392.346000000005         0.000033271136
  103      34065.440100000000         0.000089068006
  104      11133.885300000000         0.000225503151
  105       3988.280760000000         0.000634078969
  106       1534.678610000000         0.001507270158
  107        624.475513000000         0.003896305281
  108        265.735250000000         0.006010738450
  109        116.709586000000         0.007539289609
  110         50.306071000000        -0.018449526210
  111         23.036081700000        -0.037081119907
  112         10.586238100000        -0.039431901834
  113          4.798113940000         0.171372938022
  114          2.133543170000         0.090856866234
  115          0.857316380000        -0.630146603907
  116          0.378404470000         0.703653513498
  117          0.152386050000        -0.237125900460
  118          0.060954420000        -0.070340540163
  119   18535881.300000000745         0.000001171056
  120    2419299.990000000224         0.000003741757
  121     474949.065000000002         0.000011257053
  122     117392.346000000005         0.000028456178
  123      34065.440100000000         0.000083377249
  124      11133.885300000000         0.000179424642
  125       3988.280760000000         0.000637830820
  126       1534.678610000000         0.001067568124
  127        624.475513000000         0.004322267149
  128        265.735250000000         0.002863164070
  129        116.709586000000         0.013385675309
  130         50.306071000000        -0.036123799420
  131         23.036081700000         0.011294339988
  132         10.586238100000        -0.134800794341
  133          4.798113940000         0.420358971747
  134          2.133543170000        -0.450314188379
  135          0.857316380000         0.118946440783
  136          0.378404470000         0.271850411511
  137          0.152386050000        -0.454193496779
  138          0.060954420000         0.274551996711
 S 136
    1   18535881.300000000745         0.000000339554
    2    2419299.990000000224         0.000001095640
    3     474949.065000000002         0.000003202181
    4     117392.346000000005         0.000008550998
    5      34065.440100000000         0.000022202599
    6      11133.885300000000         0.000057523637
    7       3988.280760000000         0.000147960881
    8       1534.678610000000         0.000356299818
    9        624.475513000000         0.000711160338
   10        265.735250000000         0.000945564054
   11        116.709586000000         0.000562162972
   12         50.306071000000         0.000067004527
   13         23.036081700000         0.000001468937
   14         10.586238100000        -0.000001365261
   15          4.798113940000         0.000000941041
   16          2.133543170000        -0.000000671692
   17          0.857316380000         0.000000374582
   18   18535881.300000000745        -0.000000405849
   19    2419299.990000000224        -0.000001310966
   20     474949.065000000002        -0.000003838932
   21     117392.346000000005        -0.000010288586
   22      34065.440100000000        -0.000026902053
   23      11133.885300000000        -0.000070603865
   24       3988.280760000000        -0.000186594732
   25       1534.678610000000        -0.000475627182
   26        624.475513000000        -0.001078283629
   27        265.735250000000        -0.001866015678
   28        116.709586000000        -0.001492892473
   29         50.306071000000         0.002514153822
   30         23.036081700000         0.005927431059
   31         10.586238100000         0.002296240364
   32          4.798113940000         0.000093961371
   33          2.133543170000         0.000025711302
   34          0.857316380000        -0.000008430503
   35          0.378404470000         0.000003904097
   36          0.152386050000        -0.000001815247
   37   18535881.300000000745        -0.000005472777
   38    2419299.990000000224        -0.000017678931
   39     474949.065000000002        -0.000051788401
   40     117392.346000000005        -0.000138858356
   41      34065.440100000000        -0.000363431445
   42      11133.885300000000        -0.000955379553
   43       3988.280760000000        -0.002534017724
   44       1534.678610000000        -0.006508563078
   45        624.475513000000        -0.015013676303
   46        265.735250000000        -0.026992958873
   47        116.709586000000        -0.023094232691
   48         50.306071000000         0.048181731254
   49         23.036081700000         0.162796721064
   50         10.586238100000         0.065498478986
   51          4.798113940000        -0.212684875094
   52          2.133543170000        -0.181019025631
   53          0.857316380000        -0.009856846349
   54          0.378404470000        -0.001828795652
   55          0.152386050000         0.000756308444
   56          0.060954420000        -0.000252236098
   57   18535881.300000000745         0.000003268200
   58    2419299.990000000224         0.000010556626
   59     474949.065000000002         0.000030917851
   60     117392.346000000005         0.000082898065
   61      34065.440100000000         0.000217013009
   62      11133.885300000000         0.000570606248
   63       3988.280760000000         0.001514347084
   64       1534.678610000000         0.003894145213
   65        624.475513000000         0.009007702243
   66        265.735250000000         0.016291813436
   67        116.709586000000         0.014101887553
   68         50.306071000000        -0.030437601172
   69         23.036081700000        -0.109093881447
   70         10.586238100000        -0.045356436968
   71          4.798113940000         0.188615290473
   72          2.133543170000         0.294099608904
   73          0.857316380000        -0.120484808341
   74          0.378404470000        -0.441507227549
   75          0.152386050000        -0.166874646782
   76          0.060954420000         0.000517302922
   77   18535881.300000000745         0.000003506855
   78    2419299.990000000224         0.000011335130
   79     474949.065000000002         0.000033132643
   80     117392.346000000005         0.000089295224
   81      34065.440100000000         0.000231441880
   82      11133.885300000000         0.000619163626
   83       3988.280760000000         0.001600945624
   84       1534.678610000000         0.004272873262
   85        624.475513000000         0.009403778312
   86        265.735250000000         0.018427086612
   87        116.709586000000         0.012918684178
   88         50.306071000000        -0.027402737645
   89         23.036081700000        -0.138590535459
   90         10.586238100000        -0.007728728548
   91          4.798113940000         0.157446140763
   92          2.133543170000         0.576934590753
   93          0.857316380000        -0.967740247970
   94          0.378404470000        -0.198534908044
   95          0.152386050000         0.713398749972
   96          0.060954420000         0.016445713290
   97   18535881.300000000745         0.000003925925
   98    2419299.990000000224         0.000012661574
   99     474949.065000000002         0.000037286987
  100     117392.346000000005         0.000098845868
  101      34065.440100000000         0.000264613878
  102      11133.885300000000         0.000669951711
  103       3988.280760000000         0.001883797578
  104       1534.678610000000         0.004477978315
  105        624.475513000000         0.011575609367
  106        265.735250000000         0.017857420116
  107        116.709586000000         0.022398622574
  108         50.306071000000        -0.054812057324
  109         23.036081700000        -0.110165022497
  110         10.586238100000        -0.117149006384
  111          4.798113940000         0.509135204655
  112          2.133543170000         0.269928436301
  113          0.857316380000        -1.872114838236
  114          0.378404470000         2.090497949889
  115          0.152386050000        -0.704481963450
  116          0.060954420000        -0.208976082950
  117   18535881.300000000745         0.000002888104
  118    2419299.990000000224         0.000009228064
  119     474949.065000000002         0.000027762576
  120     117392.346000000005         0.000070179716
  121      34065.440100000000         0.000205628164
  122      11133.885300000000         0.000442503923
  123       3988.280760000000         0.001573042796
  124       1534.678610000000         0.002632877391
  125        624.475513000000         0.010659740767
  126        265.735250000000         0.007061244876
  127        116.709586000000         0.033012265061
  128         50.306071000000        -0.089089897513
  129         23.036081700000         0.027854533801
  130         10.586238100000        -0.332450881289
  131          4.798113940000         1.036705394046
  132          2.133543170000        -1.110582096458
  133          0.857316380000         0.293350267391
  134          0.378404470000         0.670447895558
  135          0.152386050000        -1.120149395395
  136          0.060954420000         0.677110648438
 S 136
    1   18535881.300000000745         0.000000178334
    2    2419299.990000000224         0.000000575430
    3     474949.065000000002         0.000001681784
    4     117392.346000000005         0.000004490980
    5      34065.440100000000         0.000011660795
    6      11133.885300000000         0.000030211389
    7       3988.280760000000         0.000077708989
    8       1534.678610000000         0.000187128507
    9        624.475513000000         0.000373501096
   10        265.735250000000         0.000496609824
   11        116.709586000000         0.000295247745
   12         50.306071000000         0.000035190748
   13         23.036081700000         0.000000771485
   14         10.586238100000        -0.000000717035
   15          4.798113940000         0.000000494235
   16          2.133543170000        -0.000000352772
   17          0.857316380000         0.000000196730
   18   18535881.300000000745        -0.000000167275
   19    2419299.990000000224        -0.000000540329
   20     474949.065000000002        -0.000001582258
   21     117392.346000000005        -0.000004240553
   22      34065.440100000000        -0.000011087976
   23      11133.885300000000        -0.000029100156
   24       3988.280760000000        -0.000076907062
   25       1534.678610000000        -0.000196034951
   26        624.475513000000        -0.000444426404
   27        265.735250000000        -0.000769098793
   28        116.709586000000        -0.000615311979
   29         50.306071000000         0.001036236026
   30         23.036081700000         0.002443055612
   31         10.586238100000         0.000946420608
   32          4.798113940000         0.000038727208
   33          2.133543170000         0.000010597195
   34          0.857316380000        -0.000003474724
   35          0.378404470000         0.000001609117
   36          0.152386050000        -0.000000748174
   37   18535881.300000000745        -0.000000424622
   38    2419299.990000000224        -0.000001371674
   39     474949.065000000002        -0.000004018161
   40     117392.346000000005        -0.000010773749
   41      34065.440100000000        -0.000028197936
   42      11133.885300000000        -0.000074126034
   43       3988.280760000000        -0.000196609488
   44       1534.678610000000        -0.000504986701
   45        624.475513000000        -0.001164881830
   46        265.735250000000        -0.002094330975
   47        116.709586000000        -0.001791836423
   48         50.306071000000         0.003738326453
   49         23.036081700000         0.012631079725
   50         10.586238100000         0.005081899098
   51          4.798113940000        -0.016501804189
   52          2.133543170000        -0.014044912757
   53          0.857316380000        -0.000764773463
   54          0.378404470000        -0.000141892684
   55          0.152386050000         0.000058680495
   56          0.060954420000        -0.000019570506
   57   18535881.300000000745        -0.000004276261
   58    2419299.990000000224        -0.000013812766
   59     474949.065000000002        -0.000040454313
   60     117392.346000000005        -0.000108467572
   61      34065.440100000000        -0.000283949623
   62      11133.885300000000        -0.000746606988
   63       3988.280760000000        -0.001981440123
   64       1534.678610000000        -0.005095275485
   65        624.475513000000        -0.011786084467
   66        265.735250000000        -0.021316944555
   67        116.709586000000        -0.018451546617
   68         50.306071000000         0.039825932154
   69         23.036081700000         0.142743361948
   70         10.586238100000         0.059346410751
   71          4.798113940000        -0.246792765274
   72          2.133543170000        -0.384813211938
   73          0.857316380000         0.157647765191
   74          0.378404470000         0.577687998159
   75          0.152386050000         0.218346325106
   76          0.060954420000        -0.000676862509
   77   18535881.300000000745         0.000000547829
   78    2419299.990000000224         0.000001770735
   79     474949.065000000002         0.000005175866
   80     117392.346000000005         0.000013949389
   81      34065.440100000000         0.000036155044
   82      11133.885300000000         0.000096723583
   83       3988.280760000000         0.000250094145
   84       1534.678610000000         0.000667493367
   85        624.475513000000         0.001469025470
   86        265.735250000000         0.002878615240
   87        116.709586000000         0.002018111812
   88         50.306071000000        -0.004280760159
   89         23.036081700000        -0.021650130374
   90         10.586238100000        -0.001207355034
   91          4.798113940000         0.024595687311
   92          2.133543170000         0.090126710786
   93          0.857316380000        -0.151177008352
   94          0.378404470000        -0.031014431315
   95          0.152386050000         0.111444666075
   96          0.060954420000         0.002569092006
   97   18535881.300000000745         0.000004337587
   98    2419299.990000000224         0.000013989231
   99     474949.065000000002         0.000041196794
  100     117392.346000000005         0.000109210564
  101      34065.440100000000         0.000292360534
  102      11133.885300000000         0.000740200934
  103       3988.280760000000         0.002081327214
  104       1534.678610000000         0.004947526338
  105        624.475513000000         0.012789394719
  106        265.735250000000         0.019729898209
  107        116.709586000000         0.024747278193
  108         50.306071000000        -0.060559493176
  109         23.036081700000        -0.121716612253
  110         10.586238100000        -0.129432916752
  111          4.798113940000         0.562521668719
  112          2.133543170000         0.298232361531
  113          0.857316380000        -2.068419455600
  114          0.378404470000         2.309701596893
  115          0.152386050000        -0.778351930960
  116          0.060954420000        -0.230888718417
  117   18535881.300000000745         0.000004076965
  118    2419299.990000000224         0.000013026711
  119     474949.065000000002         0.000039190780
  120     117392.346000000005         0.000099068538
  121      34065.440100000000         0.000290273073
  122      11133.885300000000         0.000624656520
  123       3988.280760000000         0.002220571135
  124       1534.678610000000         0.003716676719
  125        624.475513000000         0.015047723255
  126        265.735250000000         0.009967940220
  127        116.709586000000         0.046601454905
  128         50.306071000000        -0.125762919745
  129         23.036081700000         0.039320591860
  130         10.586238100000        -0.469301174091
  131          4.798113940000         1.463455463634
  132          2.133543170000        -1.567742818943
  133          0.857316380000         0.414105158551
  134          0.378404470000         0.946431494879
  135          0.152386050000        -1.581248406917
  136          0.060954420000         0.955836907604
 S 134
    1   18535881.300000000745         0.000000112147
    2    2419299.990000000224         0.000000361864
    3     474949.065000000002         0.000001057603
    4     117392.346000000005         0.000002824188
    5      34065.440100000000         0.000007332982
    6      11133.885300000000         0.000018998667
    7       3988.280760000000         0.000048867903
    8       1534.678610000000         0.000117677220
    9        624.475513000000         0.000234879075
   10        265.735250000000         0.000312296958
   11        116.709586000000         0.000185668845
   12         50.306071000000         0.000022129976
   13         23.036081700000         0.000000485154
   14         10.586238100000        -0.000000450913
   15          4.798113940000         0.000000310803
   16          2.133543170000        -0.000000221844
   17   18535881.300000000745        -0.000000097096
   18    2419299.990000000224        -0.000000313638
   19     474949.065000000002        -0.000000918434
   20     117392.346000000005        -0.000002461464
   21      34065.440100000000        -0.000006436106
   22      11133.885300000000        -0.000016891423
   23       3988.280760000000        -0.000044641332
   24       1534.678610000000        -0.000113790089
   25        624.475513000000        -0.000257970937
   26        265.735250000000        -0.000446429678
   27        116.709586000000        -0.000357162865
   28         50.306071000000         0.000601491668
   29         23.036081700000         0.001418091591
   30         10.586238100000         0.000549357575
   31          4.798113940000         0.000022479524
   32          2.133543170000         0.000006151228
   33          0.857316380000        -0.000002016932
   34          0.378404470000         0.000000934025
   35   18535881.300000000745        -0.000000285367
   36    2419299.990000000224        -0.000000921831
   37     474949.065000000002        -0.000002700398
   38     117392.346000000005        -0.000007240480
   39      34065.440100000000        -0.000018950376
   40      11133.885300000000        -0.000049816279
   41       3988.280760000000        -0.000132131081
   42       1534.678610000000        -0.000339375477
   43        624.475513000000        -0.000782856906
   44        265.735250000000        -0.001407491666
   45        116.709586000000        -0.001204200703
   46         50.306071000000         0.002512336107
   47         23.036081700000         0.008488696230
   48         10.586238100000         0.003415281880
   49          4.798113940000        -0.011090010201
   50          2.133543170000        -0.009438860380
   51          0.857316380000        -0.000513964740
   52          0.378404470000        -0.000095358743
   53          0.152386050000         0.000039436130
   54          0.060954420000        -0.000013152326
   55   18535881.300000000745         0.000001827495
   56    2419299.990000000224         0.000005903000
   57     474949.065000000002         0.000017288486
   58     117392.346000000005         0.000046354515
   59      34065.440100000000         0.000121348222
   60      11133.885300000000         0.000319068677
   61       3988.280760000000         0.000846784839
   62       1534.678610000000         0.002177508157
   63        624.475513000000         0.005036880763
   64        265.735250000000         0.009109972718
   65        116.709586000000         0.007885421190
   66         50.306071000000        -0.017019941787
   67         23.036081700000        -0.061002557365
   68         10.586238100000        -0.025362179907
   69          4.798113940000         0.105468931202
   70          2.133543170000         0.164453111624
   71          0.857316380000        -0.067372077470
   72          0.378404470000        -0.246879748143
   73          0.152386050000        -0.093312109516
   74          0.060954420000         0.000289262796
   75   18535881.300000000745        -0.000005112001
   76    2419299.990000000224        -0.000016523406
   77     474949.065000000002        -0.000048298001
   78     117392.346000000005        -0.000130167122
   79      34065.440100000000        -0.000337376649
   80      11133.885300000000        -0.000902565037
   81       3988.280760000000        -0.002333724862
   82       1534.678610000000        -0.006228637884
   83        624.475513000000        -0.013708042868
   84        265.735250000000        -0.026861468318
   85        116.709586000000        -0.018831779166
   86         50.306071000000         0.039945422984
   87         23.036081700000         0.202025711161
   88         10.586238100000         0.011266295178
   89          4.798113940000        -0.229511838250
   90          2.133543170000        -0.841007076018
   91          0.857316380000         1.410690933312
   92          0.378404470000         0.289407612541
   93          0.152386050000        -1.039933133434
   94          0.060954420000        -0.023973187721
   95   18535881.300000000745         0.000001136405
   96    2419299.990000000224         0.000003665040
   97     474949.065000000002         0.000010793152
   98     117392.346000000005         0.000028612087
   99      34065.440100000000         0.000076595566
  100      11133.885300000000         0.000193925318
  101       3988.280760000000         0.000545287127
  102       1534.678610000000         0.001296202925
  103        624.475513000000         0.003350694815
  104        265.735250000000         0.005169038026
  105        116.709586000000         0.006483541915
  106         50.306071000000        -0.015865987739
  107         23.036081700000        -0.031888547549
  108         10.586238100000        -0.033910142944
  109          4.798113940000         0.147375108853
  110          2.133543170000         0.078133926546
  111          0.857316380000        -0.541905422270
  112          0.378404470000         0.605118954859
  113          0.152386050000        -0.203920501076
  114          0.060954420000        -0.060490558679
  115   18535881.300000000745         0.000005133494
  116    2419299.990000000224         0.000016402530
  117     474949.065000000002         0.000049346912
  118     117392.346000000005         0.000124741749
  119      34065.440100000000         0.000365496165
  120      11133.885300000000         0.000786533730
  121       3988.280760000000         0.002796023158
  122       1534.678610000000         0.004679838450
  123        624.475513000000         0.018947279839
  124        265.735250000000         0.012551091589
  125        116.709586000000         0.058678033351
  126         50.306071000000        -0.158353871442
  127         23.036081700000         0.049510364113
  128         10.586238100000        -0.590918674126
  129          4.798113940000         1.842704024527
  130          2.133543170000        -1.974017025921
  131          0.857316380000         0.521418834534
  132          0.378404470000         1.191695386631
  133          0.152386050000        -1.991022532363
  134          0.060954420000         1.203538174001
 S 134
    1   18535881.300000000745         0.000000077050
    2    2419299.990000000224         0.000000248617
    3     474949.065000000002         0.000000726621
    4     117392.346000000005         0.000001940345
    5      34065.440100000000         0.000005038092
    6      11133.885300000000         0.000013052947
    7       3988.280760000000         0.000033574469
    8       1534.678610000000         0.000080849595
    9        624.475513000000         0.000161372593
   10        265.735250000000         0.000214562196
   11        116.709586000000         0.000127562930
   12         50.306071000000         0.000015204299
   13         23.036081700000         0.000000333323
   14         10.586238100000        -0.000000309798
   15          4.798113940000         0.000000213536
   16          2.133543170000        -0.000000152417
   17   18535881.300000000745        -0.000000062757
   18    2419299.990000000224        -0.000000202718
   19     474949.065000000002        -0.000000593624
   20     117392.346000000005        -0.000001590950
   21      34065.440100000000        -0.000004159931
   22      11133.885300000000        -0.000010917651
   23       3988.280760000000        -0.000028853607
   24       1534.678610000000        -0.000073547413
   25        624.475513000000        -0.000166737676
   26        265.735250000000        -0.000288546640
   27        116.709586000000        -0.000230849672
   28         50.306071000000         0.000388769852
   29         23.036081700000         0.000916573391
   30         10.586238100000         0.000355073352
   31          4.798113940000         0.000014529480
   32          2.133543170000         0.000003975802
   33          0.857316380000        -0.000001303630
   34          0.378404470000         0.000000603700
   35   18535881.300000000745        -0.000000173396
   36    2419299.990000000224        -0.000000560127
   37     474949.065000000002        -0.000001640827
   38     117392.346000000005        -0.000004399489
   39      34065.440100000000        -0.000011514701
   40      11133.885300000000        -0.000030269561
   41       3988.280760000000        -0.000080286002
   42       1534.678610000000        -0.000206212648
   43        624.475513000000        -0.000475682560
   44        265.735250000000        -0.000855225564
   45        116.709586000000        -0.000731701118
   46         50.306071000000         0.001526555444
   47         23.036081700000         0.005157934642
   48         10.586238100000         0.002075206869
   49          4.798113940000        -0.006738555162
   50          2.133543170000        -0.005735277081
   51          0.857316380000        -0.000312297256
   52          0.378404470000        -0.000057942251
   53          0.152386050000         0.000023962335
   54          0.060954420000        -0.000007991668
   55   18535881.300000000745        -0.000000404281
   56    2419299.990000000224        -0.000001305869
   57     474949.065000000002        -0.000003824580
   58     117392.346000000005        -0.000010254603
   59      34065.440100000000        -0.000026844803
   60      11133.885300000000        -0.000070584764
   61       3988.280760000000        -0.000187326781
   62       1534.678610000000        -0.000481711027
   63        624.475513000000        -0.001114264944
   64        265.735250000000        -0.002015319346
   65        116.709586000000        -0.001744422554
   66         50.306071000000         0.003765172412
   67         23.036081700000         0.013495060613
   68         10.586238100000         0.005610652568
   69          4.798113940000        -0.023331966409
   70          2.133543170000        -0.036380519197
   71          0.857316380000         0.014904133668
   72          0.378404470000         0.054615040896
   73          0.152386050000         0.020642619395
   74          0.060954420000        -0.000063991071
   75   18535881.300000000745         0.000002018271
   76    2419299.990000000224         0.000006523611
   77     474949.065000000002         0.000019068547
   78     117392.346000000005         0.000051391318
   79      34065.440100000000         0.000133199770
   80      11133.885300000000         0.000356341957
   81       3988.280760000000         0.000921378571
   82       1534.678610000000         0.002459130281
   83        624.475513000000         0.005412076273
   84        265.735250000000         0.010605183887
   85        116.709586000000         0.007434980047
   86         50.306071000000        -0.015770863721
   87         23.036081700000        -0.079761828034
   88         10.586238100000        -0.004448049178
   89          4.798113940000         0.090613633627
   90          2.133543170000         0.332038241011
   91          0.857316380000        -0.556955285471
   92          0.378404470000        -0.114261101177
   93          0.152386050000         0.410576293875
   94          0.060954420000         0.009464861009
   95   18535881.300000000745        -0.000005826810
   96    2419299.990000000224        -0.000018792154
   97     474949.065000000002        -0.000055340890
   98     117392.346000000005        -0.000146705828
   99      34065.440100000000        -0.000392736678
  100      11133.885300000000        -0.000994334128
  101       3988.280760000000        -0.002795909305
  102       1534.678610000000        -0.006646160599
  103        624.475513000000        -0.017180377721
  104        265.735250000000        -0.026503764336
  105        116.709586000000        -0.033243761434
  106         50.306071000000         0.081351384505
  107         23.036081700000         0.163505577818
  108         10.586238100000         0.173871121209
  109          4.798113940000        -0.755652238230
  110          2.133543170000        -0.400624480861
  111          0.857316380000         2.778569925639
  112          0.378404470000        -3.102691466643
  113          0.152386050000         1.045583506320
  114          0.060954420000         0.310159744159
  115   18535881.300000000745         0.000006250672
  116    2419299.990000000224         0.000019972138
  117     474949.065000000002         0.000060086057
  118     117392.346000000005         0.000151888731
  119      34065.440100000000         0.000445037439
  120      11133.885300000000         0.000957703499
  121       3988.280760000000         0.003404509001
  122       1534.678610000000         0.005698290473
  123        624.475513000000         0.023070690444
  124        265.735250000000         0.015282528744
  125        116.709586000000         0.071447867703
  126         50.306071000000        -0.192815706509
  127         23.036081700000         0.060285080176
  128         10.586238100000        -0.719517625957
  129          4.798113940000         2.243723346585
[...]
  BAS[ATNO][ 14].a[ 24] =       116.709586000000;     BAS[ATNO][ 14].d[ 24] =        -0.003418453624;
  BAS[ATNO][ 14].a[ 25] =        50.306071000000;     BAS[ATNO][ 14].d[ 25] =        -0.008588816164;
  BAS[ATNO][ 14].a[ 26] =        23.036081700000;     BAS[ATNO][ 14].d[ 26] =        -0.035902504868;
  BAS[ATNO][ 14].a[ 27] =        10.586238100000;     BAS[ATNO][ 14].d[ 27] =        -0.059743395897;
  BAS[ATNO][ 14].a[ 28] =         4.798113940000;     BAS[ATNO][ 14].d[ 28] =        -0.128162914794;
  BAS[ATNO][ 14].a[ 29] =         2.133543170000;     BAS[ATNO][ 14].d[ 29] =        -0.059381720896;
  BAS[ATNO][ 14].a[ 30] =         0.857316380000;     BAS[ATNO][ 14].d[ 30] =         0.763645498457;
  BAS[ATNO][ 14].a[ 31] =         0.342926550000;     BAS[ATNO][ 14].d[ 31] =        -0.471357796342;
  BAS[ATNO][ 14].a[ 32] =         0.137170620000;     BAS[ATNO][ 14].d[ 32] =        -0.255420992480;
  BAS[ATNO][ 14].a[ 33] =       624.475513000000;     BAS[ATNO][ 14].d[ 33] =        -0.000357526075;
  BAS[ATNO][ 14].a[ 34] =       265.735250000000;     BAS[ATNO][ 14].d[ 34] =         0.001009220368;
  BAS[ATNO][ 14].a[ 35] =       116.709586000000;     BAS[ATNO][ 14].d[ 35] =        -0.005543802199;
  BAS[ATNO][ 14].a[ 36] =        50.306071000000;     BAS[ATNO][ 14].d[ 36] =         0.006544323736;
  BAS[ATNO][ 14].a[ 37] =        23.036081700000;     BAS[ATNO][ 14].d[ 37] =        -0.051189496306;
  BAS[ATNO][ 14].a[ 38] =        10.586238100000;     BAS[ATNO][ 14].d[ 38] =         0.027792495604;
  BAS[ATNO][ 14].a[ 39] =         4.798113940000;     BAS[ATNO][ 14].d[ 39] =        -0.286198008393;
  BAS[ATNO][ 14].a[ 40] =         2.133543170000;     BAS[ATNO][ 14].d[ 40] =         0.396094592675;
  BAS[ATNO][ 14].a[ 41] =         0.857316380000;     BAS[ATNO][ 14].d[ 41] =         0.081543461302;
  BAS[ATNO][ 14].a[ 42] =         0.342926550000;     BAS[ATNO][ 14].d[ 42] =        -0.545163816197;
  BAS[ATNO][ 14].a[ 43] =         0.137170620000;     BAS[ATNO][ 14].d[ 43] =         0.510536931862;

  // Basis function  16 L = d
  InitBFNGauss(BAS[ATNO][ 15]);
  BAS[ATNO][ 15].l  = 2;
  BAS[ATNO][ 15].ng = 44;
  BAS[ATNO][ 15].a[  0] =       624.475513000000;     BAS[ATNO][ 15].d[  0] =        -0.000004070717;
  BAS[ATNO][ 15].a[  1] =       265.735250000000;     BAS[ATNO][ 15].d[  1] =        -0.000014194145;
  BAS[ATNO][ 15].a[  2] =       116.709586000000;     BAS[ATNO][ 15].d[  2] =        -0.000084880207;
  BAS[ATNO][ 15].a[  3] =        50.306071000000;     BAS[ATNO][ 15].d[  3] =        -0.000326115573;
  BAS[ATNO][ 15].a[  4] =        23.036081700000;     BAS[ATNO][ 15].d[  4] =        -0.000932119875;
  BAS[ATNO][ 15].a[  5] =        10.586238100000;     BAS[ATNO][ 15].d[  5] =        -0.001891038873;
  BAS[ATNO][ 15].a[  6] =         4.798113940000;     BAS[ATNO][ 15].d[  6] =        -0.002415770284;
  BAS[ATNO][ 15].a[  7] =         2.133543170000;     BAS[ATNO][ 15].d[  7] =        -0.001823372444;
  BAS[ATNO][ 15].a[  8] =         0.857316380000;     BAS[ATNO][ 15].d[  8] =        -0.000522963383;
  BAS[ATNO][ 15].a[  9] =         0.342926550000;     BAS[ATNO][ 15].d[  9] =        -0.000002192719;
  BAS[ATNO][ 15].a[ 10] =         0.137170620000;     BAS[ATNO][ 15].d[ 10] =        -0.000010372989;
  BAS[ATNO][ 15].a[ 11] =       624.475513000000;     BAS[ATNO][ 15].d[ 11] =        -0.000143210921;
  BAS[ATNO][ 15].a[ 12] =       265.735250000000;     BAS[ATNO][ 15].d[ 12] =        -0.000559575275;
  BAS[ATNO][ 15].a[ 13] =       116.709586000000;     BAS[ATNO][ 15].d[ 13] =        -0.003036506612;
  BAS[ATNO][ 15].a[ 14] =        50.306071000000;     BAS[ATNO][ 15].d[ 14] =        -0.012407200317;
  BAS[ATNO][ 15].a[ 15] =        23.036081700000;     BAS[ATNO][ 15].d[ 15] =        -0.033828486256;
  BAS[ATNO][ 15].a[ 16] =        10.586238100000;     BAS[ATNO][ 15].d[ 16] =        -0.075232929338;
  BAS[ATNO][ 15].a[ 17] =         4.798113940000;     BAS[ATNO][ 15].d[ 17] =        -0.088119170671;
  BAS[ATNO][ 15].a[ 18] =         2.133543170000;     BAS[ATNO][ 15].d[ 18] =        -0.082713675449;
  BAS[ATNO][ 15].a[ 19] =         0.857316380000;     BAS[ATNO][ 15].d[ 19] =         0.330731479166;
  BAS[ATNO][ 15].a[ 20] =         0.342926550000;     BAS[ATNO][ 15].d[ 20] =         0.456109746526;
  BAS[ATNO][ 15].a[ 21] =         0.137170620000;     BAS[ATNO][ 15].d[ 21] =         0.071419658251;
  BAS[ATNO][ 15].a[ 22] =       624.475513000000;     BAS[ATNO][ 15].d[ 22] =         0.000090986076;
  BAS[ATNO][ 15].a[ 23] =       265.735250000000;     BAS[ATNO][ 15].d[ 23] =         0.000129419903;
  BAS[ATNO][ 15].a[ 24] =       116.709586000000;     BAS[ATNO][ 15].d[ 24] =         0.001725144951;
  BAS[ATNO][ 15].a[ 25] =        50.306071000000;     BAS[ATNO][ 15].d[ 25] =         0.004334402179;
  BAS[ATNO][ 15].a[ 26] =        23.036081700000;     BAS[ATNO][ 15].d[ 26] =         0.018118433598;
  BAS[ATNO][ 15].a[ 27] =        10.586238100000;     BAS[ATNO][ 15].d[ 27] =         0.030149894985;
  BAS[ATNO][ 15].a[ 28] =         4.798113940000;     BAS[ATNO][ 15].d[ 28] =         0.064678252114;
  BAS[ATNO][ 15].a[ 29] =         2.133543170000;     BAS[ATNO][ 15].d[ 29] =         0.029967373333;
  BAS[ATNO][ 15].a[ 30] =         0.857316380000;     BAS[ATNO][ 15].d[ 30] =        -0.385378688947;
  BAS[ATNO][ 15].a[ 31] =         0.342926550000;     BAS[ATNO][ 15].d[ 31] =         0.237873790844;
  BAS[ATNO][ 15].a[ 32] =         0.137170620000;     BAS[ATNO][ 15].d[ 32] =         0.128899872271;
  BAS[ATNO][ 15].a[ 33] =       624.475513000000;     BAS[ATNO][ 15].d[ 33] =         0.000513612315;
  BAS[ATNO][ 15].a[ 34] =       265.735250000000;     BAS[ATNO][ 15].d[ 34] =        -0.001449818758;
  BAS[ATNO][ 15].a[ 35] =       116.709586000000;     BAS[ATNO][ 15].d[ 35] =         0.007964076697;
  BAS[ATNO][ 15].a[ 36] =        50.306071000000;     BAS[ATNO][ 15].d[ 36] =        -0.009401398948;
  BAS[ATNO][ 15].a[ 37] =        23.036081700000;     BAS[ATNO][ 15].d[ 37] =         0.073537449574;
  BAS[ATNO][ 15].a[ 38] =        10.586238100000;     BAS[ATNO][ 15].d[ 38] =        -0.039925949492;
  BAS[ATNO][ 15].a[ 39] =         4.798113940000;     BAS[ATNO][ 15].d[ 39] =         0.411144338763;
  BAS[ATNO][ 15].a[ 40] =         2.133543170000;     BAS[ATNO][ 15].d[ 40] =        -0.569018807319;
  BAS[ATNO][ 15].a[ 41] =         0.857316380000;     BAS[ATNO][ 15].d[ 41] =        -0.117143136899;
  BAS[ATNO][ 15].a[ 42] =         0.342926550000;     BAS[ATNO][ 15].d[ 42] =         0.783167632740;
  BAS[ATNO][ 15].a[ 43] =         0.137170620000;     BAS[ATNO][ 15].d[ 43] =        -0.733423584752;

  // Basis function  17 L = d
  InitBFNGauss(BAS[ATNO][ 16]);
  BAS[ATNO][ 16].l  = 2;
  BAS[ATNO][ 16].ng = 44;
  BAS[ATNO][ 16].a[  0] =       624.475513000000;     BAS[ATNO][ 16].d[  0] =        -0.000010758333;
  BAS[ATNO][ 16].a[  1] =       265.735250000000;     BAS[ATNO][ 16].d[  1] =        -0.000037513124;
  BAS[ATNO][ 16].a[  2] =       116.709586000000;     BAS[ATNO][ 16].d[  2] =        -0.000224326424;
  BAS[ATNO][ 16].a[  3] =        50.306071000000;     BAS[ATNO][ 16].d[  3] =        -0.000861877495;
  BAS[ATNO][ 16].a[  4] =        23.036081700000;     BAS[ATNO][ 16].d[  4] =        -0.002463461452;
  BAS[ATNO][ 16].a[  5] =        10.586238100000;     BAS[ATNO][ 16].d[  5] =        -0.004997749210;
  BAS[ATNO][ 16].a[  6] =         4.798113940000;     BAS[ATNO][ 16].d[  6] =        -0.006384540373;
  BAS[ATNO][ 16].a[  7] =         2.133543170000;     BAS[ATNO][ 16].d[  7] =        -0.004818916376;
  BAS[ATNO][ 16].a[  8] =         0.857316380000;     BAS[ATNO][ 16].d[  8] =        -0.001382118512;
  BAS[ATNO][ 16].a[  9] =         0.342926550000;     BAS[ATNO][ 16].d[  9] =        -0.000005795049;
  BAS[ATNO][ 16].a[ 10] =         0.137170620000;     BAS[ATNO][ 16].d[ 10] =        -0.000027414348;
  BAS[ATNO][ 16].a[ 11] =       624.475513000000;     BAS[ATNO][ 16].d[ 11] =         0.000047402395;
  BAS[ATNO][ 16].a[ 12] =       265.735250000000;     BAS[ATNO][ 16].d[ 12] =         0.000185217774;
  BAS[ATNO][ 16].a[ 13] =       116.709586000000;     BAS[ATNO][ 16].d[ 13] =         0.001005074775;
  BAS[ATNO][ 16].a[ 14] =        50.306071000000;     BAS[ATNO][ 16].d[ 14] =         0.004106746884;
  BAS[ATNO][ 16].a[ 15] =        23.036081700000;     BAS[ATNO][ 16].d[ 15] =         0.011197129649;
  BAS[ATNO][ 16].a[ 16] =        10.586238100000;     BAS[ATNO][ 16].d[ 16] =         0.024901878769;
  BAS[ATNO][ 16].a[ 17] =         4.798113940000;     BAS[ATNO][ 16].d[ 17] =         0.029167186824;
  BAS[ATNO][ 16].a[ 18] =         2.133543170000;     BAS[ATNO][ 16].d[ 18] =         0.027377983773;
  BAS[ATNO][ 16].a[ 19] =         0.857316380000;     BAS[ATNO][ 16].d[ 19] =        -0.109471148763;
  BAS[ATNO][ 16].a[ 20] =         0.342926550000;     BAS[ATNO][ 16].d[ 20] =        -0.150970987219;
  BAS[ATNO][ 16].a[ 21] =         0.137170620000;     BAS[ATNO][ 16].d[ 21] =        -0.023639697233;
  BAS[ATNO][ 16].a[ 22] =       624.475513000000;     BAS[ATNO][ 16].d[ 22] =        -0.000201711445;
  BAS[ATNO][ 16].a[ 23] =       265.735250000000;     BAS[ATNO][ 16].d[ 23] =        -0.000286917262;
  BAS[ATNO][ 16].a[ 24] =       116.709586000000;     BAS[ATNO][ 16].d[ 24] =        -0.003824557537;
  BAS[ATNO][ 16].a[ 25] =        50.306071000000;     BAS[ATNO][ 16].d[ 25] =        -0.009609146477;
  BAS[ATNO][ 16].a[ 26] =        23.036081700000;     BAS[ATNO][ 16].d[ 26] =        -0.040167634467;
  BAS[ATNO][ 16].a[ 27] =        10.586238100000;     BAS[ATNO][ 16].d[ 27] =        -0.066840764929;
  BAS[ATNO][ 16].a[ 28] =         4.798113940000;     BAS[ATNO][ 16].d[ 28] =        -0.143388355010;
  BAS[ATNO][ 16].a[ 29] =         2.133543170000;     BAS[ATNO][ 16].d[ 29] =        -0.066436123824;
  BAS[ATNO][ 16].a[ 30] =         0.857316380000;     BAS[ATNO][ 16].d[ 30] =         0.854364712367;
  BAS[ATNO][ 16].a[ 31] =         0.342926550000;     BAS[ATNO][ 16].d[ 31] =        -0.527353947489;
  BAS[ATNO][ 16].a[ 32] =         0.137170620000;     BAS[ATNO][ 16].d[ 32] =        -0.285764380480;
  BAS[ATNO][ 16].a[ 33] =       624.475513000000;     BAS[ATNO][ 16].d[ 33] =         0.000590852980;
  BAS[ATNO][ 16].a[ 34] =       265.735250000000;     BAS[ATNO][ 16].d[ 34] =        -0.001667852792;
  BAS[ATNO][ 16].a[ 35] =       116.709586000000;     BAS[ATNO][ 16].d[ 35] =         0.009161771072;
  BAS[ATNO][ 16].a[ 36] =        50.306071000000;     BAS[ATNO][ 16].d[ 36] =        -0.010815248044;
  BAS[ATNO][ 16].a[ 37] =        23.036081700000;     BAS[ATNO][ 16].d[ 37] =         0.084596533141;
  BAS[ATNO][ 16].a[ 38] =        10.586238100000;     BAS[ATNO][ 16].d[ 38] =        -0.045930297133;
  BAS[ATNO][ 16].a[ 39] =         4.798113940000;     BAS[ATNO][ 16].d[ 39] =         0.472975142344;
  BAS[ATNO][ 16].a[ 40] =         2.133543170000;     BAS[ATNO][ 16].d[ 40] =        -0.654591893926;
  BAS[ATNO][ 16].a[ 41] =         0.857316380000;     BAS[ATNO][ 16].d[ 41] =        -0.134759953198;
  BAS[ATNO][ 16].a[ 42] =         0.342926550000;     BAS[ATNO][ 16].d[ 42] =         0.900945939541;
  BAS[ATNO][ 16].a[ 43] =         0.137170620000;     BAS[ATNO][ 16].d[ 43] =        -0.843721028580;

  // Basis function  18 L = f
  InitBFNGauss(BAS[ATNO][ 17]);
  BAS[ATNO][ 17].l  = 3;
  BAS[ATNO][ 17].ng = 12;
  BAS[ATNO][ 17].a[  0] =         1.688892000000;     BAS[ATNO][ 17].d[  0] =        -0.053238790469;
  BAS[ATNO][ 17].a[  1] =         0.675557000000;     BAS[ATNO][ 17].d[  1] =        -0.399397040161;
  BAS[ATNO][ 17].a[  2] =         0.270223000000;     BAS[ATNO][ 17].d[  2] =        -0.131910607199;
  BAS[ATNO][ 17].a[  3] =         0.108089000000;     BAS[ATNO][ 17].d[  3] =        -0.002318682465;
  BAS[ATNO][ 17].a[  4] =         1.688892000000;     BAS[ATNO][ 17].d[  4] =        -0.269815066583;
  BAS[ATNO][ 17].a[  5] =         0.675557000000;     BAS[ATNO][ 17].d[  5] =        -0.313517846007;
  BAS[ATNO][ 17].a[  6] =         0.270223000000;     BAS[ATNO][ 17].d[  6] =         0.658370361314;
  BAS[ATNO][ 17].a[  7] =         0.108089000000;     BAS[ATNO][ 17].d[  7] =        -0.058365777912;
  BAS[ATNO][ 17].a[  8] =         1.688892000000;     BAS[ATNO][ 17].d[  8] =        -0.754416476833;
  BAS[ATNO][ 17].a[  9] =         0.675557000000;     BAS[ATNO][ 17].d[  9] =         0.846248014085;
  BAS[ATNO][ 17].a[ 10] =         0.270223000000;     BAS[ATNO][ 17].d[ 10] =        -0.417184232582;
  BAS[ATNO][ 17].a[ 11] =         0.108089000000;     BAS[ATNO][ 17].d[ 11] =        -0.138011719988;

  // Basis function  19 L = f
  InitBFNGauss(BAS[ATNO][ 18]);
  BAS[ATNO][ 18].l  = 3;
  BAS[ATNO][ 18].ng = 12;
  BAS[ATNO][ 18].a[  0] =         1.688892000000;     BAS[ATNO][ 18].d[  0] =         0.081853430976;
  BAS[ATNO][ 18].a[  1] =         0.675557000000;     BAS[ATNO][ 18].d[  1] =         0.614063876561;
  BAS[ATNO][ 18].a[  2] =         0.270223000000;     BAS[ATNO][ 18].d[  2] =         0.202809562092;
  BAS[ATNO][ 18].a[  3] =         0.108089000000;     BAS[ATNO][ 18].d[  3] =         0.003564921619;
  BAS[ATNO][ 18].a[  4] =         1.688892000000;     BAS[ATNO][ 18].d[  4] =        -0.056657005992;
  BAS[ATNO][ 18].a[  5] =         0.675557000000;     BAS[ATNO][ 18].d[  5] =        -0.065833916189;
  BAS[ATNO][ 18].a[  6] =         0.270223000000;     BAS[ATNO][ 18].d[  6] =         0.138247630047;
  BAS[ATNO][ 18].a[  7] =         0.108089000000;     BAS[ATNO][ 18].d[  7] =        -0.012255913915;
  BAS[ATNO][ 18].a[  8] =         1.688892000000;     BAS[ATNO][ 18].d[  8] =        -0.706234157347;
  BAS[ATNO][ 18].a[  9] =         0.675557000000;     BAS[ATNO][ 18].d[  9] =         0.792200689522;
  BAS[ATNO][ 18].a[ 10] =         0.270223000000;     BAS[ATNO][ 18].d[ 10] =        -0.390539925895;
  BAS[ATNO][ 18].a[ 11] =         0.108089000000;     BAS[ATNO][ 18].d[ 11] =        -0.129197325035;

  // Basis function  20 L = f
  InitBFNGauss(BAS[ATNO][ 19]);
  BAS[ATNO][ 19].l  = 3;
  BAS[ATNO][ 19].ng = 12;
  BAS[ATNO][ 19].a[  0] =         1.688892000000;     BAS[ATNO][ 19].d[  0] =         0.026544487767;
  BAS[ATNO][ 19].a[  1] =         0.675557000000;     BAS[ATNO][ 19].d[  1] =         0.199136564770;
  BAS[ATNO][ 19].a[  2] =         0.270223000000;     BAS[ATNO][ 19].d[  2] =         0.065769704161;
  BAS[ATNO][ 19].a[  3] =         0.108089000000;     BAS[ATNO][ 19].d[  3] =         0.001156078825;
  BAS[ATNO][ 19].a[  4] =         1.688892000000;     BAS[ATNO][ 19].d[  4] =        -0.366443596688;
  BAS[ATNO][ 19].a[  5] =         0.675557000000;     BAS[ATNO][ 19].d[  5] =        -0.425797597487;
  BAS[ATNO][ 19].a[  6] =         0.270223000000;     BAS[ATNO][ 19].d[  6] =         0.894151709940;
  BAS[ATNO][ 19].a[  7] =         0.108089000000;     BAS[ATNO][ 19].d[  7] =        -0.079268240474;
  BAS[ATNO][ 19].a[  8] =         1.688892000000;     BAS[ATNO][ 19].d[  8] =         0.664675408475;
  BAS[ATNO][ 19].a[  9] =         0.675557000000;     BAS[ATNO][ 19].d[  9] =        -0.745583191387;
  BAS[ATNO][ 19].a[ 10] =         0.270223000000;     BAS[ATNO][ 19].d[ 10] =         0.367558382824;
  BAS[ATNO][ 19].a[ 11] =         0.108089000000;     BAS[ATNO][ 19].d[ 11] =         0.121594635290;

  // Basis function  21 L = g
  InitBFNGauss(BAS[ATNO][ 20]);
  BAS[ATNO][ 20].l  = 4;
  BAS[ATNO][ 20].ng = 4;
  BAS[ATNO][ 20].a[  0] =         0.844446000000;     BAS[ATNO][ 20].d[  0] =         0.708358578664;
  BAS[ATNO][ 20].a[  1] =         0.337778000000;     BAS[ATNO][ 20].d[  1] =         0.295343663868;
  BAS[ATNO][ 20].a[  2] =         0.844446000000;     BAS[ATNO][ 20].d[  2] =         0.388833951744;
  BAS[ATNO][ 20].a[  3] =         0.337778000000;     BAS[ATNO][ 20].d[  3] =        -0.486853176565;

  // Basis function  22 L = g
  InitBFNGauss(BAS[ATNO][ 21]);
  BAS[ATNO][ 21].l  = 4;
  BAS[ATNO][ 21].ng = 4;
  BAS[ATNO][ 21].a[  0] =         0.844446000000;     BAS[ATNO][ 21].d[  0] =         0.322327936648;
  BAS[ATNO][ 21].a[  1] =         0.337778000000;     BAS[ATNO][ 21].d[  1] =         0.134391700254;
  BAS[ATNO][ 21].a[  2] =         0.844446000000;     BAS[ATNO][ 21].d[  2] =        -0.854514394702;
  BAS[ATNO][ 21].a[  3] =         0.337778000000;     BAS[ATNO][ 21].d[  3] =         1.069924695659;

-------
TIMINGS
-------

Total SCF time: 0 days 0 hours 1 min 35 sec 

Total time                  ....      95.024 sec
Sum of individual times     ....      94.649 sec  ( 99.6%)

Fock matrix formation       ....      93.884 sec  ( 98.8%)
  XC integration            ....       0.065 sec  (  0.1% of F)
    Basis function eval.    ....       0.031 sec  ( 47.5% of XC)
    Density eval.           ....       0.004 sec  (  5.7% of XC)
    XC-Functional eval.     ....       0.002 sec  (  3.8% of XC)
    XC-Potential eval.      ....       0.008 sec  ( 12.9% of XC)
Diagonalization             ....       0.003 sec  (  0.0%)
Density matrix formation    ....       0.001 sec  (  0.0%)
Population analysis         ....       0.001 sec  (  0.0%)
Initial guess               ....       0.087 sec  (  0.1%)
Orbital Transformation      ....       0.000 sec  (  0.0%)
Orbital Orthonormalization  ....       0.000 sec  (  0.0%)
DIIS solution               ....       0.000 sec  (  0.0%)
SOSCF solution              ....       0.001 sec  (  0.0%)
Grid generation             ....       0.670 sec  (  0.7%)

-------------------------   --------------------
FINAL SINGLE POINT ENERGY     -1249.304648636740
-------------------------   --------------------


                            ***************************************
                            *     ORCA property calculations      *
                            ***************************************

                                    ---------------------
                                    Active property flags
                                    ---------------------
   (+) Dipole Moment


------------------------------------------------------------------------------
                       ORCA ELECTRIC PROPERTIES CALCULATION
------------------------------------------------------------------------------

Dipole Moment Calculation                       ... on
Quadrupole Moment Calculation                   ... off
Polarizability Calculation                      ... off
GBWName                                         ... Kr_ano-rcc-qzp_4385.151648_.gbw
Electron density file                           ... Kr_ano-rcc-qzp_4385.151648_.scfp
The origin for moment calculation is the CENTER OF MASS  = ( 0.000000,  0.000000  0.000000)

-------------
DIPOLE MOMENT
-------------
                                X             Y             Z
Electronic contribution:      0.00000      -0.00000      -0.00000
Nuclear contribution   :      0.00000       0.00000       0.00000
                        -----------------------------------------
Total Dipole Moment    :      0.00000      -0.00000      -0.00000
                        -----------------------------------------
Magnitude (a.u.)       :      0.00000
Magnitude (Debye)      :      0.00000



--------------------
Rotational spectrum 
--------------------
 
Rotational constants in cm-1:     0.000000     0.000000     0.000000 
Rotational constants in MHz :     0.000000     0.000000     0.000000 

 Dipole components along the rotational axes: 
x,y,z [a.u.] :     0.000000    -0.000000    -0.000000 
x,y,z [Debye]:     0.000000    -0.000000    -0.000000 

 

Timings for individual modules:

Sum of individual times         ...       96.701 sec (=   1.612 min)
GTO integral calculation        ...        0.847 sec (=   0.014 min)   0.9 %
Relativistic integrals          ...        0.507 sec (=   0.008 min)   0.5 %
SCF iterations                  ...       95.347 sec (=   1.589 min)  98.6 %
                             ****ORCA TERMINATED NORMALLY****
TOTAL RUN TIME: 0 days 0 hours 1 minutes 37 seconds 86 msec
