
                                 *****************
                                 * O   R   C   A *
                                 *****************

           --- An Ab Initio, DFT and Semiempirical electronic structure package ---

                  #######################################################
                  #                        -***-                        #
                  #          Department of theory and spectroscopy      #
                  #               Directorship: Frank Neese             #
                  #        Max Planck Institute fuer Kohlenforschung    #
                  #                Kaiser Wilhelm Platz 1               #
                  #                 D-45470 Muelheim/Ruhr               #
                  #                      Germany                        #
                  #                                                     #
                  #                  All rights reserved                #
                  #                        -***-                        #
                  #######################################################


                         Program Version 4.2.1 -  RELEASE  -


 With contributions from (in alphabetic order):
   Daniel Aravena         : Magnetic Suceptibility
   Michael Atanasov       : Ab Initio Ligand Field Theory (pilot matlab implementation)
   Alexander A. Auer      : GIAO ZORA, VPT2
   Ute Becker             : Parallelization
   Giovanni Bistoni       : ED, misc. LED, open-shell LED, HFLD
   Martin Brehm           : Molecular dynamics
   Dmytro Bykov           : SCF Hessian
   Vijay G. Chilkuri      : MRCI spin determinant printing, contributions to CSF-ICE
   Dipayan Datta          : RHF DLPNO-CCSD density
   Achintya Kumar Dutta   : EOM-CC, STEOM-CC
   Dmitry Ganyushin       : Spin-Orbit,Spin-Spin,Magnetic field MRCI
   Miquel Garcia          : C-PCM Hessian, Gaussian charge scheme
   Yang Guo               : DLPNO-NEVPT2, CIM, IAO-localization
   Andreas Hansen         : Spin unrestricted coupled pair/coupled cluster methods
   Benjamin Helmich-Paris : CASSCF linear response (MC-RPA)
   Lee Huntington         : MR-EOM, pCC
   Robert Izsak           : Overlap fitted RIJCOSX, COSX-SCS-MP3, EOM
   Christian Kollmar      : KDIIS, OOCD, Brueckner-CCSD(T), CCSD density
   Simone Kossmann        : Meta GGA functionals, TD-DFT gradient, OOMP2, MP2 Hessian
   Martin Krupicka        : AUTO-CI
   Lucas Lang             : DCDCAS
   Dagmar Lenk            : GEPOL surface, SMD
   Dimitrios Liakos       : Extrapolation schemes; Compound Job, initial MDCI parallelization
   Dimitrios Manganas     : Further ROCIS development; embedding schemes
   Dimitrios Pantazis     : SARC Basis sets
   Taras Petrenko         : DFT Hessian,TD-DFT gradient, ASA, ECA, R-Raman, ABS, FL, XAS/XES, NRVS
   Peter Pinski           : DLPNO-MP2, DLPNO-MP2 Gradient
   Christoph Reimann      : Effective Core Potentials
   Marius Retegan         : Local ZFS, SOC
   Christoph Riplinger    : Optimizer, TS searches, QM/MM, DLPNO-CCSD(T), (RO)-DLPNO pert. Triples
   Tobias Risthaus        : Range-separated hybrids, TD-DFT gradient, RPA, STAB
   Michael Roemelt        : Original ROCIS implementation
   Masaaki Saitow         : Open-shell DLPNO-CCSD energy and density
   Barbara Sandhoefer     : DKH picture change effects
   Avijit Sen             : IP-ROCIS
   Kantharuban Sivalingam : CASSCF convergence, NEVPT2, FIC-MRCI
   Bernardo de Souza      : ESD, SOC TD-DFT
   Georgi Stoychev        : AutoAux, RI-MP2 NMR
   Willem Van den Heuvel  : Paramagnetic NMR
   Boris Wezisla          : Elementary symmetry handling
   Frank Wennmohs         : Technical directorship


 We gratefully acknowledge several colleagues who have allowed us to
 interface, adapt or use parts of their codes:
   Stefan Grimme, W. Hujo, H. Kruse,             : VdW corrections, initial TS optimization,
                  C. Bannwarth                     DFT functionals, gCP, sTDA/sTD-DF
   Ed Valeev, F. Pavosevic, A. Kumar             : LibInt (2-el integral package), F12 methods
   Garnet Chan, S. Sharma, J. Yang, R. Olivares  : DMRG
   Ulf Ekstrom                                   : XCFun DFT Library
   Mihaly Kallay                                 : mrcc  (arbitrary order and MRCC methods)
   Andreas Klamt, Michael Diedenhofen            : otool_cosmo (COSMO solvation model)
   Jiri Pittner, Ondrej Demel                    : Mk-CCSD
   Frank Weinhold                                : gennbo (NPA and NBO analysis)
   Christopher J. Cramer and Donald G. Truhlar   : smd solvation model
   Lars Goerigk                                  : TD-DFT with DH, B97 family of functionals
   V. Asgeirsson, H. Jonsson                     : NEB implementation
   FAccTs GmbH                                   : IRC, NEB, NEB-TS, Multilevel, MM, QM/MM, CI optimization
   S Lehtola, MJT Oliveira, MAL Marques          : LibXC Library


 Your calculation uses the libint2 library for the computation of 2-el integrals
 For citations please refer to: http://libint.valeyev.net

 Your ORCA version has been built with support for libXC version: 4.2.3
 For citations please refer to: https://tddft.org/programs/libxc/

 This ORCA versions uses:
   CBLAS   interface :  Fast vector & matrix operations
   LAPACKE interface :  Fast linear algebra routines
   SCALAPACK package :  Parallel linear algebra routines


----- Orbital basis set information -----
Your calculation utilizes the basis: ANO-RCC-QZP
   H, He:       P.-O. Widmark, P.-A. Malmqvist, and B. O. Roos, Theor. Chim. Acta 77, 291 (1990).
   s block:     B. O. Roos, V. Veryazov and P.-O. Widmark, Theor. Chem. Acc. 111, 345 (2004).
   p block:     B. O. Roos, R. Lindh, P.-A. Malmqvist, V. Veryazov, and P.-O. Widmark, J. Phys. Chem. A 108, 2851 (2004).
   d block:     B. O. Roos, R. Lindh, P.-A. Malmqvist, V. Veryazov, and P.-O. Widmark, J. Phys. Chem. A 109, 6575 (2005).
   actinides:   B. O. Roos, R. Lindh, P.-A. Malmqvist, V. Veryazov, and P.-O. Widmark, Chem. Phys. Letters 409, 295 (2005).
   lanthanides: B. O. Roos, R. Lindh, P.-A. Malmqvist, V. Veryazov, P.-O. Widmark and A. C. Borin, J. Phys. Chem. A 112, 11431 (2008).

================================================================================
                                        WARNINGS
                       Please study these warnings very carefully!
================================================================================


INFO   : the flag for use of LIBINT has been found!

================================================================================
                                       INPUT FILE
================================================================================
NAME = Kr_ano-rcc-qzp_548.143956_.inp
|  1> ! LDA ano-rcc-qzp nori grid5 finalgrid6 verytightscf
|  2> %Pal NProcs 18 End
|  3> 
|  4> % REL
|  5>   Method ZORA
|  6>   ModelPot 1, 0, 0, 0
|  7>   velit 548.143956
|  8> END
|  9> 
| 10> *xyz 34 1
| 11> Kr 0.0 0.0 0.0
| 12> **                         ****END OF INPUT****
================================================================================

                       ****************************
                       * Single Point Calculation *
                       ****************************

---------------------------------
CARTESIAN COORDINATES (ANGSTROEM)
---------------------------------
  Kr     0.000000    0.000000    0.000000

----------------------------
CARTESIAN COORDINATES (A.U.)
----------------------------
  NO LB      ZA    FRAG     MASS         X           Y           Z
   0 Kr   36.0000    0    83.800    0.000000    0.000000    0.000000

--------------------------------
INTERNAL COORDINATES (ANGSTROEM)
--------------------------------
 Kr     0   0   0     0.000000000000     0.00000000     0.00000000

---------------------------
INTERNAL COORDINATES (A.U.)
---------------------------
 Kr     0   0   0     0.000000000000     0.00000000     0.00000000

---------------------
BASIS SET INFORMATION
---------------------
There are 1 groups of distinct atoms

 Group   1 Type Kr  : 140s102p44d12f4g contracted to 7s6p4d3f2g pattern {20202020202020/171717171717/11111111/444/22}

Atom   0Kr   basis set group =>   1


           ************************************************************
           *        Program running with 18 parallel MPI-processes    *
           *              working on a common directory               *
           ************************************************************


------------------------------------------------------------------------------
                       ORCA GTO INTEGRAL CALCULATION
                     -- ANO INTEGRAL GENERATION BRANCH --
------------------------------------------------------------------------------


Gathering ANO information                         ... done
Calculation Information:
Number of atoms                                   ... 1
Number of basis functions                         ... 84
Highest angular momentum                          ... 4
Number of primitive shells                        ... 54
Total number of shells                            ... 22
Maximum number of shells                          ... 22

Getting memory                                    ... done
Making prescreening integrals                     ... done
Gathering atom contracted prescreening            ... done
Making one-electron integrals                     ... done

Timings:

Total time                                        ...    0.6 sec
Prescreening matrix                               ...    0.5 sec
One-electron matrix                               ...    0.0 sec
Two-index integrals + Cholesky                    ...    0.0 sec


           ************************************************************
           *        Program running with 18 parallel MPI-processes    *
           *              working on a common directory               *
           ************************************************************
------------------------------------------------------------------------------
                          ORCA RELATIVISTIC HAMILTONIAN
------------------------------------------------------------------------------

Relativistic Method            ... ZORA(MP)
Treatment of potential         ... Van Wuellen
Nucleus model                  ... Point Nucleus
Speed of light used            ... 548.14395600000000


            *************************************************
            *         ZERO ORDER REGULAR APPROXIMATION      *
            *                     ZORA(MP)                  *
            *            Programmed by FN according to      *
            *                   C. van Wuellen              *
            *       J. Chem. Phys. (1998) vol 109, 392-399  *
            *************************************************

Terms included in model potential: +V(e,N)
Basis function cutoff value   ... 1.000000e-12
Loading the fitted atomic densities  (DKH4)  ... done
Calculating the cutoffs                      ... done
Number of fit functions                      ... 27
Setting up the integration grid ... done


           ************************************************************
           *        Program running with 18 parallel MPI-processes    *
           *              working on a common directory               *
           ************************************************************
-------------------------------------------------------------------------------
                                 ORCA SCF
-------------------------------------------------------------------------------

------------
SCF SETTINGS
------------
Hamiltonian:
 Density Functional     Method          .... DFT(GTOs)
 Exchange Functional    Exchange        .... Slater
   X-Alpha parameter    XAlpha          ....  0.666667
 Correlation Functional Correlation     .... VWN-5
 Gradients option       PostSCFGGA      .... off
   Density functional embedding theory  .... OFF

Relativistic Settings:
 Scalar relativistic method             .... ZORA
 Speed of light used       Velit        ....       548.143956
Orbital energies will be scaled


General Settings:
 Integral files         IntName         .... Kr_ano-rcc-qzp_548.143956_
 Hartree-Fock type      HFTyp           .... RHF
 Total Charge           Charge          ....   34
 Multiplicity           Mult            ....    1
 Number of Electrons    NEL             ....    2
 Basis Dimension        Dim             ....   84
 Nuclear Repulsion      ENuc            ....      0.0000000000 Eh

Convergence Acceleration:
 DIIS                   CNVDIIS         .... on
   Start iteration      DIISMaxIt       ....    12
   Startup error        DIISStart       ....  0.200000
   # of expansion vecs  DIISMaxEq       ....     5
   Bias factor          DIISBfac        ....   1.050
   Max. coefficient     DIISMaxC        ....  10.000
 Newton-Raphson         CNVNR           .... off
 SOSCF                  CNVSOSCF        .... on
   Start iteration      SOSCFMaxIt      ....   150
   Startup grad/error   SOSCFStart      ....  0.003300
 Level Shifting         CNVShift        .... on
   Level shift para.    LevelShift      ....    0.2500
   Turn off err/grad.   ShiftErr        ....    0.0010
 Zerner damping         CNVZerner       .... off
 Static damping         CNVDamp         .... on
   Fraction old density DampFac         ....    0.7000
   Max. Damping (<1)    DampMax         ....    0.9800
   Min. Damping (>=0)   DampMin         ....    0.0000
   Turn off err/grad.   DampErr         ....    0.1000
 Fernandez-Rico         CNVRico         .... off

SCF Procedure:
 Maximum # iterations   MaxIter         ....   125
 SCF integral mode      SCFMode         .... Direct
   Integral package                     .... LIBINT
 Reset frequency        DirectResetFreq ....    20
 Integral Threshold     Thresh          ....  1.000e-12 Eh
 Primitive CutOff       TCut            ....  1.000e-14 Eh

Convergence Tolerance:
 Convergence Check Mode ConvCheckMode   .... Total+1el-Energy
 Convergence forced     ConvForced      .... 0
 Energy Change          TolE            ....  1.000e-09 Eh
 1-El. energy change                    ....  1.000e-06 Eh
 Orbital Gradient       TolG            ....  2.000e-06
 Orbital Rotation angle TolX            ....  2.000e-06
 DIIS Error             TolErr          ....  1.000e-08


Diagonalization of the overlap matrix:
Smallest eigenvalue                        ... 1.000e+00
Time for diagonalization                   ...    0.002 sec
Threshold for overlap eigenvalues          ... 1.000e-08
Number of eigenvalues below threshold      ... 0
Time for construction of square roots      ...    0.001 sec
Total time needed                          ...    0.003 sec

-------------------
DFT GRID GENERATION
-------------------

General Integration Accuracy     IntAcc      ...  5.010
Radial Grid Type                 RadialGrid  ... Gauss-Chebyshev
Angular Grid (max. acc.)         AngularGrid ... Lebedev-434
Angular grid pruning method      GridPruning ... 3 (G Style)
Weight generation scheme         WeightScheme... Becke
Basis function cutoff            BFCut       ...    1.0000e-12
Integration weight cutoff        WCut        ...    1.0000e-14
Grids for H and He will be reduced by one unit

# of grid points (after initial pruning)     ...  16106 (   0.0 sec)
# of grid points (after weights+screening)   ...  16106 (   0.0 sec)
Grid point division into batches done        ...    0.2 sec
Reduced shell lists constructed in    0.2 sec

Total number of grid points                  ...    16106
Total number of batches                      ...      252
Average number of points per batch           ...       63
Average number of grid points per atom       ...    16106
Average number of shells per batch           ...    16.53 (75.15%)
Average number of basis functions per batch  ...    57.07 (67.94%)
Average number of large shells per batch     ...     7.73 (46.77%)
Average number of large basis fcns per batch ...    25.33 (44.39%)
Maximum spatial batch extension              ...  17.34, 17.34, 17.34 au
Average spatial batch extension              ...   0.86,  0.87,  0.87 au

Time for grid setup =    0.253 sec

------------------------------
INITIAL GUESS: MODEL POTENTIAL
------------------------------
Loading ZORA relativistic densities                ... done
Calculating cut-offs                               ... done
Setting up the integral package                    ... done
Initializing the effective Hamiltonian             ... done
Starting the Coulomb interaction                   ... done (   0.0 sec)
Reading the grid                                   ... done
Mapping shells                                     ... done
Starting the XC term evaluation                    ... done (   0.0 sec)
  promolecular density results
     # of electrons  =     36.000000565
     EX              =    -91.042004939
     EC              =     -3.295965580
     EX+EC           =    -94.337970520
Transforming the Hamiltonian                       ... done (   0.0 sec)
Diagonalizing the Hamiltonian                      ... done (   0.0 sec)
Back transforming the eigenvectors                 ... done (   0.0 sec)
Now organizing SCF variables                       ... done
                      ------------------
                      INITIAL GUESS DONE (   0.3 sec)
                      ------------------
--------------
SCF ITERATIONS
--------------
ITER       Energy         Delta-E        Max-DP      RMS-DP      [F,P]     Damp
               ***  Starting incremental Fock matrix formation  ***
  0  -1253.8399612736   0.000000000000 0.00447689  0.00005763  6.8399188 0.7000
  1  -1253.8585073063  -0.018546032626 0.00312900  0.00004028  4.7777742 0.7000
  2  -1253.8714531218  -0.012945815590 0.00218524  0.00002813  3.3366219 0.7000
                      *** Initiating the SOSCF procedure ***
                      *** Re-Reading the Fockian *** 
                      *** Removing any level shift *** 
ITER      Energy       Delta-E        Grad      Rot      Max-DP    RMS-DP
  3  -1253.88049749  -0.0090443672  0.002774  0.002774  0.005087  0.000065
               *** Restarting incremental Fock matrix formation ***
  4  -1253.90154482  -0.0210473324  0.006426  0.000014  0.000027  0.000000
  5  -1253.90154503  -0.0000002083  0.000034  0.000000  0.000000  0.000000
                 **** Energy Check signals convergence ****
              ***Rediagonalizing the Fockian in SOSCF/NRSCF***

               *****************************************************
               *                     SUCCESS                       *
               *           SCF CONVERGED AFTER   6 CYCLES          *
               *****************************************************

Setting up the final grid:

General Integration Accuracy     IntAcc      ...  5.340
Radial Grid Type                 RadialGrid  ... Gauss-Chebyshev
Angular Grid (max. acc.)         AngularGrid ... Lebedev-590
Angular grid pruning method      GridPruning ... 3 (G Style)
Weight generation scheme         WeightScheme... Becke
Basis function cutoff            BFCut       ...    1.0000e-12
Integration weight cutoff        WCut        ...    1.0000e-14
Grids for H and He will be reduced by one unit

# of grid points (after initial pruning)     ...  24180 (   0.0 sec)
# of grid points (after weights+screening)   ...  24180 (   0.0 sec)
Grid point division into batches done        ...    0.4 sec
Reduced shell lists constructed in    0.4 sec

Total number of grid points                  ...    24180
Total number of batches                      ...      378
Average number of points per batch           ...       63
Average number of grid points per atom       ...    24180
Average number of shells per batch           ...    14.18 (64.46%)
Average number of basis functions per batch  ...    46.64 (55.52%)
Average number of large shells per batch     ...     5.73 (40.38%)
Average number of large basis fcns per batch ...    15.27 (32.75%)
Maximum spatial batch extension              ...  17.58, 17.58, 17.58 au
Average spatial batch extension              ...   0.77,  0.77,  0.77 au

Final grid set up in    0.4 sec
Final integration                            ... done (   0.0 sec)
Change in XC energy                          ...    -0.000014983
Integrated number of electrons               ...     2.000000075
Previous integrated no of electrons          ...     1.999999430

----------------
TOTAL SCF ENERGY
----------------

Total Energy       :        -1253.90156001 Eh          -34120.39610 eV

Components:
Nuclear Repulsion  :            0.00000000 Eh               0.00000 eV
Electronic Energy  :        -1253.90156001 Eh          -34120.39610 eV
One Electron Energy:        -1279.58093618 Eh          -34819.16745 eV
Two Electron Energy:           25.67937617 Eh             698.77135 eV

Virial components:
Potential Energy   :        -2675.18351046 Eh          -72795.44417 eV
Kinetic Energy     :         1421.28195044 Eh           38675.04807 eV
Virial Ratio       :            1.88223280


DFT components:
N(Alpha)           :        1.000000037520 electrons
N(Beta)            :        1.000000037520 electrons
N(Total)           :        2.000000075039 electrons
E(X)               :      -19.621129263200 Eh       
E(C)               :       -0.278942362787 Eh       
E(XC)              :      -19.900071625987 Eh       
DFET-embed. en.    :        0.000000000000 Eh       

---------------
SCF CONVERGENCE
---------------

  Last Energy change         ...   -5.2296e-12  Tolerance :   1.0000e-09
  Last MAX-Density change    ...    0.0000e+00  Tolerance :   1.0000e-08
  Last RMS-Density change    ...    0.0000e+00  Tolerance :   1.0000e-09
  Last Orbital Gradient      ...    1.3538e-11  Tolerance :   2.0000e-06
  Last Orbital Rotation      ...    0.0000e+00  Tolerance :   2.0000e-06

================================================================================
                                        WARNING
Number of found core electrons (2) does not match given number of chemical core electrons (18)
================================================================================
             **** THE GBW FILE WAS UPDATED (Kr_ano-rcc-qzp_548.143956_.gbw) ****
             **** DENSITY FILE WAS UPDATED (Kr_ano-rcc-qzp_548.143956_.scfp) ****
             **** ENERGY FILE WAS UPDATED (Kr_ano-rcc-qzp_548.143956_.en.tmp) ****
             **** THE GBW FILE WAS UPDATED (Kr_ano-rcc-qzp_548.143956_.gbw) ****
             **** DENSITY FILE WAS UPDATED (Kr_ano-rcc-qzp_548.143956_.scfp) ****
----------------
ORBITAL ENERGIES
----------------

  NO   OCC          E(Eh)            E(eV) 
   0   2.0000    -607.441073    -16529.3119 
   1   0.0000    -147.764457     -4020.8753 
   2   0.0000    -146.837817     -3995.6601 
   3   0.0000    -146.837817     -3995.6601 
   4   0.0000    -146.837817     -3995.6601 
   5   0.0000     -62.885988     -1711.2147 
   6   0.0000     -61.408893     -1671.0209 
   7   0.0000     -61.408893     -1671.0209 
   8   0.0000     -61.408893     -1671.0209 
   9   0.0000     -56.944026     -1549.5257 
  10   0.0000     -56.944026     -1549.5257 
  11   0.0000     -56.944026     -1549.5257 
  12   0.0000     -56.944026     -1549.5257 
  13   0.0000     -56.944026     -1549.5257 
  14   0.0000     -32.064852      -872.5290 
  15   0.0000     -31.054762      -845.0430 
  16   0.0000     -31.054762      -845.0430 
  17   0.0000     -31.054762      -845.0430 
  18   0.0000     -24.547906      -667.9825 
  19   0.0000     -24.547906      -667.9825 
  20   0.0000     -24.547906      -667.9825 
  21   0.0000     -24.547906      -667.9825 
  22   0.0000     -24.547906      -667.9825 
  23   0.0000     -24.450194      -665.3236 
  24   0.0000     -24.450194      -665.3236 
  25   0.0000     -24.450194      -665.3236 
  26   0.0000     -24.450194      -665.3236 
  27   0.0000     -24.450194      -665.3236 
  28   0.0000     -24.450194      -665.3236 
  29   0.0000     -24.450194      -665.3236 
  30   0.0000     -18.900758      -514.3158 
  31   0.0000     -18.470043      -502.5954 
  32   0.0000     -18.470043      -502.5954 
  33   0.0000     -18.470043      -502.5954 
  34   0.0000     -15.768183      -429.0741 
  35   0.0000     -15.768183      -429.0741 
  36   0.0000     -15.768183      -429.0741 
  37   0.0000     -15.768183      -429.0741 
  38   0.0000     -15.768183      -429.0741 
  39   0.0000     -15.768183      -429.0741 
  40   0.0000     -15.768183      -429.0741 
  41   0.0000     -15.768183      -429.0741 
  42   0.0000     -15.768183      -429.0741 
  43   0.0000     -14.820261      -403.2798 
  44   0.0000     -14.820261      -403.2798 
  45   0.0000     -14.820261      -403.2798 
  46   0.0000     -14.820261      -403.2798 
  47   0.0000     -14.820261      -403.2798 
  48   0.0000     -14.820261      -403.2798 
  49   0.0000     -14.820261      -403.2798 
  50   0.0000     -14.344863      -390.3436 
  51   0.0000     -14.344863      -390.3436 
  52   0.0000     -14.344863      -390.3436 
  53   0.0000     -14.344863      -390.3436 
  54   0.0000     -14.344863      -390.3436 
  55   0.0000     -12.128588      -330.0357 
  56   0.0000     -11.869537      -322.9865 
  57   0.0000     -11.869537      -322.9865 
  58   0.0000     -11.869537      -322.9865 
  59   0.0000      -9.828019      -267.4340 
  60   0.0000      -9.828019      -267.4340 
  61   0.0000      -9.828019      -267.4340 
  62   0.0000      -9.828019      -267.4340 
  63   0.0000      -9.828019      -267.4340 
  64   0.0000      -9.828019      -267.4340 
  65   0.0000      -9.828019      -267.4340 
  66   0.0000      -9.828019      -267.4340 
  67   0.0000      -9.828019      -267.4340 
  68   0.0000      -9.656819      -262.7754 
  69   0.0000      -9.656819      -262.7754 
  70   0.0000      -9.656819      -262.7754 
  71   0.0000      -9.656819      -262.7754 
  72   0.0000      -9.656819      -262.7754 
  73   0.0000      -9.656819      -262.7754 
  74   0.0000      -9.656819      -262.7754 
  75   0.0000      -9.272957      -252.3300 
  76   0.0000      -9.272957      -252.3300 
  77   0.0000      -9.272957      -252.3300 
  78   0.0000      -9.272957      -252.3300 
  79   0.0000      -9.272957      -252.3300 
  80   0.0000      -7.947279      -216.2564 
  81   0.0000      -7.493518      -203.9090 
  82   0.0000      -7.493518      -203.9090 
  83   0.0000      -7.493518      -203.9090 

                    ********************************
                    * MULLIKEN POPULATION ANALYSIS *
                    ********************************

-----------------------
MULLIKEN ATOMIC CHARGES
-----------------------
   0 Kr:   34.000000
Sum of atomic charges:   34.0000000

--------------------------------
MULLIKEN REDUCED ORBITAL CHARGES
--------------------------------
  0 Krs       :     2.000000  s :     2.000000
      pz      :     0.000000  p :     0.000000
      px      :     0.000000
      py      :     0.000000
      dz2     :     0.000000  d :     0.000000
      dxz     :     0.000000
      dyz     :     0.000000
      dx2y2   :     0.000000
      dxy     :     0.000000
      f0      :     0.000000  f :     0.000000
      f+1     :     0.000000
      f-1     :     0.000000
      f+2     :     0.000000
      f-2     :     0.000000
      f+3     :     0.000000
      f-3     :     0.000000
      g0      :     0.000000  g :     0.000000
      g+1     :     0.000000
      g-1     :     0.000000
      g+2     :     0.000000
      g-2     :     0.000000
      g+3     :     0.000000
      g-3     :     0.000000
      g+4     :     0.000000
      g-4     :     0.000000


                     *******************************
                     * LOEWDIN POPULATION ANALYSIS *
                     *******************************

----------------------
LOEWDIN ATOMIC CHARGES
----------------------
   0 Kr:   34.000000

-------------------------------
LOEWDIN REDUCED ORBITAL CHARGES
-------------------------------
  0 Krs       :     2.000000  s :     2.000000
      pz      :     0.000000  p :     0.000000
      px      :     0.000000
      py      :     0.000000
      dz2     :     0.000000  d :     0.000000
      dxz     :     0.000000
      dyz     :     0.000000
      dx2y2   :     0.000000
      dxy     :     0.000000
      f0      :     0.000000  f :     0.000000
      f+1     :     0.000000
      f-1     :     0.000000
      f+2     :     0.000000
      f-2     :     0.000000
      f+3     :     0.000000
      f-3     :     0.000000
      g0      :     0.000000  g :     0.000000
      g+1     :     0.000000
      g-1     :     0.000000
      g+2     :     0.000000
      g-2     :     0.000000
      g+3     :     0.000000
      g-3     :     0.000000
      g+4     :     0.000000
      g-4     :     0.000000


                      *****************************
                      * MAYER POPULATION ANALYSIS *
                      *****************************

  NA   - Mulliken gross atomic population
  ZA   - Total nuclear charge
  QA   - Mulliken gross atomic charge
  VA   - Mayer's total valence
  BVA  - Mayer's bonded valence
  FA   - Mayer's free valence

  ATOM       NA         ZA         QA         VA         BVA        FA
  0 Kr     2.0000    36.0000    34.0000    -0.0000     0.0000    -0.0000

  Mayer bond orders larger than 0.100000


--------------------------
ATOM BASIS FOR ELEMENT Kr
--------------------------
 NewGTO Kr
 S 139
    1   18535881.300000000745         0.000137345165
    2    2419299.990000000224         0.000443172131
    3     474949.065000000002         0.001295240095
    4     117392.346000000005         0.003458766403
    5      34065.440100000000         0.008980659959
    6      11133.885300000000         0.023267556768
    7       3988.280760000000         0.059848235527
    8       1534.678610000000         0.144118603111
    9        624.475513000000         0.287655029107
   10        265.735250000000         0.382468257910
   11        116.709586000000         0.227387548864
   12         50.306071000000         0.027102452544
   13         23.036081700000         0.000594165822
   14         10.586238100000        -0.000552230351
   15          4.798113940000         0.000380638886
   16          2.133543170000        -0.000271690653
   17          0.857316380000         0.000151513634
   18          0.378404470000        -0.000084020925
   19          0.152386050000         0.000035796134
   20          0.060954420000        -0.000009808940
   21   18535881.300000000745        -0.000000578644
   22    2419299.990000000224        -0.000001869125
   23     474949.065000000002        -0.000005473402
   24     117392.346000000005        -0.000014669071
   25      34065.440100000000        -0.000038355917
   26      11133.885300000000        -0.000100664288
   27       3988.280760000000        -0.000266039625
   28       1534.678610000000        -0.000678131025
   29        624.475513000000        -0.001537375514
   30        265.735250000000        -0.002660493709
   31        116.709586000000        -0.002128508928
   32         50.306071000000         0.003584584259
   33         23.036081700000         0.008451104258
   34         10.586238100000         0.003273891594
   35          4.798113940000         0.000133966525
   36          2.133543170000         0.000036658190
   37          0.857316380000        -0.000012019888
   38          0.378404470000         0.000005566313
   39          0.152386050000        -0.000002588109
   40   18535881.300000000745        -0.000000093529
   41    2419299.990000000224        -0.000000302130
   42     474949.065000000002        -0.000000885056
   43     117392.346000000005        -0.000002373069
   44      34065.440100000000        -0.000006210990
   45      11133.885300000000        -0.000016327295
   46       3988.280760000000        -0.000043305989
   47       1534.678610000000        -0.000111230382
   48        624.475513000000        -0.000256581511
   49        265.735250000000        -0.000461305681
   50        116.709586000000        -0.000394677027
   51         50.306071000000         0.000823418673
   52         23.036081700000         0.002782171924
   53         10.586238100000         0.001119359334
   54          4.798113940000        -0.003634753110
   55          2.133543170000        -0.003093588419
   56          0.857316380000        -0.000168452049
   57          0.378404470000        -0.000031253848
   58          0.152386050000         0.000012925200
   59          0.060954420000        -0.000004310678
   60   18535881.300000000745        -0.000000009685
   61    2419299.990000000224        -0.000000031284
   62     474949.065000000002        -0.000000091623
   63     117392.346000000005        -0.000000245662
   64      34065.440100000000        -0.000000643101
   65      11133.885300000000        -0.000001690946
   66       3988.280760000000        -0.000004487647
   67       1534.678610000000        -0.000011539990
   68        624.475513000000        -0.000026693609
   69        265.735250000000        -0.000048279494
   70        116.709586000000        -0.000041789822
   71         50.306071000000         0.000090199411
   72         23.036081700000         0.000323291043
   73         10.586238100000         0.000134410194
   74          4.798113940000        -0.000558946415
   75          2.133543170000        -0.000871540805
   76          0.857316380000         0.000357047149
   77          0.378404470000         0.001308371561
   78          0.152386050000         0.000494519746
   79          0.060954420000        -0.000001532986
   80   18535881.300000000745        -0.000000012735
   81    2419299.990000000224        -0.000000041164
   82     474949.065000000002        -0.000000120322
   83     117392.346000000005        -0.000000324279
   84      34065.440100000000        -0.000000840489
   85      11133.885300000000        -0.000002248514
   86       3988.280760000000        -0.000005813889
   87       1534.678610000000        -0.000015517087
   88        624.475513000000        -0.000034150145
   89        265.735250000000        -0.000066918600
   90        116.709586000000        -0.000046914647
   91         50.306071000000         0.000099513987
   92         23.036081700000         0.000503296308
   93         10.586238100000         0.000028067144
   94          4.798113940000        -0.000571771089
   95          2.133543170000        -0.002095157860
   96          0.857316380000         0.003514382080
   97          0.378404470000         0.000720986364
   98          0.152386050000        -0.002590732160
   99          0.060954420000        -0.000059723175
  100   18535881.300000000745        -0.000000020554
  101    2419299.990000000224        -0.000000066291
  102     474949.065000000002        -0.000000195219
  103     117392.346000000005        -0.000000517514
  104      34065.440100000000        -0.000001385404
  105      11133.885300000000        -0.000003507578
  106       3988.280760000000        -0.000009862750
  107       1534.678610000000        -0.000023444760
  108        624.475513000000        -0.000060604890
  109        265.735250000000        -0.000093493738
  110        116.709586000000        -0.000117269512
  111         50.306071000000         0.000286972254
  112         23.036081700000         0.000576776468
  113         10.586238100000         0.000613341590
  114          4.798113940000        -0.002665611991
  115          2.133543170000        -0.001413228687
  116          0.857316380000         0.009801584561
  117          0.378404470000        -0.010944944195
  118          0.152386050000         0.003688363233
  119          0.060954420000         0.001094108495
  120   18535881.300000000745        -0.000000026214
  121    2419299.990000000224        -0.000000083759
  122     474949.065000000002        -0.000000251989
  123     117392.346000000005        -0.000000636990
  124      34065.440100000000        -0.000001866396
  125      11133.885300000000        -0.000004016413
  126       3988.280760000000        -0.000014277815
  127       1534.678610000000        -0.000023897466
  128        624.475513000000        -0.000096753761
  129        265.735250000000        -0.000064091802
  130        116.709586000000        -0.000299637755
  131         50.306071000000         0.000808629666
  132         23.036081700000        -0.000252823305
  133         10.586238100000         0.003017509870
  134          4.798113940000        -0.009409717148
  135          2.133543170000         0.010080263359
  136          0.857316380000        -0.002662610861
  137          0.378404470000        -0.006085359540
  138          0.152386050000         0.010167101507
  139          0.060954420000        -0.006145834406
 S 138
    1   18535881.300000000745         0.000001839597
    2    2419299.990000000224         0.000005935835
    3     474949.065000000002         0.000017348410
    4     117392.346000000005         0.000046326622
    5      34065.440100000000         0.000120286713
    6      11133.885300000000         0.000311645017
    7       3988.280760000000         0.000801605624
    8       1534.678610000000         0.001930320613
    9        624.475513000000         0.003852843562
   10        265.735250000000         0.005122769346
   11        116.709586000000         0.003045622587
   12         50.306071000000         0.000363009505
   13         23.036081700000         0.000007958241
   14         10.586238100000        -0.000007396558
   15          4.798113940000         0.000005098267
   16          2.133543170000        -0.000003639017
   17          0.857316380000         0.000002029369
   18          0.378404470000        -0.000001125374
   19   18535881.300000000745         0.000044435346
   20    2419299.990000000224         0.000143534249
   21     474949.065000000002         0.000420314663
   22     117392.346000000005         0.001126470440
   23      34065.440100000000         0.002945435756
   24      11133.885300000000         0.007730233381
   25       3988.280760000000         0.020429771358
   26       1534.678610000000         0.052075181632
   27        624.475513000000         0.118058466806
   28        265.735250000000         0.204305197638
   29        116.709586000000         0.163452909469
   30         50.306071000000        -0.275268155322
   31         23.036081700000        -0.648978992174
   32         10.586238100000        -0.251409378288
   33          4.798113940000        -0.010287585816
   34          2.133543170000        -0.002815063470
   35          0.857316380000         0.000923033792
   36          0.378404470000        -0.000427449465
   37          0.152386050000         0.000198746638
   38          0.060954420000        -0.000051829595
   39   18535881.300000000745         0.000001017689
   40    2419299.990000000224         0.000003287482
   41     474949.065000000002         0.000009630301
   42     117392.346000000005         0.000025821375
   43      34065.440100000000         0.000067581815
   44      11133.885300000000         0.000177657397
   45       3988.280760000000         0.000471212715
   46       1534.678610000000         0.001210298432
   47        624.475513000000         0.002791864912
   48        265.735250000000         0.005019469797
   49        116.709586000000         0.004294483018
   50         50.306071000000        -0.008959623358
   51         23.036081700000        -0.030272828863
   52         10.586238100000        -0.012179755416
   53          4.798113940000         0.039549769697
   54          2.133543170000         0.033661353546
   55          0.857316380000         0.001832927719
   56          0.378404470000         0.000340073298
   57          0.152386050000        -0.000140639172
   58          0.060954420000         0.000046904509
   59   18535881.300000000745         0.000000078810
   60    2419299.990000000224         0.000000254564
   61     474949.065000000002         0.000000745556
   62     117392.346000000005         0.000001999013
   63      34065.440100000000         0.000005233076
   64      11133.885300000000         0.000013759662
   65       3988.280760000000         0.000036517133
   66       1534.678610000000         0.000093903849
   67        624.475513000000         0.000217212729
   68        265.735250000000         0.000392862592
   69        116.709586000000         0.000340054477
   70         50.306071000000        -0.000733975683
   71         23.036081700000        -0.002630701932
   72         10.586238100000        -0.001093730141
   73          4.798113940000         0.004548289990
   74          2.133543170000         0.007091950520
   75          0.857316380000        -0.002905384003
   76          0.378404470000        -0.010646554151
   77          0.152386050000        -0.004024033702
   78          0.060954420000         0.000012474300
   79   18535881.300000000745         0.000000094487
   80    2419299.990000000224         0.000000305408
   81     474949.065000000002         0.000000892710
   82     117392.346000000005         0.000002405926
   83      34065.440100000000         0.000006235856
   84      11133.885300000000         0.000016682439
   85       3988.280760000000         0.000043135088
   86       1534.678610000000         0.000115126186
   87        624.475513000000         0.000253370756
   88        265.735250000000         0.000496490316
   89        116.709586000000         0.000348074643
   90         50.306071000000        -0.000738325823
   91         23.036081700000        -0.003734114906
   92         10.586238100000        -0.000208239043
   93          4.798113940000         0.004242151018
   94          2.133543170000         0.015544640533
   95          0.857316380000        -0.026074315053
   96          0.378404470000        -0.005349226461
   97          0.152386050000         0.019221463408
   98          0.060954420000         0.000443105173
   99   18535881.300000000745         0.000000132252
  100    2419299.990000000224         0.000000426529
  101     474949.065000000002         0.000001256083
  102     117392.346000000005         0.000003329810
  103      34065.440100000000         0.000008914018
  104      11133.885300000000         0.000022568589
  105       3988.280760000000         0.000063459280
  106       1534.678610000000         0.000150849159
  107        624.475513000000         0.000389946271
  108        265.735250000000         0.000601560933
  109        116.709586000000         0.000754539918
  110         50.306071000000        -0.001846447704
  111         23.036081700000        -0.003711116910
  112         10.586238100000        -0.003946385601
  113          4.798113940000         0.017151181242
  114          2.133543170000         0.009093049334
  115          0.857316380000        -0.063065725181
  116          0.378404470000         0.070422372873
  117          0.152386050000        -0.023731805867
  118          0.060954420000        -0.007039754158
  119   18535881.300000000745         0.000000139234
  120    2419299.990000000224         0.000000444881
  121     474949.065000000002         0.000001338423
  122     117392.346000000005         0.000003383337
  123      34065.440100000000         0.000009913255
  124      11133.885300000000         0.000021332945
  125       3988.280760000000         0.000075835790
  126       1534.678610000000         0.000126930010
  127        624.475513000000         0.000513902017
  128        265.735250000000         0.000340419909
  129        116.709586000000         0.001591508646
  130         50.306071000000        -0.004294989814
  131         23.036081700000         0.001342856399
  132         10.586238100000        -0.016027329571
  133          4.798113940000         0.049979169715
  134          2.133543170000        -0.053540737224
  135          0.857316380000         0.014142303960
  136          0.378404470000         0.032322036086
  137          0.152386050000        -0.054001973039
  138          0.060954420000         0.032643244849
 S 138
    1   18535881.300000000745         0.000000748126
    2    2419299.990000000224         0.000002413980
    3     474949.065000000002         0.000007055236
    4     117392.346000000005         0.000018840069
    5      34065.440100000000         0.000048918092
    6      11133.885300000000         0.000126739516
    7       3988.280760000000         0.000325996256
    8       1534.678610000000         0.000785021055
    9        624.475513000000         0.001566870963
   10        265.735250000000         0.002083323241
   11        116.709586000000         0.001238591061
   12         50.306071000000         0.000147628380
   13         23.036081700000         0.000003236450
   14         10.586238100000        -0.000003008026
   15          4.798113940000         0.000002073359
   16          2.133543170000        -0.000001479912
   17          0.857316380000         0.000000825302
   18          0.378404470000        -0.000000457666
   19   18535881.300000000745        -0.000002803059
   20    2419299.990000000224        -0.000009054389
   21     474949.065000000002        -0.000026514177
   22     117392.346000000005        -0.000071059708
   23      34065.440100000000        -0.000185803192
   24      11133.885300000000        -0.000487636518
   25       3988.280760000000        -0.001288745382
   26       1534.678610000000        -0.003284992704
   27        624.475513000000        -0.007447332682
   28        265.735250000000        -0.012887925930
   29        116.709586000000        -0.010310892794
   30         50.306071000000         0.017364392280
   31         23.036081700000         0.040938719512
   32         10.586238100000         0.015859339277
   33          4.798113940000         0.000648958742
   34          2.133543170000         0.000177579082
   35          0.857316380000        -0.000058226571
   36          0.378404470000         0.000026964253
   37          0.152386050000        -0.000012537282
   38          0.060954420000         0.000003269501
   39   18535881.300000000745         0.000017030123
   40    2419299.990000000224         0.000055013090
   41     474949.065000000002         0.000161154540
   42     117392.346000000005         0.000432097806
   43      34065.440100000000         0.001130921715
   44      11133.885300000000         0.002972938905
   45       3988.280760000000         0.007885326676
   46       1534.678610000000         0.020253270357
   47        624.475513000000         0.046719382079
   48        265.735250000000         0.083996373279
   49        116.709586000000         0.071864362808
   50         50.306071000000        -0.149931347007
   51         23.036081700000        -0.506588929919
   52         10.586238100000        -0.203817399787
   53          4.798113940000         0.661830303338
   54          2.133543170000         0.563292883850
   55          0.857316380000         0.030672419024
   56          0.378404470000         0.005690824892
   57          0.152386050000        -0.002353471758
   58          0.060954420000         0.000784905337
   59   18535881.300000000745         0.000000966856
   60    2419299.990000000224         0.000003123045
   61     474949.065000000002         0.000009146657
   62     117392.346000000005         0.000024524350
   63      34065.440100000000         0.000064200569
   64      11133.885300000000         0.000168806680
   65       3988.280760000000         0.000448000534
   66       1534.678610000000         0.001152033871
   67        624.475513000000         0.002664815388
   68        265.735250000000         0.004819728048
   69        116.709586000000         0.004171866025
   70         50.306071000000        -0.009004581390
   71         23.036081700000        -0.032274052382
   72         10.586238100000        -0.013418131275
   73          4.798113940000         0.055799460831
   74          2.133543170000         0.087005669405
   75          0.857316380000        -0.035643914801
   76          0.378404470000        -0.130614358934
   77          0.152386050000        -0.049367764901
   78          0.060954420000         0.000153037562
   79   18535881.300000000745         0.000001072053
   80    2419299.990000000224         0.000003465174
   81     474949.065000000002         0.000010128722
   82     117392.346000000005         0.000027297747
   83      34065.440100000000         0.000070752294
   84      11133.885300000000         0.000189279687
   85       3988.280760000000         0.000489412612
   86       1534.678610000000         0.001306226791
   87        624.475513000000         0.002874755794
   88        265.735250000000         0.005633201065
   89        116.709586000000         0.003949270278
   90         50.306071000000        -0.008377077404
   91         23.036081700000        -0.042367432701
   92         10.586238100000        -0.002362689382
   93          4.798113940000         0.048131632876
   94          2.133543170000         0.176370178278
   95          0.857316380000        -0.295840330597
   96          0.378404470000        -0.060692559759
   97          0.152386050000         0.218087573067
   98          0.060954420000         0.005027490865
   99   18535881.300000000745         0.000001325514
  100    2419299.990000000224         0.000004274941
  101     474949.065000000002         0.000012589245
  102     117392.346000000005         0.000033373435
  103      34065.440100000000         0.000089341863
  104      11133.885300000000         0.000226196504
  105       3988.280760000000         0.000636028566
  106       1534.678610000000         0.001511904548
  107        624.475513000000         0.003908285217
  108        265.735250000000         0.006029219614
  109        116.709586000000         0.007562470597
  110         50.306071000000        -0.018506252806
  111         23.036081700000        -0.037195132901
  112         10.586238100000        -0.039553142757
  113          4.798113940000         0.171899856892
  114          2.133543170000         0.091136223044
  115          0.857316380000        -0.632084110144
  116          0.378404470000         0.705817030786
  117          0.152386050000        -0.237854989387
  118          0.060954420000        -0.070556815605
  119   18535881.300000000745         0.000001176169
  120    2419299.990000000224         0.000003758093
  121     474949.065000000002         0.000011306199
  122     117392.346000000005         0.000028580412
  123      34065.440100000000         0.000083741259
  124      11133.885300000000         0.000180207977
  125       3988.280760000000         0.000640615473
  126       1534.678610000000         0.001072228931
  127        624.475513000000         0.004341137375
  128        265.735250000000         0.002875664120
  129        116.709586000000         0.013444114715
  130         50.306071000000        -0.036281509309
  131         23.036081700000         0.011343649006
  132         10.586238100000        -0.135389309908
  133          4.798113940000         0.422194181992
  134          2.133543170000        -0.452280177610
  135          0.857316380000         0.119465739148
  136          0.378404470000         0.273037260594
  137          0.152386050000        -0.456176422360
  138          0.060954420000         0.275750640420
 S 136
    1   18535881.300000000745         0.000000302167
    2    2419299.990000000224         0.000000975003
    3     474949.065000000002         0.000002849601
    4     117392.346000000005         0.000007609479
    5      34065.440100000000         0.000019757954
    6      11133.885300000000         0.000051189924
    7       3988.280760000000         0.000131669461
    8       1534.678610000000         0.000317068976
    9        624.475513000000         0.000632857130
   10        265.735250000000         0.000841451529
   11        116.709586000000         0.000500265308
   12         50.306071000000         0.000059626909
   13         23.036081700000         0.000001307198
   14         10.586238100000        -0.000001214938
   15          4.798113940000         0.000000837427
   16          2.133543170000        -0.000000597735
   17          0.857316380000         0.000000333338
   18   18535881.300000000745        -0.000000427050
   19    2419299.990000000224        -0.000001379451
   20     474949.065000000002        -0.000004039478
   21     117392.346000000005        -0.000010826061
   22      34065.440100000000        -0.000028307415
   23      11133.885300000000        -0.000074292207
   24       3988.280760000000        -0.000196342430
   25       1534.678610000000        -0.000500473918
   26        624.475513000000        -0.001134613103
   27        265.735250000000        -0.001963496228
   28        116.709586000000        -0.001570881088
   29         50.306071000000         0.002645493071
   30         23.036081700000         0.006237079711
   31         10.586238100000         0.002416195827
   32          4.798113940000         0.000098869907
   33          2.133543170000         0.000027054459
   34          0.857316380000        -0.000008870912
   35          0.378404470000         0.000004108047
   36          0.152386050000        -0.000001910075
   37   18535881.300000000745        -0.000005488093
   38    2419299.990000000224        -0.000017728406
   39     474949.065000000002        -0.000051933333
   40     117392.346000000005        -0.000139246956
   41      34065.440100000000        -0.000364448522
   42      11133.885300000000        -0.000958053218
   43       3988.280760000000        -0.002541109266
   44       1534.678610000000        -0.006526777531
   45        624.475513000000        -0.015055692629
   46        265.735250000000        -0.027068499662
   47        116.709586000000        -0.023158862751
   48         50.306071000000         0.048316569602
   49         23.036081700000         0.163252313678
   50         10.586238100000         0.065681778890
   51          4.798113940000        -0.213280081543
   52          2.133543170000        -0.181525614035
   53          0.857316380000        -0.009884431096
   54          0.378404470000        -0.001833913604
   55          0.152386050000         0.000758425001
   56          0.060954420000        -0.000252941990
   57   18535881.300000000745         0.000003265745
   58    2419299.990000000224         0.000010548695
   59     474949.065000000002         0.000030894624
   60     117392.346000000005         0.000082835786
   61      34065.440100000000         0.000216849974
   62      11133.885300000000         0.000570177569
   63       3988.280760000000         0.001513209401
   64       1534.678610000000         0.003891219661
   65        624.475513000000         0.009000935031
   66        265.735250000000         0.016279573893
   67        116.709586000000         0.014091293235
   68         50.306071000000        -0.030414734330
   69         23.036081700000        -0.109011922540
   70         10.586238100000        -0.045322362059
   71          4.798113940000         0.188473589555
   72          2.133543170000         0.293878660834
   73          0.857316380000        -0.120394291777
   74          0.378404470000        -0.441175536628
   75          0.152386050000        -0.166749278947
   76          0.060954420000         0.000516914288
   77   18535881.300000000745         0.000003505407
   78    2419299.990000000224         0.000011330448
   79     474949.065000000002         0.000033118957
   80     117392.346000000005         0.000089258338
   81      34065.440100000000         0.000231346277
   82      11133.885300000000         0.000618907865
   83       3988.280760000000         0.001600284314
   84       1534.678610000000         0.004271108246
   85        624.475513000000         0.009399893849
   86        265.735250000000         0.018419474849
   87        116.709586000000         0.012913347796
   88         50.306071000000        -0.027391418268
   89         23.036081700000        -0.138533287215
   90         10.586238100000        -0.007725536006
   91          4.798113940000         0.157381103746
   92          2.133543170000         0.576696273669
   93          0.857316380000        -0.967340498956
   94          0.378404470000        -0.198452898297
   95          0.152386050000         0.713104062996
   96          0.060954420000         0.016438919982
   97   18535881.300000000745         0.000003926241
   98    2419299.990000000224         0.000012662593
   99     474949.065000000002         0.000037289988
  100     117392.346000000005         0.000098853824
  101      34065.440100000000         0.000264635176
  102      11133.885300000000         0.000670005635
  103       3988.280760000000         0.001883949203
  104       1534.678610000000         0.004478338744
  105        624.475513000000         0.011576541078
  106        265.735250000000         0.017858857445
  107        116.709586000000         0.022400425421
  108         50.306071000000        -0.054816469104
  109         23.036081700000        -0.110173889593
  110         10.586238100000        -0.117158435615
  111          4.798113940000         0.509176184546
  112          2.133543170000         0.269950162629
  113          0.857316380000        -1.872265523285
  114          0.378404470000         2.090666212423
  115          0.152386050000        -0.704538666649
  116          0.060954420000        -0.208992903271
  117   18535881.300000000745         0.000002890433
  118    2419299.990000000224         0.000009235506
  119     474949.065000000002         0.000027784964
  120     117392.346000000005         0.000070236309
  121      34065.440100000000         0.000205793984
  122      11133.885300000000         0.000442860761
  123       3988.280760000000         0.001574311308
  124       1534.678610000000         0.002635000561
  125        624.475513000000         0.010668336857
  126        265.735250000000         0.007066939113
  127        116.709586000000         0.033038886383
  128         50.306071000000        -0.089161740231
  129         23.036081700000         0.027876995893
  130         10.586238100000        -0.332718972008
  131          4.798113940000         1.037541400538
  132          2.133543170000        -1.111477677640
  133          0.857316380000         0.293586827102
  134          0.378404470000         0.670988549437
  135          0.152386050000        -1.121052691715
  136          0.060954420000         0.677656675208
 S 136
    1   18535881.300000000745         0.000000158945
    2    2419299.990000000224         0.000000512870
    3     474949.065000000002         0.000001498943
    4     117392.346000000005         0.000004002727
    5      34065.440100000000         0.000010393050
    6      11133.885300000000         0.000026926851
    7       3988.280760000000         0.000069260582
    8       1534.678610000000         0.000166784170
    9        624.475513000000         0.000332894604
   10        265.735250000000         0.000442619132
   11        116.709586000000         0.000263148843
   12         50.306071000000         0.000031364862
   13         23.036081700000         0.000000687610
   14         10.586238100000        -0.000000639080
   15          4.798113940000         0.000000440502
   16          2.133543170000        -0.000000314420
   17          0.857316380000         0.000000175342
   18   18535881.300000000745        -0.000000177404
   19    2419299.990000000224        -0.000000573049
   20     474949.065000000002        -0.000001678072
   21     117392.346000000005        -0.000004497341
   22      34065.440100000000        -0.000011759411
   23      11133.885300000000        -0.000030862323
   24       3988.280760000000        -0.000081564188
   25       1534.678610000000        -0.000207905895
   26        624.475513000000        -0.000471338754
   27        265.735250000000        -0.000815671759
   28        116.709586000000        -0.000652572347
   29         50.306071000000         0.001098985553
   30         23.036081700000         0.002590995445
   31         10.586238100000         0.001003731341
   32          4.798113940000         0.000041072343
   33          2.133543170000         0.000011238910
   34          0.857316380000        -0.000003685137
   35          0.378404470000         0.000001706557
   36          0.152386050000        -0.000000793480
   37   18535881.300000000745        -0.000000427938
   38    2419299.990000000224        -0.000001382384
   39     474949.065000000002        -0.000004049536
   40     117392.346000000005        -0.000010857874
   41      34065.440100000000        -0.000028418117
   42      11133.885300000000        -0.000074704840
   43       3988.280760000000        -0.000198144692
   44       1534.678610000000        -0.000508929837
   45        624.475513000000        -0.001173977689
   46        265.735250000000        -0.002110684341
   47        116.709586000000        -0.001805827791
   48         50.306071000000         0.003767516786
   49         23.036081700000         0.012729708199
   50         10.586238100000         0.005121580579
   51          4.798113940000        -0.016630656813
   52          2.133543170000        -0.014154580999
   53          0.857316380000        -0.000770745117
   54          0.378404470000        -0.000143000638
   55          0.152386050000         0.000059138696
   56          0.060954420000        -0.000019723321
   57   18535881.300000000745        -0.000004277543
   58    2419299.990000000224        -0.000013816909
   59     474949.065000000002        -0.000040466447
   60     117392.346000000005        -0.000108500105
   61      34065.440100000000        -0.000284034788
   62      11133.885300000000        -0.000746830918
   63       3988.280760000000        -0.001982034419
   64       1534.678610000000        -0.005096803717
   65        624.475513000000        -0.011789619483
   66        265.735250000000        -0.021323338174
   67        116.709586000000        -0.018457080814
   68         50.306071000000         0.039837877197
   69         23.036081700000         0.142786175151
   70         10.586238100000         0.059364210597
   71          4.798113940000        -0.246866786151
   72          2.133543170000        -0.384928629468
   73          0.857316380000         0.157695048692
   74          0.378404470000         0.577861264876
   75          0.152386050000         0.218411814005
   76          0.060954420000        -0.000677065521
   77   18535881.300000000745         0.000000544686
   78    2419299.990000000224         0.000001760577
   79     474949.065000000002         0.000005146175
   80     117392.346000000005         0.000013869369
   81      34065.440100000000         0.000035947643
   82      11133.885300000000         0.000096168735
   83       3988.280760000000         0.000248659497
   84       1534.678610000000         0.000663664336
   85        624.475513000000         0.001460598502
   86        265.735250000000         0.002862102254
   87        116.709586000000         0.002006535047
   88         50.306071000000        -0.004256203861
   89         23.036081700000        -0.021525935829
   90         10.586238100000        -0.001200429122
   91          4.798113940000         0.024454595772
   92          2.133543170000         0.089609704853
   93          0.857316380000        -0.150309791412
   94          0.378404470000        -0.030836519075
   95          0.152386050000         0.110805371097
   96          0.060954420000         0.002554354580
   97   18535881.300000000745         0.000004335017
   98    2419299.990000000224         0.000013980943
   99     474949.065000000002         0.000041172386
  100     117392.346000000005         0.000109145859
  101      34065.440100000000         0.000292187318
  102      11133.885300000000         0.000739762385
  103       3988.280760000000         0.002080094082
  104       1534.678610000000         0.004944595058
  105        624.475513000000         0.012781817337
  106        265.735250000000         0.019718208761
  107        116.709586000000         0.024732616079
  108         50.306071000000        -0.060523613263
  109         23.036081700000        -0.121644498349
  110         10.586238100000        -0.129356231140
  111          4.798113940000         0.562188389366
  112          2.133543170000         0.298055666670
  113          0.857316380000        -2.067193971257
  114          0.378404470000         2.308333159202
  115          0.152386050000        -0.777890777830
  116          0.060954420000        -0.230751922900
  117   18535881.300000000745         0.000004077554
  118    2419299.990000000224         0.000013028595
  119     474949.065000000002         0.000039196448
  120     117392.346000000005         0.000099082867
  121      34065.440100000000         0.000290315056
  122      11133.885300000000         0.000624746866
  123       3988.280760000000         0.002220892303
  124       1534.678610000000         0.003717214272
  125        624.475513000000         0.015049899649
  126        265.735250000000         0.009969381911
  127        116.709586000000         0.046608195002
  128         50.306071000000        -0.125781109184
  129         23.036081700000         0.039326278907
  130         10.586238100000        -0.469369050420
  131          4.798113940000         1.463667127251
  132          2.133543170000        -1.567969565930
  133          0.857316380000         0.414165051728
  134          0.378404470000         0.946568379887
  135          0.152386050000        -1.581477107254
  136          0.060954420000         0.955975152944
 S 134
    1   18535881.300000000745         0.000000100005
    2    2419299.990000000224         0.000000322688
    3     474949.065000000002         0.000000943106
    4     117392.346000000005         0.000002518439
    5      34065.440100000000         0.000006539108
    6      11133.885300000000         0.000016941858
    7       3988.280760000000         0.000043577430
    8       1534.678610000000         0.000104937401
    9        624.475513000000         0.000209450899
   10        265.735250000000         0.000278487468
   11        116.709586000000         0.000165568204
   12         50.306071000000         0.000019734169
   13         23.036081700000         0.000000432631
   14         10.586238100000        -0.000000402097
   15          4.798113940000         0.000000277155
   16          2.133543170000        -0.000000197827
   17   18535881.300000000745        -0.000000103210
   18    2419299.990000000224        -0.000000333387
   19     474949.065000000002        -0.000000976264
   20     117392.346000000005        -0.000002616450
   21      34065.440100000000        -0.000006841357
   22      11133.885300000000        -0.000017954994
   23       3988.280760000000        -0.000047452181
   24       1534.678610000000        -0.000120954898
   25        624.475513000000        -0.000274214115
   26        265.735250000000        -0.000474539188
   27        116.709586000000        -0.000379651678
   28         50.306071000000         0.000639364679
   29         23.036081700000         0.001507381936
   30         10.586238100000         0.000583947955
   31          4.798113940000         0.000023894951
   32          2.133543170000         0.000006538541
   33          0.857316380000        -0.000002143928
   34          0.378404470000         0.000000992836
   35   18535881.300000000745        -0.000000287366
   36    2419299.990000000224        -0.000000928290
   37     474949.065000000002        -0.000002719318
   38     117392.346000000005        -0.000007291210
   39      34065.440100000000        -0.000019083150
   40      11133.885300000000        -0.000050165312
   41       3988.280760000000        -0.000133056845
   42       1534.678610000000        -0.000341753281
   43        624.475513000000        -0.000788341923
   44        265.735250000000        -0.001417353130
   45        116.709586000000        -0.001212637827
   46         50.306071000000         0.002529938564
   47         23.036081700000         0.008548171516
   48         10.586238100000         0.003439210745
   49          4.798113940000        -0.011167711360
   50          2.133543170000        -0.009504992906
   51          0.857316380000        -0.000517565788
   52          0.378404470000        -0.000096026866
   53          0.152386050000         0.000039712436
   54          0.060954420000        -0.000013244477
   55   18535881.300000000745         0.000001827876
   56    2419299.990000000224         0.000005904231
   57     474949.065000000002         0.000017292091
   58     117392.346000000005         0.000046364181
   59      34065.440100000000         0.000121373525
   60      11133.885300000000         0.000319135208
   61       3988.280760000000         0.000846961409
   62       1534.678610000000         0.002177962207
   63        624.475513000000         0.005037931044
   64        265.735250000000         0.009111872313
   65        116.709586000000         0.007887065443
   66         50.306071000000        -0.017023490753
   67         23.036081700000        -0.061015277505
   68         10.586238100000        -0.025367468382
   69          4.798113940000         0.105490923388
   70          2.133543170000         0.164487403082
   71          0.857316380000        -0.067386125771
   72          0.378404470000        -0.246931227049
   73          0.152386050000        -0.093331566783
   74          0.060954420000         0.000289323113
   75   18535881.300000000745        -0.000005112589
   76    2419299.990000000224        -0.000016525306
   77     474949.065000000002        -0.000048303554
   78     117392.346000000005        -0.000130182088
   79      34065.440100000000        -0.000337415440
   80      11133.885300000000        -0.000902668814
   81       3988.280760000000        -0.002333993193
   82       1534.678610000000        -0.006229354049
   83        624.475513000000        -0.013709619011
   84        265.735250000000        -0.026864556835
   85        116.709586000000        -0.018833944434
   86         50.306071000000         0.039950015887
   87         23.036081700000         0.202048939965
   88         10.586238100000         0.011267590570
   89          4.798113940000        -0.229538227394
   90          2.133543170000        -0.841103774547
   91          0.857316380000         1.410853133777
   92          0.378404470000         0.289440888468
   93          0.152386050000        -1.040052704372
   94          0.060954420000        -0.023975944145
   95   18535881.300000000745         0.000001132978
   96    2419299.990000000224         0.000003653988
   97     474949.065000000002         0.000010760606
   98     117392.346000000005         0.000028525807
   99      34065.440100000000         0.000076364593
  100      11133.885300000000         0.000193340540
  101       3988.280760000000         0.000543642825
  102       1534.678610000000         0.001292294251
  103        624.475513000000         0.003340590862
  104        265.735250000000         0.005153450895
  105        116.709586000000         0.006463990924
  106         50.306071000000        -0.015818144169
  107         23.036081700000        -0.031792388268
  108         10.586238100000        -0.033807887583
  109          4.798113940000         0.146930702144
  110          2.133543170000         0.077898315245
  111          0.857316380000        -0.540271317248
  112          0.378404470000         0.603294230686
  113          0.152386050000        -0.203305582861
  114          0.060954420000        -0.060308150602
  115   18535881.300000000745         0.000005132838
  116    2419299.990000000224         0.000016400437
  117     474949.065000000002         0.000049340615
  118     117392.346000000005         0.000124725830
  119      34065.440100000000         0.000365449521
  120      11133.885300000000         0.000786433353
  121       3988.280760000000         0.002795666334
  122       1534.678610000000         0.004679241215
  123        624.475513000000         0.018944861814
  124        265.735250000000         0.012549489836
  125        116.709586000000         0.058670544944
  126         50.306071000000        -0.158333662547
  127         23.036081700000         0.049504045671
  128         10.586238100000        -0.590843261929
  129          4.798113940000         1.842468861274
  130          2.133543170000        -1.973765104690
  131          0.857316380000         0.521352291808
  132          0.378404470000         1.191543304169
  133          0.152386050000        -1.990768440913
  134          0.060954420000         1.203384580180
 S 134
    1   18535881.300000000745         0.000000068736
    2    2419299.990000000224         0.000000221789
    3     474949.065000000002         0.000000648214
    4     117392.346000000005         0.000001730969
    5      34065.440100000000         0.000004494447
    6      11133.885300000000         0.000011644445
    7       3988.280760000000         0.000029951554
    8       1534.678610000000         0.000072125369
    9        624.475513000000         0.000143959383
   10        265.735250000000         0.000191409462
   11        116.709586000000         0.000113798015
   12         50.306071000000         0.000013563651
   13         23.036081700000         0.000000297355
   14         10.586238100000        -0.000000276368
   15          4.798113940000         0.000000190494
   16          2.133543170000        -0.000000135970
   17   18535881.300000000745        -0.000000066851
   18    2419299.990000000224        -0.000000215940
   19     474949.065000000002        -0.000000632341
   20     117392.346000000005        -0.000001694714
   21      34065.440100000000        -0.000004431249
   22      11133.885300000000        -0.000011629718
   23       3988.280760000000        -0.000030735486
   24       1534.678610000000        -0.000078344295
   25        624.475513000000        -0.000177612579
   26        265.735250000000        -0.000307366121
   27        116.709586000000        -0.000245906063
   28         50.306071000000         0.000414126053
   29         23.036081700000         0.000976353798
   30         10.586238100000         0.000378231814
   31          4.798113940000         0.000015477117
   32          2.133543170000         0.000004235111
   33          0.857316380000        -0.000001388654
   34          0.378404470000         0.000000643075
   35   18535881.300000000745        -0.000000174684
   36    2419299.990000000224        -0.000000564290
   37     474949.065000000002        -0.000001653023
   38     117392.346000000005        -0.000004432190
   39      34065.440100000000        -0.000011600290
   40      11133.885300000000        -0.000030494554
   41       3988.280760000000        -0.000080882765
   42       1534.678610000000        -0.000207745421
   43        624.475513000000        -0.000479218296
   44        265.735250000000        -0.000861582433
   45        116.709586000000        -0.000737139833
   46         50.306071000000         0.001537902289
   47         23.036081700000         0.005196273429
   48         10.586238100000         0.002090631825
   49          4.798113940000        -0.006788642659
   50          2.133543170000        -0.005777907239
   51          0.857316380000        -0.000314618553
   52          0.378404470000        -0.000058372934
   53          0.152386050000         0.000024140446
   54          0.060954420000        -0.000008051070
   55   18535881.300000000745        -0.000000404583
   56    2419299.990000000224        -0.000001306846
   57     474949.065000000002        -0.000003827443
   58     117392.346000000005        -0.000010262278
   59      34065.440100000000        -0.000026864896
   60      11133.885300000000        -0.000070637596
   61       3988.280760000000        -0.000187466993
   62       1534.678610000000        -0.000482071581
   63        624.475513000000        -0.001115098955
   64        265.735250000000        -0.002016827783
   65        116.709586000000        -0.001745728228
   66         50.306071000000         0.003767990588
   67         23.036081700000         0.013505161466
   68         10.586238100000         0.005614852058
   69          4.798113940000        -0.023349430042
   70          2.133543170000        -0.036407749479
   71          0.857316380000         0.014915289192
   72          0.378404470000         0.054655919447
   73          0.152386050000         0.020658070091
   74          0.060954420000        -0.000064038967
   75   18535881.300000000745         0.000002018759
   76    2419299.990000000224         0.000006525189
   77     474949.065000000002         0.000019073159
   78     117392.346000000005         0.000051403748
   79      34065.440100000000         0.000133231987
   80      11133.885300000000         0.000356428146
   81       3988.280760000000         0.000921601426
   82       1534.678610000000         0.002459725072
   83        624.475513000000         0.005413385296
   84        265.735250000000         0.010607748970
   85        116.709586000000         0.007436778350
   86         50.306071000000        -0.015774678230
   87         23.036081700000        -0.079781120082
   88         10.586238100000        -0.004449125031
   89          4.798113940000         0.090635550409
   90          2.133543170000         0.332118551329
   91          0.857316380000        -0.557089996630
   92          0.378404470000        -0.114288737588
   93          0.152386050000         0.410675600246
   94          0.060954420000         0.009467150282
   95   18535881.300000000745        -0.000005828149
   96    2419299.990000000224        -0.000018796470
   97     474949.065000000002        -0.000055353603
   98     117392.346000000005        -0.000146739529
   99      34065.440100000000        -0.000392826897
  100      11133.885300000000        -0.000994562546
  101       3988.280760000000        -0.002796551581
  102       1534.678610000000        -0.006647687354
  103        624.475513000000        -0.017184324394
  104        265.735250000000        -0.026509852776
  105        116.709586000000        -0.033251398185
  106         50.306071000000         0.081370072532
  107         23.036081700000         0.163543138292
  108         10.586238100000         0.173911062854
  109          4.798113940000        -0.755825826537
  110          2.133543170000        -0.400716512251
  111          0.857316380000         2.779208218261
  112          0.378404470000        -3.103404216412
  113          0.152386050000         1.045823697590
  114          0.060954420000         0.310230994004
  115   18535881.300000000745         0.000006248670
  116    2419299.990000000224         0.000019965739
  117     474949.065000000002         0.000060066805
  118     117392.346000000005         0.000151840064
  119      34065.440100000000         0.000444894845
  120      11133.885300000000         0.000957396643
  121       3988.280760000000         0.003403418169
  122       1534.678610000000         0.005696464694
  123        624.475513000000         0.023063298405
  124        265.735250000000         0.015277632097
  125        116.709586000000         0.071424975220
  126         50.306071000000        -0.192753926774
  127         23.036081700000         0.060265764341
  128         10.586238100000        -0.719287086604
  129          4.798113940000         2.243004439210
[...]
  BAS[ATNO][ 14].a[ 24] =       116.709586000000;     BAS[ATNO][ 14].d[ 24] =        -0.003418426762;
  BAS[ATNO][ 14].a[ 25] =        50.306071000000;     BAS[ATNO][ 14].d[ 25] =        -0.008588748673;
  BAS[ATNO][ 14].a[ 26] =        23.036081700000;     BAS[ATNO][ 14].d[ 26] =        -0.035902222748;
  BAS[ATNO][ 14].a[ 27] =        10.586238100000;     BAS[ATNO][ 14].d[ 27] =        -0.059742926437;
  BAS[ATNO][ 14].a[ 28] =         4.798113940000;     BAS[ATNO][ 14].d[ 28] =        -0.128161907698;
  BAS[ATNO][ 14].a[ 29] =         2.133543170000;     BAS[ATNO][ 14].d[ 29] =        -0.059381254278;
  BAS[ATNO][ 14].a[ 30] =         0.857316380000;     BAS[ATNO][ 14].d[ 30] =         0.763639497775;
  BAS[ATNO][ 14].a[ 31] =         0.342926550000;     BAS[ATNO][ 14].d[ 31] =        -0.471354092439;
  BAS[ATNO][ 14].a[ 32] =         0.137170620000;     BAS[ATNO][ 14].d[ 32] =        -0.255418985397;
  BAS[ATNO][ 14].a[ 33] =       624.475513000000;     BAS[ATNO][ 14].d[ 33] =        -0.000357527338;
  BAS[ATNO][ 14].a[ 34] =       265.735250000000;     BAS[ATNO][ 14].d[ 34] =         0.001009223933;
  BAS[ATNO][ 14].a[ 35] =       116.709586000000;     BAS[ATNO][ 14].d[ 35] =        -0.005543821779;
  BAS[ATNO][ 14].a[ 36] =        50.306071000000;     BAS[ATNO][ 14].d[ 36] =         0.006544346850;
  BAS[ATNO][ 14].a[ 37] =        23.036081700000;     BAS[ATNO][ 14].d[ 37] =        -0.051189677105;
  BAS[ATNO][ 14].a[ 38] =        10.586238100000;     BAS[ATNO][ 14].d[ 38] =         0.027792593766;
  BAS[ATNO][ 14].a[ 39] =         4.798113940000;     BAS[ATNO][ 14].d[ 39] =        -0.286199019231;
  BAS[ATNO][ 14].a[ 40] =         2.133543170000;     BAS[ATNO][ 14].d[ 40] =         0.396095991662;
  BAS[ATNO][ 14].a[ 41] =         0.857316380000;     BAS[ATNO][ 14].d[ 41] =         0.081543749309;
  BAS[ATNO][ 14].a[ 42] =         0.342926550000;     BAS[ATNO][ 14].d[ 42] =        -0.545165741689;
  BAS[ATNO][ 14].a[ 43] =         0.137170620000;     BAS[ATNO][ 14].d[ 43] =         0.510538735053;

  // Basis function  16 L = d
  InitBFNGauss(BAS[ATNO][ 15]);
  BAS[ATNO][ 15].l  = 2;
  BAS[ATNO][ 15].ng = 44;
  BAS[ATNO][ 15].a[  0] =       624.475513000000;     BAS[ATNO][ 15].d[  0] =        -0.000004073470;
  BAS[ATNO][ 15].a[  1] =       265.735250000000;     BAS[ATNO][ 15].d[  1] =        -0.000014203743;
  BAS[ATNO][ 15].a[  2] =       116.709586000000;     BAS[ATNO][ 15].d[  2] =        -0.000084937603;
  BAS[ATNO][ 15].a[  3] =        50.306071000000;     BAS[ATNO][ 15].d[  3] =        -0.000326336091;
  BAS[ATNO][ 15].a[  4] =        23.036081700000;     BAS[ATNO][ 15].d[  4] =        -0.000932750172;
  BAS[ATNO][ 15].a[  5] =        10.586238100000;     BAS[ATNO][ 15].d[  5] =        -0.001892317589;
  BAS[ATNO][ 15].a[  6] =         4.798113940000;     BAS[ATNO][ 15].d[  6] =        -0.002417403823;
  BAS[ATNO][ 15].a[  7] =         2.133543170000;     BAS[ATNO][ 15].d[  7] =        -0.001824605404;
  BAS[ATNO][ 15].a[  8] =         0.857316380000;     BAS[ATNO][ 15].d[  8] =        -0.000523317009;
  BAS[ATNO][ 15].a[  9] =         0.342926550000;     BAS[ATNO][ 15].d[  9] =        -0.000002194202;
  BAS[ATNO][ 15].a[ 10] =         0.137170620000;     BAS[ATNO][ 15].d[ 10] =        -0.000010380003;
  BAS[ATNO][ 15].a[ 11] =       624.475513000000;     BAS[ATNO][ 15].d[ 11] =        -0.000143211706;
  BAS[ATNO][ 15].a[ 12] =       265.735250000000;     BAS[ATNO][ 15].d[ 12] =        -0.000559578342;
  BAS[ATNO][ 15].a[ 13] =       116.709586000000;     BAS[ATNO][ 15].d[ 13] =        -0.003036523255;
  BAS[ATNO][ 15].a[ 14] =        50.306071000000;     BAS[ATNO][ 15].d[ 14] =        -0.012407268320;
  BAS[ATNO][ 15].a[ 15] =        23.036081700000;     BAS[ATNO][ 15].d[ 15] =        -0.033828671668;
  BAS[ATNO][ 15].a[ 16] =        10.586238100000;     BAS[ATNO][ 15].d[ 16] =        -0.075233341685;
  BAS[ATNO][ 15].a[ 17] =         4.798113940000;     BAS[ATNO][ 15].d[ 17] =        -0.088119653647;
  BAS[ATNO][ 15].a[ 18] =         2.133543170000;     BAS[ATNO][ 15].d[ 18] =        -0.082714128798;
  BAS[ATNO][ 15].a[ 19] =         0.857316380000;     BAS[ATNO][ 15].d[ 19] =         0.330733291886;
  BAS[ATNO][ 15].a[ 20] =         0.342926550000;     BAS[ATNO][ 15].d[ 20] =         0.456112246436;
  BAS[ATNO][ 15].a[ 21] =         0.137170620000;     BAS[ATNO][ 15].d[ 21] =         0.071420049698;
  BAS[ATNO][ 15].a[ 22] =       624.475513000000;     BAS[ATNO][ 15].d[ 22] =         0.000090983425;
  BAS[ATNO][ 15].a[ 23] =       265.735250000000;     BAS[ATNO][ 15].d[ 23] =         0.000129416132;
  BAS[ATNO][ 15].a[ 24] =       116.709586000000;     BAS[ATNO][ 15].d[ 24] =         0.001725094687;
  BAS[ATNO][ 15].a[ 25] =        50.306071000000;     BAS[ATNO][ 15].d[ 25] =         0.004334275893;
  BAS[ATNO][ 15].a[ 26] =        23.036081700000;     BAS[ATNO][ 15].d[ 26] =         0.018117905701;
  BAS[ATNO][ 15].a[ 27] =        10.586238100000;     BAS[ATNO][ 15].d[ 27] =         0.030149016540;
  BAS[ATNO][ 15].a[ 28] =         4.798113940000;     BAS[ATNO][ 15].d[ 28] =         0.064676367655;
  BAS[ATNO][ 15].a[ 29] =         2.133543170000;     BAS[ATNO][ 15].d[ 29] =         0.029966500206;
  BAS[ATNO][ 15].a[ 30] =         0.857316380000;     BAS[ATNO][ 15].d[ 30] =        -0.385367460589;
  BAS[ATNO][ 15].a[ 31] =         0.342926550000;     BAS[ATNO][ 15].d[ 31] =         0.237866860176;
  BAS[ATNO][ 15].a[ 32] =         0.137170620000;     BAS[ATNO][ 15].d[ 32] =         0.128896116656;
  BAS[ATNO][ 15].a[ 33] =       624.475513000000;     BAS[ATNO][ 15].d[ 33] =         0.000513611978;
  BAS[ATNO][ 15].a[ 34] =       265.735250000000;     BAS[ATNO][ 15].d[ 34] =        -0.001449817806;
  BAS[ATNO][ 15].a[ 35] =       116.709586000000;     BAS[ATNO][ 15].d[ 35] =         0.007964071467;
  BAS[ATNO][ 15].a[ 36] =        50.306071000000;     BAS[ATNO][ 15].d[ 36] =        -0.009401392775;
  BAS[ATNO][ 15].a[ 37] =        23.036081700000;     BAS[ATNO][ 15].d[ 37] =         0.073537401288;
  BAS[ATNO][ 15].a[ 38] =        10.586238100000;     BAS[ATNO][ 15].d[ 38] =        -0.039925923275;
  BAS[ATNO][ 15].a[ 39] =         4.798113940000;     BAS[ATNO][ 15].d[ 39] =         0.411144068797;
  BAS[ATNO][ 15].a[ 40] =         2.133543170000;     BAS[ATNO][ 15].d[ 40] =        -0.569018433690;
  BAS[ATNO][ 15].a[ 41] =         0.857316380000;     BAS[ATNO][ 15].d[ 41] =        -0.117143059980;
  BAS[ATNO][ 15].a[ 42] =         0.342926550000;     BAS[ATNO][ 15].d[ 42] =         0.783167118496;
  BAS[ATNO][ 15].a[ 43] =         0.137170620000;     BAS[ATNO][ 15].d[ 43] =        -0.733423103171;

  // Basis function  17 L = d
  InitBFNGauss(BAS[ATNO][ 16]);
  BAS[ATNO][ 16].l  = 2;
  BAS[ATNO][ 16].ng = 44;
  BAS[ATNO][ 16].a[  0] =       624.475513000000;     BAS[ATNO][ 16].d[  0] =        -0.000010760276;
  BAS[ATNO][ 16].a[  1] =       265.735250000000;     BAS[ATNO][ 16].d[  1] =        -0.000037519900;
  BAS[ATNO][ 16].a[  2] =       116.709586000000;     BAS[ATNO][ 16].d[  2] =        -0.000224366944;
  BAS[ATNO][ 16].a[  3] =        50.306071000000;     BAS[ATNO][ 16].d[  3] =        -0.000862033173;
  BAS[ATNO][ 16].a[  4] =        23.036081700000;     BAS[ATNO][ 16].d[  4] =        -0.002463906420;
  BAS[ATNO][ 16].a[  5] =        10.586238100000;     BAS[ATNO][ 16].d[  5] =        -0.004998651940;
  BAS[ATNO][ 16].a[  6] =         4.798113940000;     BAS[ATNO][ 16].d[  6] =        -0.006385693595;
  BAS[ATNO][ 16].a[  7] =         2.133543170000;     BAS[ATNO][ 16].d[  7] =        -0.004819786803;
  BAS[ATNO][ 16].a[  8] =         0.857316380000;     BAS[ATNO][ 16].d[  8] =        -0.001382368160;
  BAS[ATNO][ 16].a[  9] =         0.342926550000;     BAS[ATNO][ 16].d[  9] =        -0.000005796095;
  BAS[ATNO][ 16].a[ 10] =         0.137170620000;     BAS[ATNO][ 16].d[ 10] =        -0.000027419300;
  BAS[ATNO][ 16].a[ 11] =       624.475513000000;     BAS[ATNO][ 16].d[ 11] =         0.000047402708;
  BAS[ATNO][ 16].a[ 12] =       265.735250000000;     BAS[ATNO][ 16].d[ 12] =         0.000185218998;
  BAS[ATNO][ 16].a[ 13] =       116.709586000000;     BAS[ATNO][ 16].d[ 13] =         0.001005081418;
  BAS[ATNO][ 16].a[ 14] =        50.306071000000;     BAS[ATNO][ 16].d[ 14] =         0.004106774026;
  BAS[ATNO][ 16].a[ 15] =        23.036081700000;     BAS[ATNO][ 16].d[ 15] =         0.011197203651;
  BAS[ATNO][ 16].a[ 16] =        10.586238100000;     BAS[ATNO][ 16].d[ 16] =         0.024902043345;
  BAS[ATNO][ 16].a[ 17] =         4.798113940000;     BAS[ATNO][ 16].d[ 17] =         0.029167379589;
  BAS[ATNO][ 16].a[ 18] =         2.133543170000;     BAS[ATNO][ 16].d[ 18] =         0.027378164713;
  BAS[ATNO][ 16].a[ 19] =         0.857316380000;     BAS[ATNO][ 16].d[ 19] =        -0.109471872255;
  BAS[ATNO][ 16].a[ 20] =         0.342926550000;     BAS[ATNO][ 16].d[ 20] =        -0.150971984983;
  BAS[ATNO][ 16].a[ 21] =         0.137170620000;     BAS[ATNO][ 16].d[ 21] =        -0.023639853467;
  BAS[ATNO][ 16].a[ 22] =       624.475513000000;     BAS[ATNO][ 16].d[ 22] =        -0.000201712564;
  BAS[ATNO][ 16].a[ 23] =       265.735250000000;     BAS[ATNO][ 16].d[ 23] =        -0.000286918853;
  BAS[ATNO][ 16].a[ 24] =       116.709586000000;     BAS[ATNO][ 16].d[ 24] =        -0.003824578752;
  BAS[ATNO][ 16].a[ 25] =        50.306071000000;     BAS[ATNO][ 16].d[ 25] =        -0.009609199779;
  BAS[ATNO][ 16].a[ 26] =        23.036081700000;     BAS[ATNO][ 16].d[ 26] =        -0.040167857276;
  BAS[ATNO][ 16].a[ 27] =        10.586238100000;     BAS[ATNO][ 16].d[ 27] =        -0.066841135693;
  BAS[ATNO][ 16].a[ 28] =         4.798113940000;     BAS[ATNO][ 16].d[ 28] =        -0.143389150380;
  BAS[ATNO][ 16].a[ 29] =         2.133543170000;     BAS[ATNO][ 16].d[ 29] =        -0.066436492343;
  BAS[ATNO][ 16].a[ 30] =         0.857316380000;     BAS[ATNO][ 16].d[ 30] =         0.854369451500;
  BAS[ATNO][ 16].a[ 31] =         0.342926550000;     BAS[ATNO][ 16].d[ 31] =        -0.527356872704;
  BAS[ATNO][ 16].a[ 32] =         0.137170620000;     BAS[ATNO][ 16].d[ 32] =        -0.285765965606;
  BAS[ATNO][ 16].a[ 33] =       624.475513000000;     BAS[ATNO][ 16].d[ 33] =         0.000590848986;
  BAS[ATNO][ 16].a[ 34] =       265.735250000000;     BAS[ATNO][ 16].d[ 34] =        -0.001667841518;
  BAS[ATNO][ 16].a[ 35] =       116.709586000000;     BAS[ATNO][ 16].d[ 35] =         0.009161709141;
  BAS[ATNO][ 16].a[ 36] =        50.306071000000;     BAS[ATNO][ 16].d[ 36] =        -0.010815174936;
  BAS[ATNO][ 16].a[ 37] =        23.036081700000;     BAS[ATNO][ 16].d[ 37] =         0.084595961292;
  BAS[ATNO][ 16].a[ 38] =        10.586238100000;     BAS[ATNO][ 16].d[ 38] =        -0.045929986657;
  BAS[ATNO][ 16].a[ 39] =         4.798113940000;     BAS[ATNO][ 16].d[ 39] =         0.472971945166;
  BAS[ATNO][ 16].a[ 40] =         2.133543170000;     BAS[ATNO][ 16].d[ 40] =        -0.654587469070;
  BAS[ATNO][ 16].a[ 41] =         0.857316380000;     BAS[ATNO][ 16].d[ 41] =        -0.134759042259;
  BAS[ATNO][ 16].a[ 42] =         0.342926550000;     BAS[ATNO][ 16].d[ 42] =         0.900939849401;
  BAS[ATNO][ 16].a[ 43] =         0.137170620000;     BAS[ATNO][ 16].d[ 43] =        -0.843715325264;

  // Basis function  18 L = f
  InitBFNGauss(BAS[ATNO][ 17]);
  BAS[ATNO][ 17].l  = 3;
  BAS[ATNO][ 17].ng = 12;
  BAS[ATNO][ 17].a[  0] =         1.688892000000;     BAS[ATNO][ 17].d[  0] =        -0.053238483583;
  BAS[ATNO][ 17].a[  1] =         0.675557000000;     BAS[ATNO][ 17].d[  1] =        -0.399394737901;
  BAS[ATNO][ 17].a[  2] =         0.270223000000;     BAS[ATNO][ 17].d[  2] =        -0.131909846821;
  BAS[ATNO][ 17].a[  3] =         0.108089000000;     BAS[ATNO][ 17].d[  3] =        -0.002318669100;
  BAS[ATNO][ 17].a[  4] =         1.688892000000;     BAS[ATNO][ 17].d[  4] =        -0.269815059360;
  BAS[ATNO][ 17].a[  5] =         0.675557000000;     BAS[ATNO][ 17].d[  5] =        -0.313517837615;
  BAS[ATNO][ 17].a[  6] =         0.270223000000;     BAS[ATNO][ 17].d[  6] =         0.658370343691;
  BAS[ATNO][ 17].a[  7] =         0.108089000000;     BAS[ATNO][ 17].d[  7] =        -0.058365776350;
  BAS[ATNO][ 17].a[  8] =         1.688892000000;     BAS[ATNO][ 17].d[  8] =        -0.754419688594;
  BAS[ATNO][ 17].a[  9] =         0.675557000000;     BAS[ATNO][ 17].d[  9] =         0.846251616798;
  BAS[ATNO][ 17].a[ 10] =         0.270223000000;     BAS[ATNO][ 17].d[ 10] =        -0.417186008651;
  BAS[ATNO][ 17].a[ 11] =         0.108089000000;     BAS[ATNO][ 17].d[ 11] =        -0.138012307542;

  // Basis function  19 L = f
  InitBFNGauss(BAS[ATNO][ 18]);
  BAS[ATNO][ 18].l  = 3;
  BAS[ATNO][ 18].ng = 12;
  BAS[ATNO][ 18].a[  0] =         1.688892000000;     BAS[ATNO][ 18].d[  0] =         0.081853612903;
  BAS[ATNO][ 18].a[  1] =         0.675557000000;     BAS[ATNO][ 18].d[  1] =         0.614065241370;
  BAS[ATNO][ 18].a[  2] =         0.270223000000;     BAS[ATNO][ 18].d[  2] =         0.202810012854;
  BAS[ATNO][ 18].a[  3] =         0.108089000000;     BAS[ATNO][ 18].d[  3] =         0.003564929543;
  BAS[ATNO][ 18].a[  4] =         1.688892000000;     BAS[ATNO][ 18].d[  4] =        -0.056655544760;
  BAS[ATNO][ 18].a[  5] =         0.675557000000;     BAS[ATNO][ 18].d[  5] =        -0.065832218276;
  BAS[ATNO][ 18].a[  6] =         0.270223000000;     BAS[ATNO][ 18].d[  6] =         0.138244064523;
  BAS[ATNO][ 18].a[  7] =         0.108089000000;     BAS[ATNO][ 18].d[  7] =        -0.012255597824;
  BAS[ATNO][ 18].a[  8] =         1.688892000000;     BAS[ATNO][ 18].d[  8] =        -0.706231889919;
  BAS[ATNO][ 18].a[  9] =         0.675557000000;     BAS[ATNO][ 18].d[  9] =         0.792198146090;
  BAS[ATNO][ 18].a[ 10] =         0.270223000000;     BAS[ATNO][ 18].d[ 10] =        -0.390538672031;
  BAS[ATNO][ 18].a[ 11] =         0.108089000000;     BAS[ATNO][ 18].d[ 11] =        -0.129196910236;

  // Basis function  20 L = f
  InitBFNGauss(BAS[ATNO][ 19]);
  BAS[ATNO][ 19].l  = 3;
  BAS[ATNO][ 19].ng = 12;
  BAS[ATNO][ 19].a[  0] =         1.688892000000;     BAS[ATNO][ 19].d[  0] =         0.026544542276;
  BAS[ATNO][ 19].a[  1] =         0.675557000000;     BAS[ATNO][ 19].d[  1] =         0.199136973696;
  BAS[ATNO][ 19].a[  2] =         0.270223000000;     BAS[ATNO][ 19].d[  2] =         0.065769839219;
  BAS[ATNO][ 19].a[  3] =         0.108089000000;     BAS[ATNO][ 19].d[  3] =         0.001156081199;
  BAS[ATNO][ 19].a[  4] =         1.688892000000;     BAS[ATNO][ 19].d[  4] =        -0.366443827928;
  BAS[ATNO][ 19].a[  5] =         0.675557000000;     BAS[ATNO][ 19].d[  5] =        -0.425797866182;
  BAS[ATNO][ 19].a[  6] =         0.270223000000;     BAS[ATNO][ 19].d[  6] =         0.894152274185;
  BAS[ATNO][ 19].a[  7] =         0.108089000000;     BAS[ATNO][ 19].d[  7] =        -0.079268290496;
  BAS[ATNO][ 19].a[  8] =         1.688892000000;     BAS[ATNO][ 19].d[  8] =         0.664674172264;
  BAS[ATNO][ 19].a[  9] =         0.675557000000;     BAS[ATNO][ 19].d[  9] =        -0.745581804699;
  BAS[ATNO][ 19].a[ 10] =         0.270223000000;     BAS[ATNO][ 19].d[ 10] =         0.367557699213;
  BAS[ATNO][ 19].a[ 11] =         0.108089000000;     BAS[ATNO][ 19].d[ 11] =         0.121594409139;

  // Basis function  21 L = g
  InitBFNGauss(BAS[ATNO][ 20]);
  BAS[ATNO][ 20].l  = 4;
  BAS[ATNO][ 20].ng = 4;
  BAS[ATNO][ 20].a[  0] =         0.844446000000;     BAS[ATNO][ 20].d[  0] =         0.708358181215;
  BAS[ATNO][ 20].a[  1] =         0.337778000000;     BAS[ATNO][ 20].d[  1] =         0.295343498155;
  BAS[ATNO][ 20].a[  2] =         0.844446000000;     BAS[ATNO][ 20].d[  2] =         0.388835005410;
  BAS[ATNO][ 20].a[  3] =         0.337778000000;     BAS[ATNO][ 20].d[  3] =        -0.486854495845;

  // Basis function  22 L = g
  InitBFNGauss(BAS[ATNO][ 21]);
  BAS[ATNO][ 21].l  = 4;
  BAS[ATNO][ 21].ng = 4;
  BAS[ATNO][ 21].a[  0] =         0.844446000000;     BAS[ATNO][ 21].d[  0] =         0.322328810095;
  BAS[ATNO][ 21].a[  1] =         0.337778000000;     BAS[ATNO][ 21].d[  1] =         0.134392064430;
  BAS[ATNO][ 21].a[  2] =         0.844446000000;     BAS[ATNO][ 21].d[  2] =        -0.854513915246;
  BAS[ATNO][ 21].a[  3] =         0.337778000000;     BAS[ATNO][ 21].d[  3] =         1.069924095340;

-------
TIMINGS
-------

Total SCF time: 0 days 0 hours 1 min 34 sec 

Total time                  ....      94.506 sec
Sum of individual times     ....      94.131 sec  ( 99.6%)

Fock matrix formation       ....      93.370 sec  ( 98.8%)
  XC integration            ....       0.069 sec  (  0.1% of F)
    Basis function eval.    ....       0.031 sec  ( 45.7% of XC)
    Density eval.           ....       0.004 sec  (  5.7% of XC)
    XC-Functional eval.     ....       0.003 sec  (  3.7% of XC)
    XC-Potential eval.      ....       0.008 sec  ( 12.3% of XC)
Diagonalization             ....       0.003 sec  (  0.0%)
Density matrix formation    ....       0.001 sec  (  0.0%)
Population analysis         ....       0.001 sec  (  0.0%)
Initial guess               ....       0.087 sec  (  0.1%)
Orbital Transformation      ....       0.000 sec  (  0.0%)
Orbital Orthonormalization  ....       0.000 sec  (  0.0%)
DIIS solution               ....       0.000 sec  (  0.0%)
SOSCF solution              ....       0.001 sec  (  0.0%)
Grid generation             ....       0.667 sec  (  0.7%)

-------------------------   --------------------
FINAL SINGLE POINT ENERGY     -1253.901560012884
-------------------------   --------------------


                            ***************************************
                            *     ORCA property calculations      *
                            ***************************************

                                    ---------------------
                                    Active property flags
                                    ---------------------
   (+) Dipole Moment


------------------------------------------------------------------------------
                       ORCA ELECTRIC PROPERTIES CALCULATION
------------------------------------------------------------------------------

Dipole Moment Calculation                       ... on
Quadrupole Moment Calculation                   ... off
Polarizability Calculation                      ... off
GBWName                                         ... Kr_ano-rcc-qzp_548.143956_.gbw
Electron density file                           ... Kr_ano-rcc-qzp_548.143956_.scfp
The origin for moment calculation is the CENTER OF MASS  = ( 0.000000,  0.000000  0.000000)

-------------
DIPOLE MOMENT
-------------
                                X             Y             Z
Electronic contribution:      0.00000      -0.00000      -0.00000
Nuclear contribution   :      0.00000       0.00000       0.00000
                        -----------------------------------------
Total Dipole Moment    :      0.00000      -0.00000      -0.00000
                        -----------------------------------------
Magnitude (a.u.)       :      0.00000
Magnitude (Debye)      :      0.00000



--------------------
Rotational spectrum 
--------------------
 
Rotational constants in cm-1:     0.000000     0.000000     0.000000 
Rotational constants in MHz :     0.000000     0.000000     0.000000 

 Dipole components along the rotational axes: 
x,y,z [a.u.] :     0.000000    -0.000000    -0.000000 
x,y,z [Debye]:     0.000000    -0.000000    -0.000000 

 

Timings for individual modules:

Sum of individual times         ...       96.116 sec (=   1.602 min)
GTO integral calculation        ...        0.792 sec (=   0.013 min)   0.8 %
Relativistic integrals          ...        0.505 sec (=   0.008 min)   0.5 %
SCF iterations                  ...       94.820 sec (=   1.580 min)  98.7 %
                             ****ORCA TERMINATED NORMALLY****
TOTAL RUN TIME: 0 days 0 hours 1 minutes 36 seconds 526 msec
